<event>
 7    1  0.2556591E-009  0.1600522E+03  0.7561462E-02  0.1188638E+00
          1   -1    0    0  501    0  0.00000000000E+00  0.00000000000E+00  0.46423259072E+02  0.46423259072E+02  0.00000000000E+00 0. -1.
         -1   -1    0    0    0  501 -0.00000000000E+00 -0.00000000000E+00 -0.91493282777E+03  0.91493282777E+03  0.00000000000E+00 0.  1.
         25    2    1    2    0    0  0.12080045608E+03 -0.97163998654E+02 -0.63188209655E+03  0.66253732224E+03  0.12508847510E+03 0.  0.
          5    1    3    3  502    0  0.23774717549E+02 -0.51810348085E+02 -0.43168854507E+03  0.43545610767E+03  0.41800000000E+01 0.  1.
         -5    1    3    3    0  502  0.97025738533E+02 -0.45353650568E+02 -0.20019355147E+03  0.22708121457E+03  0.41800000000E+01 0.  1.
        -11    1    1    2    0    0 -0.66007448951E+02  0.43395997623E+02 -0.19737899430E+03  0.21259977261E+03  0.00000000000E+00 0.  1.
         11    1    1    2    0    0 -0.54793007131E+02  0.53768001030E+02 -0.39248477857E+02  0.86218991988E+02  0.00000000000E+00 0. -1.
</event>
<event>
 7    1  0.2556591E-009  0.9653069E+02  0.7561462E-02  0.1287765E+00
         -1   -1    0    0    0  501 -0.00000000000E+00  0.00000000000E+00  0.21962822623E+02  0.21962822623E+02  0.00000000000E+00 0.  1.
          1   -1    0    0  501    0  0.00000000000E+00 -0.00000000000E+00 -0.73780727656E+03  0.73780727656E+03  0.00000000000E+00 0. -1.
         25    2    1    2    0    0 -0.50967899700E+02  0.28463171234E+02 -0.30421065826E+03  0.33406435711E+03  0.12508793377E+03 0.  0.
          5    1    3    3  502    0 -0.16806382104E+02  0.44937301156E+02 -0.28989836995E+02  0.56211196070E+02  0.41800000000E+01 0.  1.
         -5    1    3    3    0  502 -0.34161517596E+02 -0.16474129922E+02 -0.27522082127E+03  0.27785316104E+03  0.41800000000E+01 0.  1.
        -11    1    1    2    0    0  0.74021139330E+02 -0.55274932613E+01 -0.24791532258E+03  0.25878888968E+03  0.00000000000E+00 0.  1.
         11    1    1    2    0    0 -0.23053239630E+02 -0.22935677973E+02 -0.16371847310E+03  0.16691685240E+03  0.00000000000E+00 0. -1.
</event>
<event>
 7    1  0.2556591E-009  0.9159353E+02  0.7561462E-02  0.1299038E+00
          2   -1    0    0  501    0  0.00000000000E+00  0.00000000000E+00  0.25850324894E+03  0.25850324894E+03  0.00000000000E+00 0. -1.
         -2   -1    0    0    0  501 -0.00000000000E+00 -0.00000000000E+00 -0.73399668834E+02  0.73399668834E+02  0.00000000000E+00 0.  1.
         25    2    1    2    0    0  0.63525344095E+02  0.33222858494E+02  0.45729787520E+02  0.15126632188E+03  0.12510419257E+03 0.  0.
          5    1    3    3  502    0 -0.17257384591E+02 -0.33636985609E+01 -0.29702026862E+02  0.34768011025E+02  0.41800000000E+01 0. -1.
         -5    1    3    3    0  502  0.80782728686E+02  0.36586557055E+02  0.75431814382E+02  0.11649831085E+03  0.41800000000E+01 0. -1.
        -11    1    1    2    0    0 -0.35766282317E+01 -0.12348095085E+02 -0.11313118471E+02  0.17124671421E+02  0.00000000000E+00 0.  1.
         11    1    1    2    0    0 -0.59948715863E+02 -0.20874763409E+02  0.15068691106E+03  0.16351192448E+03  0.00000000000E+00 0. -1.
</event>
<event>
 7    1  0.2556591E-009  0.1111590E+03  0.7561462E-02  0.1258438E+00
          2   -1    0    0  501    0  0.00000000000E+00  0.00000000000E+00  0.21531910242E+03  0.21531910242E+03  0.00000000000E+00 0. -1.
         -2   -1    0    0    0  501 -0.00000000000E+00 -0.00000000000E+00 -0.80281482598E+02  0.80281482598E+02  0.00000000000E+00 0.  1.
         25    2    1    2    0    0 -0.44763681673E+02  0.58859311456E+02  0.64453705127E+02  0.15896409532E+03  0.12508835978E+03 0.  0.
          5    1    3    3  502    0 -0.79103561296E+02  0.72652583943E+02  0.41515448155E+02  0.11522489401E+03  0.41800000000E+01 0. -1.
         -5    1    3    3    0  502  0.34339879623E+02 -0.13793272488E+02  0.22938256972E+02  0.43739201311E+02  0.41800000000E+01 0. -1.
        -11    1    1    2    0    0  0.19090858349E+02 -0.81605005906E+01 -0.20565318121E+02  0.29223055142E+02  0.00000000000E+00 0.  1.
         11    1    1    2    0    0  0.25672823324E+02 -0.50698810865E+02  0.91149232818E+02  0.10741343456E+03  0.00000000000E+00 0. -1.
</event>
<event>
 7    1  0.2556591E-009  0.9701603E+02  0.7561462E-02  0.1286699E+00
         -1   -1    0    0    0  501 -0.00000000000E+00  0.00000000000E+00  0.16892181218E+03  0.16892181218E+03  0.00000000000E+00 0.  1.
          1   -1    0    0  501    0  0.00000000000E+00 -0.00000000000E+00 -0.78319691758E+02  0.78319691758E+02  0.00000000000E+00 0. -1.
         25    2    1    2    0    0 -0.38320868614E+02 -0.95612698661E+01  0.49603608455E+02  0.14024161774E+03  0.12508911432E+03 0.  0.
          5    1    3    3  502    0  0.30107122611E+02 -0.44700895631E+02  0.22917975501E+02  0.58713839111E+02  0.41800000000E+01 0. -1.
         -5    1    3    3    0  502 -0.68427991225E+02  0.35139625765E+02  0.26685632954E+02  0.81527778629E+02  0.41800000000E+01 0. -1.
        -11    1    1    2    0    0 -0.10496926310E+02  0.94456926188E+01 -0.22707402612E+02  0.26740095444E+02  0.00000000000E+00 0. -1.
         11    1    1    2    0    0  0.48817794924E+02  0.11557724726E+00  0.63705914577E+02  0.80259790752E+02  0.00000000000E+00 0.  1.
</event>
<event>
 7    1  0.2556591E-009  0.3783714E+03  0.7561462E-02  0.1051537E+00
          2   -1    0    0  501    0  0.00000000000E+00  0.00000000000E+00  0.12476788679E+04  0.12476788679E+04  0.00000000000E+00 0. -1.
         -2   -1    0    0    0  501 -0.00000000000E+00 -0.00000000000E+00 -0.12233537326E+03  0.12233537326E+03  0.00000000000E+00 0.  1.
         25    2    1    2    0    0  0.23019346632E+03  0.29623768198E+03  0.57266015707E+03  0.69593713437E+03  0.12507215255E+03 0.  0.
          5    1    3    3  502    0  0.10913255278E+03  0.88290237523E+02  0.30631066500E+03  0.33696999275E+03  0.41800000000E+01 0. -1.
         -5    1    3    3    0  502  0.12106091354E+03  0.20794744446E+03  0.26634949207E+03  0.35896714163E+03  0.41800000000E+01 0. -1.
        -11    1    1    2    0    0 -0.14203448767E+03 -0.19769195509E+03  0.27995352548E+03  0.37098501483E+03  0.00000000000E+00 0. -1.
         11    1    1    2    0    0 -0.88158978652E+02 -0.98545726887E+02  0.27272981213E+03  0.30309209199E+03  0.00000000000E+00 0.  1.
</event>
<event>
 7    1  0.2556591E-009  0.1258177E+03  0.7561462E-02  0.1233797E+00
         -2   -1    0    0    0  501 -0.00000000000E+00  0.00000000000E+00  0.67677190176E+02  0.67677190176E+02  0.00000000000E+00 0.  1.
          2   -1    0    0  501    0  0.00000000000E+00 -0.00000000000E+00 -0.41335248563E+03  0.41335248563E+03  0.00000000000E+00 0. -1.
         25    2    1    2    0    0 -0.99033835298E+01 -0.12453452936E+03 -0.15555576956E+03  0.23548209861E+03  0.12508914947E+03 0.  0.
          5    1    3    3  502    0 -0.72276323415E+01 -0.24853226080E+02  0.20381037039E+02  0.33208140366E+02  0.41800000000E+01 0. -1.
         -5    1    3    3    0  502 -0.26757511883E+01 -0.99681303280E+02 -0.17593680660E+03  0.20227395825E+03  0.41800000000E+01 0. -1.
        -11    1    1    2    0    0  0.84453824011E+01  0.32914203471E+02 -0.13367433759E+03  0.13792569668E+03  0.00000000000E+00 0. -1.
         11    1    1    2    0    0  0.14580011287E+01  0.91620325889E+02 -0.56445188305E+02  0.10762188052E+03  0.00000000000E+00 0.  1.
</event>
<event>
 7    1  0.2556591E-009  0.1365159E+03  0.7561462E-02  0.1218096E+00
         -3   -1    0    0    0  501 -0.00000000000E+00  0.00000000000E+00  0.33888774987E+03  0.33888774987E+03  0.00000000000E+00 0.  1.
          3   -1    0    0  501    0  0.00000000000E+00 -0.00000000000E+00 -0.70809484789E+02  0.70809484789E+02  0.00000000000E+00 0. -1.
         25    2    1    2    0    0 -0.10581904786E+03 -0.23368103454E+02  0.17082009139E+03  0.23784051276E+03  0.12507944170E+03 0.  0.
          5    1    3    3  502    0 -0.28678802321E+02 -0.61616275750E+02  0.11944116845E+03  0.13748710580E+03  0.41800000000E+01 0. -1.
         -5    1    3    3    0  502 -0.77140245543E+02  0.38248172296E+02  0.51378922944E+02  0.10035340696E+03  0.41800000000E+01 0. -1.
        -11    1    1    2    0    0  0.23270599504E+02 -0.15021719810E+02  0.72352341904E+02  0.77472796815E+02  0.00000000000E+00 0.  1.
         11    1    1    2    0    0  0.82548448360E+02  0.38389823264E+02  0.24905831782E+02  0.94383925081E+02  0.00000000000E+00 0. -1.
</event>
<event>
 7    1  0.2556591E-009  0.4494645E+03  0.7561462E-02  0.1027882E+00
          2   -1    0    0  501    0  0.00000000000E+00  0.00000000000E+00  0.53955641438E+03  0.53955641438E+03  0.00000000000E+00 0. -1.
         -2   -1    0    0    0  501 -0.00000000000E+00 -0.00000000000E+00 -0.67040918696E+03  0.67040918696E+03  0.00000000000E+00 0.  1.
         25    2    1    2    0    0  0.41403942562E+03  0.15162384189E+03  0.33056155501E+03  0.56509769697E+03  0.12508409199E+03 0.  0.
          5    1    3    3  502    0  0.21765322965E+03  0.14233062532E+03  0.16483240081E+03  0.30792552352E+03  0.41800000000E+01 0.  1.
         -5    1    3    3    0  502  0.19638619597E+03  0.92932165758E+01  0.16572915421E+03  0.25717217345E+03  0.41800000000E+01 0.  1.
        -11    1    1    2    0    0 -0.22160475360E+03 -0.63431863864E+02 -0.17855680653E+03  0.29157297771E+03  0.00000000000E+00 0. -1.
         11    1    1    2    0    0 -0.19243467202E+03 -0.88191978030E+02 -0.28285752107E+03  0.35329492667E+03  0.00000000000E+00 0.  1.
</event>
<event>
 7    1  0.2556591E-009  0.2389717E+03  0.7561462E-02  0.1120480E+00
         -1   -1    0    0    0  501 -0.00000000000E+00  0.00000000000E+00  0.30668943541E+02  0.30668943541E+02  0.00000000000E+00 0.  1.
          1   -1    0    0  501    0  0.00000000000E+00 -0.00000000000E+00 -0.22901688561E+04  0.22901688561E+04  0.00000000000E+00 0. -1.
         25    2    1    2    0    0 -0.22992071975E+03  0.25605124962E+02 -0.14745617102E+04  0.14978313923E+04  0.12508989974E+03 0.  0.
          5    1    3    3  502    0 -0.18284784901E+03  0.15405977417E+02 -0.76841029072E+03  0.79002691556E+03  0.41800000000E+01 0.  1.
         -5    1    3    3    0  502 -0.47072870737E+02  0.10199147545E+02 -0.70615141944E+03  0.70780447678E+03  0.41800000000E+01 0.  1.
        -11    1    1    2    0    0  0.13667302932E+03 -0.56400018035E+02 -0.51294523146E+03  0.53382889530E+03  0.00000000000E+00 0. -1.
         11    1    1    2    0    0  0.93247690426E+02  0.30794893073E+02 -0.27199297097E+03  0.28917751204E+03  0.00000000000E+00 0.  1.
</event>
<event>
 7    1  0.2556591E-009  0.1140302E+03  0.7561462E-02  0.1253283E+00
         -3   -1    0    0    0  501 -0.00000000000E+00  0.00000000000E+00  0.41445638466E+02  0.41445638466E+02  0.00000000000E+00 0.  1.
          3   -1    0    0  501    0  0.00000000000E+00 -0.00000000000E+00 -0.37319595827E+03  0.37319595827E+03  0.00000000000E+00 0. -1.
         25    2    1    2    0    0 -0.36128371705E+02 -0.40198028299E+02 -0.12206772980E+03  0.18295030862E+03  0.12509653891E+03 0.  0.
          5    1    3    3  502    0  0.37588091630E+02 -0.41210230015E+02 -0.25729726028E+02  0.61568164596E+02  0.41800000000E+01 0. -1.
         -5    1    3    3    0  502 -0.73716463335E+02  0.10122017164E+01 -0.96338003767E+02  0.12138214403E+03  0.41800000000E+01 0. -1.
        -11    1    1    2    0    0  0.54611819619E+02  0.52761429684E+02 -0.16894639263E+03  0.18522716563E+03  0.00000000000E+00 0.  1.
         11    1    1    2    0    0 -0.18483447914E+02 -0.12563401385E+02 -0.40736197377E+02  0.46464122481E+02  0.00000000000E+00 0. -1.
</event>
<event>
 7    1  0.2556591E-009  0.1490980E+03  0.7561462E-02  0.1201586E+00
          2   -1    0    0  501    0  0.00000000000E+00  0.00000000000E+00  0.12918525790E+04  0.12918525790E+04  0.00000000000E+00 0. -1.
         -2   -1    0    0    0  501 -0.00000000000E+00 -0.00000000000E+00 -0.20763824536E+02  0.20763824536E+02  0.00000000000E+00 0.  1.
         25    2    1    2    0    0 -0.29285480104E+02  0.12636662393E+03  0.72194656412E+03  0.74409674342E+03  0.12508780572E+03 0.  0.
          5    1    3    3  502    0 -0.74551962160E+01 -0.13914644680E+02  0.26690958309E+03  0.26740866709E+03  0.41800000000E+01 0.  1.
         -5    1    3    3    0  502 -0.21830283888E+02  0.14028126861E+03  0.45503698102E+03  0.47668807633E+03  0.41800000000E+01 0.  1.
        -11    1    1    2    0    0  0.43359437045E+02 -0.11006809205E+03  0.51286840752E+03  0.52633547201E+03  0.00000000000E+00 0. -1.
         11    1    1    2    0    0 -0.14073956941E+02 -0.16298531881E+02  0.36273782840E+02  0.42184188116E+02  0.00000000000E+00 0.  1.
</event>
<event>
 7    1  0.2556591E-009  0.1257826E+03  0.7561462E-02  0.1233851E+00
         -1   -1    0    0    0  501 -0.00000000000E+00  0.00000000000E+00  0.45190529473E+02  0.45190529473E+02  0.00000000000E+00 0.  1.
          1   -1    0    0  501    0  0.00000000000E+00 -0.00000000000E+00 -0.57738597030E+03  0.57738597030E+03  0.00000000000E+00 0. -1.
         25    2    1    2    0    0  0.92790868174E+02  0.60036495889E+02 -0.44451529078E+03  0.47482170243E+03  0.12508908549E+03 0.  0.
          5    1    3    3  502    0  0.20388977544E+02  0.62759261202E+02 -0.34711701705E+03  0.35335836088E+03  0.41800000000E+01 0. -1.
         -5    1    3    3    0  502  0.72401890630E+02 -0.27227653128E+01 -0.97398273727E+02  0.12146334156E+03  0.41800000000E+01 0. -1.
        -11    1    1    2    0    0 -0.45704126949E+02 -0.43129402525E+02 -0.71460921466E+02  0.95161315035E+02  0.00000000000E+00 0. -1.
         11    1    1    2    0    0 -0.47086741225E+02 -0.16907093364E+02 -0.16219228580E+02  0.52593482304E+02  0.00000000000E+00 0.  1.
</event>
<event>
 7    1  0.2556591E-009  0.1151346E+03  0.7561462E-02  0.1251346E+00
         -1   -1    0    0    0  501 -0.00000000000E+00  0.00000000000E+00  0.11018143196E+03  0.11018143196E+03  0.00000000000E+00 0.  1.
          1   -1    0    0  501    0  0.00000000000E+00 -0.00000000000E+00 -0.12195591929E+03  0.12195591929E+03  0.00000000000E+00 0. -1.
         25    2    1    2    0    0 -0.10546739095E+02  0.32996089274E+02 -0.13433214698E+02  0.13049348883E+03  0.12509246083E+03 0.  0.
          5    1    3    3  502    0 -0.31850306967E+02  0.74878184772E+02 -0.16826201086E+02  0.83197223821E+02  0.41800000000E+01 0.  1.
         -5    1    3    3    0  502  0.21303567872E+02 -0.41882095498E+02  0.33929863875E+01  0.47296265011E+02  0.41800000000E+01 0.  1.
        -11    1    1    2    0    0  0.41417817751E+02 -0.51140343095E+02  0.18625047924E+01  0.65834939380E+02  0.00000000000E+00 0. -1.
         11    1    1    2    0    0 -0.30871078656E+02  0.18144253821E+02 -0.20377741804E+00  0.35808923041E+02  0.00000000000E+00 0.  1.
</event>
<event>
 7    1  0.2556591E-009  0.1153547E+03  0.7561462E-02  0.1250963E+00
         -1   -1    0    0    0  501 -0.00000000000E+00  0.00000000000E+00  0.20572100486E+03  0.20572100486E+03  0.00000000000E+00 0.  1.
          1   -1    0    0  501    0  0.00000000000E+00 -0.00000000000E+00 -0.13139873200E+03  0.13139873200E+03  0.00000000000E+00 0. -1.
         25    2    1    2    0    0 -0.97349187404E+02  0.48581450377E+02  0.98959673451E+02  0.19307525817E+03  0.12509203308E+03 0.  0.
          5    1    3    3  502    0 -0.49929102334E+02  0.46653253531E+02 -0.14534367068E+02  0.69986866989E+02  0.41800000000E+01 0. -1.
         -5    1    3    3    0  502 -0.47420085070E+02  0.19281968460E+01  0.11349404052E+03  0.12308839118E+03  0.41800000000E+01 0. -1.
        -11    1    1    2    0    0  0.78730374656E+02 -0.21273066529E+02  0.24205048070E+02  0.85069968879E+02  0.00000000000E+00 0.  1.
         11    1    1    2    0    0  0.18618812748E+02 -0.27308383848E+02 -0.48842448657E+02  0.58974509810E+02  0.00000000000E+00 0. -1.
</event>
<event>
 7    1  0.2556591E-009  0.2459022E+03  0.7561462E-02  0.1115922E+00
         -2   -1    0    0    0  501 -0.00000000000E+00  0.00000000000E+00  0.24719073862E+03  0.24719073862E+03  0.00000000000E+00 0. -1.
          2   -1    0    0  501    0  0.00000000000E+00 -0.00000000000E+00 -0.38440578922E+03  0.38440578922E+03  0.00000000000E+00 0.  1.
         25    2    1    2    0    0 -0.15087083131E+03 -0.18267752998E+03 -0.24020886152E+03  0.35983467599E+03  0.12509040407E+03 0.  0.
          5    1    3    3  502    0 -0.25597240224E+02 -0.80900771599E+01  0.10930938648E+02  0.29285250131E+02  0.41800000000E+01 0.  1.
         -5    1    3    3    0  502 -0.12527359108E+03 -0.17458745282E+03 -0.25113980017E+03  0.33054942586E+03  0.41800000000E+01 0.  1.
        -11    1    1    2    0    0  0.15215681370E+03  0.13922323615E+03  0.96879804937E+02  0.22786070755E+03  0.00000000000E+00 0. -1.
         11    1    1    2    0    0 -0.12859823921E+01  0.43454293821E+02  0.61140059876E+01  0.43901144306E+02  0.00000000000E+00 0.  1.
</event>
<event>
 7    1  0.2556591E-009  0.1495797E+03  0.7561462E-02  0.1200990E+00
         -2   -1    0    0    0  501 -0.00000000000E+00  0.00000000000E+00  0.22542759878E+02  0.22542759878E+02  0.00000000000E+00 0.  1.
          2   -1    0    0  501    0  0.00000000000E+00 -0.00000000000E+00 -0.14016849831E+04  0.14016849831E+04  0.00000000000E+00 0. -1.
         25    2    1    2    0    0  0.95394381607E+02 -0.71180745721E+02 -0.99957207169E+03  0.10143768958E+04  0.12509745665E+03 0.  0.
          5    1    3    3  502    0  0.10736758183E+03 -0.39655216264E+02 -0.47145055744E+03  0.48516330686E+03  0.41800000000E+01 0. -1.
         -5    1    3    3    0  502 -0.11973200224E+02 -0.31525529457E+02 -0.52812151425E+03  0.52921358897E+03  0.41800000000E+01 0. -1.
        -11    1    1    2    0    0 -0.75140664179E+02  0.93864441986E+02 -0.33474715471E+03  0.35568569056E+03  0.00000000000E+00 0.  1.
         11    1    1    2    0    0 -0.20253717428E+02 -0.22683696265E+02 -0.44822996846E+02  0.54165156624E+02  0.00000000000E+00 0. -1.
</event>
<event>
 7    1  0.2556591E-009  0.7594959E+02  0.7561462E-02  0.1340955E+00
          4   -1    0    0  501    0  0.00000000000E+00  0.00000000000E+00  0.11641823514E+03  0.11641823514E+03  0.00000000000E+00 0. -1.
         -4   -1    0    0    0  501 -0.00000000000E+00 -0.00000000000E+00 -0.15092215293E+03  0.15092215293E+03  0.00000000000E+00 0.  1.
         25    2    1    2    0    0  0.52078936325E+02 -0.45341412399E+02  0.10655355681E+02  0.14327668448E+03  0.12508641982E+03 0.  0.
          5    1    3    3  502    0  0.13588456568E+01 -0.28747244086E+02 -0.52787734549E+02  0.60268298656E+02  0.41800000000E+01 0. -1.
         -5    1    3    3    0  502  0.50720090668E+02 -0.16594168312E+02  0.63443090230E+02  0.83008385825E+02  0.41800000000E+01 0. -1.
        -11    1    1    2    0    0 -0.23730347570E+02  0.16908143506E+02 -0.70706009420E+02  0.76474534852E+02  0.00000000000E+00 0.  1.
         11    1    1    2    0    0 -0.28348588755E+02  0.28433268893E+02  0.25546735948E+02  0.47589168746E+02  0.00000000000E+00 0. -1.
</event>
<event>
 7    1  0.2556591E-009  0.2904121E+03  0.7561462E-02  0.1090134E+00
          1   -1    0    0  501    0  0.00000000000E+00  0.00000000000E+00  0.43812842929E+03  0.43812842929E+03  0.00000000000E+00 0. -1.
         -1   -1    0    0    0  501 -0.00000000000E+00 -0.00000000000E+00 -0.21508107702E+03  0.21508107702E+03  0.00000000000E+00 0.  1.
         25    2    1    2    0    0 -0.97248189913E+02  0.25687630365E+03  0.25943576201E+02  0.30292536009E+03  0.12509220130E+03 0.  0.
          5    1    3    3  502    0  0.16844510297E+02  0.11108260061E+03  0.34342282145E+02  0.11755826822E+03  0.41800000000E+01 0.  1.
         -5    1    3    3    0  502 -0.11409270021E+03  0.14579370304E+03 -0.83987059441E+01  0.18536709187E+03  0.41800000000E+01 0.  1.
        -11    1    1    2    0    0 -0.62317643554E+01 -0.64284672043E+02  0.16386658828E+02  0.66632398532E+02  0.00000000000E+00 0.  1.
         11    1    1    2    0    0  0.10347995427E+03 -0.19259163160E+03  0.18071711724E+03  0.28365174768E+03  0.00000000000E+00 0. -1.
</event>
<event>
 7    1  0.2556591E-009  0.8797366E+02  0.7561462E-02  0.1307834E+00
         -3   -1    0    0    0  501 -0.00000000000E+00  0.00000000000E+00  0.35196047901E+03  0.35196047901E+03  0.00000000000E+00 0.  1.
          3   -1    0    0  501    0  0.00000000000E+00 -0.00000000000E+00 -0.35514654056E+02  0.35514654056E+02  0.00000000000E+00 0. -1.
         25    2    1    2    0    0 -0.13654685102E+02 -0.12006232783E+02  0.21399772799E+03  0.24854233659E+03  0.12509062892E+03 0.  0.
          5    1    3    3  502    0 -0.57121653667E+02 -0.40993946965E+02  0.15080381604E+03  0.16644113175E+03  0.41800000000E+01 0.  1.
         -5    1    3    3    0  502  0.43466968565E+02  0.28987714182E+02  0.63193911943E+02  0.82101204841E+02  0.41800000000E+01 0.  1.
        -11    1    1    2    0    0  0.14995697409E+02 -0.17794180589E+02 -0.79381042208E+01  0.24586933567E+02  0.00000000000E+00 0. -1.
         11    1    1    2    0    0 -0.13410123066E+01  0.29800413372E+02  0.11038620119E+03  0.11434586290E+03  0.00000000000E+00 0.  1.
</event>
<event>
 7    1  0.2556591E-009  0.1118668E+03  0.7561462E-02  0.1257151E+00
         -1   -1    0    0    0  501 -0.00000000000E+00  0.00000000000E+00  0.26920397687E+03  0.26920397687E+03  0.00000000000E+00 0.  1.
          1   -1    0    0  501    0  0.00000000000E+00 -0.00000000000E+00 -0.19146211780E+03  0.19146211780E+03  0.00000000000E+00 0. -1.
         25    2    1    2    0    0 -0.70743224892E+02 -0.22048048485E+02 -0.14627227087E+03  0.20623767369E+03  0.12509068916E+03 0.  0.
          5    1    3    3  502    0 -0.85363410364E+02 -0.22982257497E+01 -0.35294500976E+02  0.92495231605E+02  0.41800000000E+01 0. -1.
         -5    1    3    3    0  502  0.14620185472E+02 -0.19749822736E+02 -0.11097776989E+03  0.11374244209E+03  0.41800000000E+01 0. -1.
        -11    1    1    2    0    0  0.88411563002E+02  0.46785538622E+01  0.13057582202E+03  0.15776101748E+03  0.00000000000E+00 0. -1.
         11    1    1    2    0    0 -0.17668338110E+02  0.17369494623E+02  0.93438307913E+02  0.96667403506E+02  0.00000000000E+00 0.  1.
</event>
<event>
 7    1  0.2556591E-009  0.1530439E+03  0.7561462E-02  0.1196782E+00
          2   -1    0    0  501    0  0.00000000000E+00  0.00000000000E+00  0.15130246685E+03  0.15130246685E+03  0.00000000000E+00 0. -1.
         -2   -1    0    0    0  501 -0.00000000000E+00 -0.00000000000E+00 -0.23455874915E+03  0.23455874915E+03  0.00000000000E+00 0.  1.
         25    2    1    2    0    0  0.12429448284E+03  0.53324226355E+02  0.31036757087E+02  0.18682381238E+03  0.12508902829E+03 0.  0.
          5    1    3    3  502    0  0.18829814157E+02 -0.18911346826E+02 -0.33930558303E+02  0.43369991085E+02  0.41800000000E+01 0.  1.
         -5    1    3    3    0  502  0.10546466869E+03  0.72235573181E+02  0.64967315390E+02  0.14345382129E+03  0.41800000000E+01 0.  1.
        -11    1    1    2    0    0 -0.37992647674E+02 -0.52581350076E+02 -0.13352346830E+02  0.66230844921E+02  0.00000000000E+00 0. -1.
         11    1    1    2    0    0 -0.86301835171E+02 -0.74287627880E+00 -0.10094069256E+03  0.13280655870E+03  0.00000000000E+00 0.  1.
</event>
<event>
 7    1  0.2556591E-009  0.7275462E+02  0.7561462E-02  0.1350969E+00
         -1   -1    0    0    0  501 -0.00000000000E+00  0.00000000000E+00  0.15185657315E+03  0.15185657315E+03  0.00000000000E+00 0.  1.
          1   -1    0    0  501    0  0.00000000000E+00 -0.00000000000E+00 -0.17001340960E+03  0.17001340960E+03  0.00000000000E+00 0. -1.
         25    2    1    2    0    0 -0.15322279779E+02 -0.55012755481E+02  0.92870931101E+02  0.16593161201E+03  0.12508842671E+03 0.  0.
          5    1    3    3  502    0 -0.85699763487E+00 -0.96041578892E+01 -0.31218366407E+02  0.32939840540E+02  0.41800000000E+01 0.  1.
         -5    1    3    3    0  502 -0.14465282144E+02 -0.45408597592E+02  0.12408929751E+03  0.13299177147E+03  0.41800000000E+01 0.  1.
        -11    1    1    2    0    0 -0.45410493223E+01  0.64839839998E+02 -0.11623426249E+03  0.13317368267E+03  0.00000000000E+00 0. -1.
         11    1    1    2    0    0  0.19863329101E+02 -0.98270845167E+01  0.52064949478E+01  0.22764688066E+02  0.00000000000E+00 0.  1.
</event>
<event>
 7    1  0.2556591E-009  0.8722756E+02  0.7561462E-02  0.1309708E+00
          1   -1    0    0  501    0  0.00000000000E+00  0.00000000000E+00  0.32551690050E+03  0.32551690050E+03  0.00000000000E+00 0. -1.
         -1   -1    0    0    0  501 -0.00000000000E+00 -0.00000000000E+00 -0.48041840007E+02  0.48041840007E+02  0.00000000000E+00 0.  1.
         25    2    1    2    0    0 -0.49402645147E+02 -0.21053620060E+02  0.95925579039E+02  0.16653351565E+03  0.12509124213E+03 0.  0.
          5    1    3    3  502    0 -0.26194313400E+02 -0.37757594577E+02 -0.17600908894E+02  0.49386662133E+02  0.41800000000E+01 0.  1.
         -5    1    3    3    0  502 -0.23208331747E+02  0.16703974517E+02  0.11352648793E+03  0.11714685352E+03  0.41800000000E+01 0.  1.
        -11    1    1    2    0    0  0.66549604159E+00 -0.29316420452E+02  0.57446648694E+02  0.64498161518E+02  0.00000000000E+00 0.  1.
         11    1    1    2    0    0  0.48737149106E+02  0.50370040512E+02  0.12410283276E+03  0.14252706333E+03  0.00000000000E+00 0. -1.
</event>
<event>
 7    1  0.2556591E-009  0.1485424E+03  0.7561462E-02  0.1202276E+00
          1   -1    0    0  501    0  0.00000000000E+00  0.00000000000E+00  0.48064428902E+02  0.48064428902E+02  0.00000000000E+00 0. -1.
         -1   -1    0    0    0  501 -0.00000000000E+00 -0.00000000000E+00 -0.64914006131E+03  0.64914006131E+03  0.00000000000E+00 0.  1.
         25    2    1    2    0    0 -0.13312827746E+03 -0.11919945226E+02 -0.39462318721E+03  0.43501689347E+03  0.12508802649E+03 0.  0.
          5    1    3    3  502    0 -0.48889446000E+02 -0.46122535077E+02 -0.67029258829E+02  0.95015052024E+02  0.41800000000E+01 0. -1.
         -5    1    3    3    0  502 -0.84238831459E+02  0.34202589851E+02 -0.32759392838E+03  0.34000184145E+03  0.41800000000E+01 0. -1.
        -11    1    1    2    0    0  0.98197250047E+02 -0.79911778402E+01 -0.19791883373E+03  0.22108465253E+03  0.00000000000E+00 0. -1.
         11    1    1    2    0    0  0.34931027411E+02  0.19911123066E+02 -0.85336114698E+01  0.41102944207E+02  0.00000000000E+00 0.  1.
</event>
<event>
 7    1  0.2556591E-009  0.1206705E+03  0.7561462E-02  0.1241995E+00
         -1   -1    0    0    0  501 -0.00000000000E+00  0.00000000000E+00  0.18911751774E+03  0.18911751774E+03  0.00000000000E+00 0.  1.
          1   -1    0    0  501    0  0.00000000000E+00 -0.00000000000E+00 -0.14283986411E+03  0.14283986411E+03  0.00000000000E+00 0. -1.
         25    2    1    2    0    0 -0.36829813526E+02  0.11161894947E+03  0.62224428262E+02  0.18257529670E+03  0.12508650786E+03 0.  0.
          5    1    3    3  502    0 -0.34403689756E+02  0.11333027197E+03  0.93455382052E+02  0.15092629078E+03  0.41800000000E+01 0.  1.
         -5    1    3    3    0  502 -0.24261237698E+01 -0.17113225064E+01 -0.31230953790E+02  0.31649005923E+02  0.41800000000E+01 0.  1.
        -11    1    1    2    0    0  0.21402048639E+02 -0.54926344879E+02  0.37574064415E+02  0.69905374360E+02  0.00000000000E+00 0.  1.
         11    1    1    2    0    0  0.15427764886E+02 -0.56692604586E+02 -0.53520839046E+02  0.79476710779E+02  0.00000000000E+00 0. -1.
</event>
<event>
 7    1  0.2556591E-009  0.1176762E+03  0.7561462E-02  0.1246981E+00
         -2   -1    0    0    0  501 -0.00000000000E+00  0.00000000000E+00  0.11418078651E+03  0.11418078651E+03  0.00000000000E+00 0.  1.
          2   -1    0    0  501    0  0.00000000000E+00 -0.00000000000E+00 -0.26752619659E+03  0.26752619659E+03  0.00000000000E+00 0. -1.
         25    2    1    2    0    0  0.65181874600E+02 -0.35224465615E+02  0.43916434916E+02  0.15187258081E+03  0.12508871969E+03 0.  0.
          5    1    3    3  502    0 -0.12216478471E+02 -0.49842056500E+02 -0.14763210226E+02  0.53562092178E+02  0.41800000000E+01 0.  1.
         -5    1    3    3    0  502  0.77398353070E+02  0.14617590885E+02  0.58679645142E+02  0.98310488633E+02  0.41800000000E+01 0.  1.
        -11    1    1    2    0    0 -0.53577877911E+02 -0.13210139969E+02 -0.15494929456E+03  0.16448215917E+03  0.00000000000E+00 0.  1.
         11    1    1    2    0    0 -0.11603996689E+02  0.48434605584E+02 -0.42312550432E+02  0.65352243123E+02  0.00000000000E+00 0. -1.
</event>
<event>
 7    1  0.2556591E-009  0.8978823E+02  0.7561462E-02  0.1303365E+00
         -2   -1    0    0    0  501 -0.00000000000E+00  0.00000000000E+00  0.55910927127E+02  0.55910927127E+02  0.00000000000E+00 0.  1.
          2   -1    0    0  501    0  0.00000000000E+00 -0.00000000000E+00 -0.53497208418E+03  0.53497208418E+03  0.00000000000E+00 0. -1.
         25    2    1    2    0    0 -0.35855158842E+02 -0.80596596561E+02 -0.43159609968E+03  0.45793483772E+03  0.12509084118E+03 0.  0.
          5    1    3    3  502    0 -0.16006984013E+02 -0.59974961940E+02 -0.42329397844E+03  0.42784165784E+03  0.41800000000E+01 0. -1.
         -5    1    3    3    0  502 -0.19848174829E+02 -0.20621634621E+02 -0.83021212378E+01  0.30093179884E+02  0.41800000000E+01 0. -1.
        -11    1    1    2    0    0  0.14175844515E+02  0.39593264585E+02  0.23496370590E+02  0.48173235298E+02  0.00000000000E+00 0.  1.
         11    1    1    2    0    0  0.21679314327E+02  0.41003331976E+02 -0.70961427962E+02  0.84774938285E+02  0.00000000000E+00 0. -1.
</event>
<event>
 7    1  0.2556591E-009  0.1199207E+03  0.7561462E-02  0.1243228E+00
         -1   -1    0    0    0  501 -0.00000000000E+00  0.00000000000E+00  0.22798115450E+02  0.22798115450E+02  0.00000000000E+00 0.  1.
          1   -1    0    0  501    0  0.00000000000E+00 -0.00000000000E+00 -0.86597297921E+03  0.86597297921E+03  0.00000000000E+00 0. -1.
         25    2    1    2    0    0  0.53979919507E+02 -0.59261333490E+02 -0.33410661310E+03  0.36565049778E+03  0.12508924914E+03 0.  0.
          5    1    3    3  502    0  0.17967804718E+02 -0.79929796881E+02 -0.30215334925E+03  0.31309061515E+03  0.41800000000E+01 0. -1.
         -5    1    3    3    0  502  0.36012114789E+02  0.20668463391E+02 -0.31953263855E+02  0.52559882625E+02  0.41800000000E+01 0. -1.
        -11    1    1    2    0    0  0.46447627172E+01  0.57230740201E+02 -0.32171673462E+03  0.32680053363E+03  0.00000000000E+00 0. -1.
         11    1    1    2    0    0 -0.58624682224E+02  0.20305932894E+01 -0.18735151604E+03  0.19632006326E+03  0.00000000000E+00 0.  1.
</event>
<event>
 7    1  0.2556591E-009  0.1070931E+03  0.7561462E-02  0.1266050E+00
         -2   -1    0    0    0  501 -0.00000000000E+00  0.00000000000E+00  0.19786002938E+03  0.19786002938E+03  0.00000000000E+00 0.  1.
          2   -1    0    0  501    0  0.00000000000E+00 -0.00000000000E+00 -0.11351994176E+03  0.11351994176E+03  0.00000000000E+00 0. -1.
         25    2    1    2    0    0  0.21145793915E+02  0.15750655938E+02 -0.38671459503E+02  0.13355807795E+03  0.12508817148E+03 0.  0.
          5    1    3    3  502    0  0.14235218183E+02 -0.35038627901E+02 -0.65351645516E+02  0.75621801443E+02  0.41800000000E+01 0.  1.
         -5    1    3    3    0  502  0.69105757323E+01  0.50789283840E+02  0.26680186013E+02  0.57936276508E+02  0.41800000000E+01 0.  1.
        -11    1    1    2    0    0  0.34286054056E+02 -0.49198692360E+02  0.38109438170E+02  0.71051911377E+02  0.00000000000E+00 0. -1.
         11    1    1    2    0    0 -0.55431847971E+02  0.33448036422E+02  0.84902108957E+02  0.10676998181E+03  0.00000000000E+00 0.  1.
</event>
<event>
 7    1  0.2556591E-009  0.1983792E+03  0.7561462E-02  0.1151114E+00
         -1   -1    0    0    0  501 -0.00000000000E+00  0.00000000000E+00  0.50333994885E+03  0.50333994885E+03  0.00000000000E+00 0.  1.
          1   -1    0    0  501    0  0.00000000000E+00 -0.00000000000E+00 -0.13455008045E+03  0.13455008045E+03  0.00000000000E+00 0. -1.
         25    2    1    2    0    0 -0.16587930239E+03  0.33488727769E+02 -0.12665123281E+02  0.21083057033E+03  0.12510669922E+03 0.  0.
          5    1    3    3  502    0 -0.92114917053E+02  0.80859757435E+02 -0.52687769704E+01  0.12275459554E+03  0.41800000000E+01 0.  1.
         -5    1    3    3    0  502 -0.73764385335E+02 -0.47371029666E+02 -0.73963463106E+01  0.88075974784E+02  0.41800000000E+01 0.  1.
        -11    1    1    2    0    0  0.16965308956E+03 -0.18225422214E+02  0.37048144024E+03  0.40788581046E+03  0.00000000000E+00 0.  1.
         11    1    1    2    0    0 -0.37737871747E+01 -0.15263305554E+02  0.10973551446E+02  0.19173648516E+02  0.00000000000E+00 0. -1.
</event>
<event>
 7    1  0.2556591E-009  0.1265319E+03  0.7561462E-02  0.1232694E+00
          2   -1    0    0  501    0  0.00000000000E+00  0.00000000000E+00  0.85495952784E+02  0.85495952784E+02  0.00000000000E+00 0. -1.
         -2   -1    0    0    0  501 -0.00000000000E+00 -0.00000000000E+00 -0.21991074578E+03  0.21991074578E+03  0.00000000000E+00 0.  1.
         25    2    1    2    0    0  0.11982290041E+02 -0.72346168864E+02 -0.31724164730E+02  0.14843325826E+03  0.12509382921E+03 0.  0.
          5    1    3    3  502    0 -0.53841041145E+02 -0.36461876473E+02  0.39996920132E+01  0.65282433194E+02  0.41800000000E+01 0.  1.
         -5    1    3    3    0  502  0.65823331186E+02 -0.35884292391E+02 -0.35723856743E+02  0.83150825067E+02  0.41800000000E+01 0.  1.
        -11    1    1    2    0    0 -0.38826230550E+02  0.35711656278E+01 -0.60397245419E+02  0.71889197080E+02  0.00000000000E+00 0.  1.
         11    1    1    2    0    0  0.26843940508E+02  0.68775003236E+02 -0.42293382850E+02  0.85084243224E+02  0.00000000000E+00 0. -1.
</event>
<event>
 7    1  0.2556591E-009  0.1648983E+03  0.7561462E-02  0.1183275E+00
          2   -1    0    0  501    0  0.00000000000E+00  0.00000000000E+00  0.55302287831E+03  0.55302287831E+03  0.00000000000E+00 0. -1.
         -2   -1    0    0    0  501 -0.00000000000E+00 -0.00000000000E+00 -0.19265794244E+03  0.19265794244E+03  0.00000000000E+00 0.  1.
         25    2    1    2    0    0  0.34233312278E+02 -0.15863598513E+03  0.47968834036E+03  0.52161873063E+03  0.12509156972E+03 0.  0.
          5    1    3    3  502    0  0.24339067031E+02 -0.38393758107E+02  0.31015142474E+03  0.31349298160E+03  0.41800000000E+01 0.  1.
         -5    1    3    3    0  502  0.98942452463E+01 -0.12024222702E+03  0.16953691562E+03  0.20812574902E+03  0.41800000000E+01 0.  1.
        -11    1    1    2    0    0 -0.15912414855E+02  0.11505462323E+03 -0.25374818104E+02  0.11888924538E+03  0.00000000000E+00 0. -1.
         11    1    1    2    0    0 -0.18320897422E+02  0.43581361902E+02 -0.93948586391E+02  0.10517284475E+03  0.00000000000E+00 0.  1.
</event>
<event>
 7    1  0.2556591E-009  0.8129926E+02  0.7561462E-02  0.1325404E+00
          1   -1    0    0  501    0  0.00000000000E+00  0.00000000000E+00  0.38468728464E+03  0.38468728464E+03  0.00000000000E+00 0. -1.
         -1   -1    0    0    0  501 -0.00000000000E+00 -0.00000000000E+00 -0.39869921737E+02  0.39869921737E+02  0.00000000000E+00 0.  1.
         25    2    1    2    0    0 -0.43268912563E+02  0.42345238736E+02  0.25657125366E+03  0.29179023170E+03  0.12508962018E+03 0.  0.
          5    1    3    3  502    0 -0.27952871492E+02  0.55749106672E+02  0.39963321193E+02  0.74188040547E+02  0.41800000000E+01 0.  1.
         -5    1    3    3    0  502 -0.15316041071E+02 -0.13403867936E+02  0.21660793247E+03  0.21760219116E+03  0.41800000000E+01 0.  1.
        -11    1    1    2    0    0  0.51984530573E+02 -0.20649851557E+02  0.93359431803E+02  0.10883377828E+03  0.00000000000E+00 0. -1.
         11    1    1    2    0    0 -0.87156180103E+01 -0.21695387179E+02 -0.51133225552E+01  0.23933196395E+02  0.00000000000E+00 0.  1.
</event>
<event>
 7    1  0.2556591E-009  0.1770616E+03  0.7561462E-02  0.1170677E+00
          2   -1    0    0  501    0  0.00000000000E+00  0.00000000000E+00  0.95969445331E+02  0.95969445331E+02  0.00000000000E+00 0. -1.
         -2   -1    0    0    0  501 -0.00000000000E+00 -0.00000000000E+00 -0.41772537677E+03  0.41772537677E+03  0.00000000000E+00 0.  1.
         25    2    1    2    0    0 -0.65253785974E+02 -0.15453306428E+03 -0.16053581836E+03  0.26373740116E+03  0.12508854165E+03 0.  0.
          5    1    3    3  502    0 -0.15686687505E-01 -0.47763511068E+02 -0.12457362844E+03  0.13348188843E+03  0.41800000000E+01 0.  1.
         -5    1    3    3    0  502 -0.65238099286E+02 -0.10676955321E+03 -0.35962189921E+02  0.13025551273E+03  0.41800000000E+01 0.  1.
        -11    1    1    2    0    0  0.42313947864E+02  0.24400054416E+02 -0.83272199291E+02  0.96540623646E+02  0.00000000000E+00 0.  1.
         11    1    1    2    0    0  0.22939838110E+02  0.13013300987E+03 -0.77947913788E+02  0.15341679730E+03  0.00000000000E+00 0. -1.
</event>
<event>
 7    1  0.2556591E-009  0.1010583E+03  0.7561462E-02  0.1278086E+00
         -2   -1    0    0    0  501 -0.00000000000E+00  0.00000000000E+00  0.22047392668E+02  0.22047392668E+02  0.00000000000E+00 0.  1.
          2   -1    0    0  501    0  0.00000000000E+00 -0.00000000000E+00 -0.11084326449E+04  0.11084326449E+04  0.00000000000E+00 0. -1.
         25    2    1    2    0    0 -0.13594901198E+02  0.80314952711E+02 -0.87375721794E+03  0.88641665643E+03  0.12508996734E+03 0.  0.
          5    1    3    3  502    0 -0.89445487671E+01  0.40187864912E+01 -0.64697048658E+03  0.64705829606E+03  0.41800000000E+01 0. -1.
         -5    1    3    3    0  502 -0.46503524307E+01  0.76296166220E+02 -0.22678673136E+03  0.23935836037E+03  0.41800000000E+01 0. -1.
        -11    1    1    2    0    0  0.36879651620E+02 -0.83615556333E+02 -0.13556454295E+03  0.16349133087E+03  0.00000000000E+00 0.  1.
         11    1    1    2    0    0 -0.23284750422E+02  0.33006036216E+01 -0.77063491386E+02  0.80572050310E+02  0.00000000000E+00 0. -1.
</event>
<event>
 7    1  0.2556591E-009  0.1170766E+03  0.7561462E-02  0.1247999E+00
          1   -1    0    0  501    0  0.00000000000E+00  0.00000000000E+00  0.58719993460E+02  0.58719993460E+02  0.00000000000E+00 0. -1.
         -1   -1    0    0    0  501 -0.00000000000E+00 -0.00000000000E+00 -0.31218129590E+03  0.31218129590E+03  0.00000000000E+00 0.  1.
         25    2    1    2    0    0  0.29547733945E+02  0.70932314424E+02 -0.14845862161E+03  0.20878896099E+03  0.12509358932E+03 0.  0.
          5    1    3    3  502    0 -0.14685354882E+02 -0.22563308260E+02  0.67250753321E+00  0.27252287868E+02  0.41800000000E+01 0.  1.
         -5    1    3    3    0  502  0.44233088827E+02  0.93495622684E+02 -0.14913112915E+03  0.18153667312E+03  0.41800000000E+01 0.  1.
        -11    1    1    2    0    0  0.57078017989E+01  0.11994676286E+02 -0.59880355887E+02  0.61336027600E+02  0.00000000000E+00 0.  1.
         11    1    1    2    0    0 -0.35255535744E+02 -0.82926990709E+02 -0.45122324942E+02  0.10077630077E+03  0.00000000000E+00 0. -1.
</event>
<event>
 7    1  0.2556591E-009  0.1078937E+03  0.7561462E-02  0.1264521E+00
          1   -1    0    0  501    0  0.00000000000E+00  0.00000000000E+00  0.48219801174E+03  0.48219801174E+03  0.00000000000E+00 0. -1.
         -1   -1    0    0    0  501 -0.00000000000E+00 -0.00000000000E+00 -0.28439696298E+02  0.28439696298E+02  0.00000000000E+00 0.  1.
         25    2    1    2    0    0 -0.26763273865E+02  0.33231758498E+02  0.23235817398E+03  0.26731697740E+03  0.12508965899E+03 0.  0.
          5    1    3    3  502    0 -0.13819894153E+02  0.78675596694E+02  0.17815509227E+03  0.19528837213E+03  0.41800000000E+01 0.  1.
         -5    1    3    3    0  502 -0.12943379711E+02 -0.45443838196E+02  0.54203081719E+02  0.72028605263E+02  0.41800000000E+01 0.  1.
        -11    1    1    2    0    0  0.44466522921E+02 -0.47909952049E+02  0.98020486546E+02  0.11781617439E+03  0.00000000000E+00 0.  1.
         11    1    1    2    0    0 -0.17703249056E+02  0.14678193551E+02  0.12337965491E+03  0.12550455625E+03  0.00000000000E+00 0. -1.
</event>
<event>
 7    1  0.4099233E-009  0.2467667E+03  0.7561462E-02  0.1115365E+00
          1   -1    0    0  501    0  0.00000000000E+00  0.00000000000E+00  0.17805420921E+04  0.17805420921E+04  0.00000000000E+00 0. -1.
         -1   -1    0    0    0  501 -0.00000000000E+00 -0.00000000000E+00 -0.35736669780E+02  0.35736669780E+02  0.00000000000E+00 0.  1.
         25    2    1    2    0    0 -0.12368713558E+03 -0.18915279788E+03  0.98936587705E+03  0.10225306920E+04  0.12508752488E+03 0.  0.
          5    1    3    3  502    0 -0.75059949503E+02 -0.18674137500E+03  0.67462440960E+03  0.70401839719E+03  0.41800000000E+01 0. -1.
         -5    1    3    3    0  502 -0.48627186079E+02 -0.24114228714E+01  0.31474146745E+03  0.31851229477E+03  0.41800000000E+01 0. -1.
        -11    1    1    2    0    0  0.57078840682E+01  0.87338448251E+02  0.25463862363E+03  0.26926086445E+03  0.00000000000E+00 0.  1.
         11    1    1    2    0    0  0.11797925151E+03  0.10181434962E+03  0.50080092162E+03  0.52448720544E+03  0.00000000000E+00 0. -1.
</event>
<event>
 7    1  0.2556591E-009  0.1473063E+03  0.7561462E-02  0.1203823E+00
         -2   -1    0    0    0  501 -0.00000000000E+00  0.00000000000E+00  0.12242026850E+02  0.12242026850E+02  0.00000000000E+00 0.  1.
          2   -1    0    0  501    0  0.00000000000E+00 -0.00000000000E+00 -0.19681024356E+04  0.19681024356E+04  0.00000000000E+00 0. -1.
         25    2    1    2    0    0 -0.38790451049E+02 -0.98448923134E+02 -0.12464288296E+04  0.12571515265E+04  0.12509294050E+03 0.  0.
          5    1    3    3  502    0 -0.10657721371E+02  0.30079929423E+02 -0.23680063759E+03  0.23897783065E+03  0.41800000000E+01 0. -1.
         -5    1    3    3    0  502 -0.28132729678E+02 -0.12852885256E+03 -0.10096281920E+04  0.10181736958E+04  0.41800000000E+01 0. -1.
        -11    1    1    2    0    0  0.12646160572E+02 -0.11912721033E+02 -0.32753462584E+02  0.37075970801E+02  0.00000000000E+00 0.  1.
         11    1    1    2    0    0  0.26144290477E+02  0.11036164417E+03 -0.67667811660E+03  0.68611696518E+03  0.00000000000E+00 0. -1.
</event>
<event>
 7    1  0.2556591E-009  0.2394561E+03  0.7561462E-02  0.1120156E+00
          2   -1    0    0  501    0  0.00000000000E+00  0.00000000000E+00  0.82642750194E+02  0.82642750194E+02  0.00000000000E+00 0. -1.
         -2   -1    0    0    0  501 -0.00000000000E+00 -0.00000000000E+00 -0.75418701470E+03  0.75418701470E+03  0.00000000000E+00 0.  1.
         25    2    1    2    0    0 -0.21823543358E+03 -0.45327730023E+02 -0.30198661065E+03  0.39562853717E+03  0.12507885047E+03 0.  0.
          5    1    3    3  502    0 -0.13335821817E+03  0.34217815648E+02 -0.18447782919E+03  0.23022774621E+03  0.41800000000E+01 0. -1.
         -5    1    3    3    0  502 -0.84877215411E+02 -0.79545545670E+02 -0.11750878146E+03  0.16540079096E+03  0.41800000000E+01 0. -1.
        -11    1    1    2    0    0  0.12005364937E+03  0.39619788913E+02 -0.28391826614E+03  0.31079283816E+03  0.00000000000E+00 0.  1.
         11    1    1    2    0    0  0.98181784204E+02  0.57079411095E+01 -0.85639387720E+02  0.13040838957E+03  0.00000000000E+00 0. -1.
</event>
<event>
 7    1  0.2556591E-009  0.1300290E+03  0.7561462E-02  0.1227413E+00
         -4   -1    0    0    0  501 -0.00000000000E+00  0.00000000000E+00  0.11696089864E+03  0.11696089864E+03  0.00000000000E+00 0. -1.
          4   -1    0    0  501    0  0.00000000000E+00 -0.00000000000E+00 -0.17423340269E+03  0.17423340269E+03  0.00000000000E+00 0.  1.
         25    2    1    2    0    0  0.33558192498E+02 -0.84109968719E+02 -0.51267547283E+02  0.16271885424E+03  0.12509366491E+03 0.  0.
          5    1    3    3  502    0  0.65569772656E+02 -0.24245337030E+02 -0.62398873711E+02  0.93799377899E+02  0.41800000000E+01 0.  1.
         -5    1    3    3    0  502 -0.32011580158E+02 -0.59864631689E+02  0.11131326427E+02  0.68919476344E+02  0.41800000000E+01 0.  1.
        -11    1    1    2    0    0  0.12480884184E+02  0.73777119821E+02 -0.23068210286E+02  0.78300563248E+02  0.00000000000E+00 0.  1.
         11    1    1    2    0    0 -0.46039076682E+02  0.10332848898E+02  0.17063253519E+02  0.50174883843E+02  0.00000000000E+00 0. -1.
</event>
<event>
 7    1  0.2556591E-009  0.9880386E+02  0.7561462E-02  0.1282832E+00
         -4   -1    0    0    0  501 -0.00000000000E+00  0.00000000000E+00  0.14824069022E+03  0.14824069022E+03  0.00000000000E+00 0.  1.
          4   -1    0    0  501    0  0.00000000000E+00 -0.00000000000E+00 -0.10414926624E+03  0.10414926624E+03  0.00000000000E+00 0. -1.
         25    2    1    2    0    0 -0.53118169886E+02 -0.29383158981E+02  0.13446177398E+02  0.13968700153E+03  0.12508696457E+03 0.  0.
          5    1    3    3  502    0 -0.58013833160E+02 -0.44713279832E+02 -0.40107233682E+02  0.83611870119E+02  0.41800000000E+01 0.  1.
         -5    1    3    3    0  502  0.48956632739E+01  0.15330120851E+02  0.53553411080E+02  0.56075131408E+02  0.41800000000E+01 0.  1.
        -11    1    1    2    0    0  0.63893774756E+00 -0.29061173148E+02  0.14616088818E+02  0.32535981290E+02  0.00000000000E+00 0.  1.
         11    1    1    2    0    0  0.52479232138E+02  0.58444332130E+02  0.16029157770E+02  0.80166973641E+02  0.00000000000E+00 0. -1.
</event>
<event>
 7    1  0.2556591E-009  0.4731756E+02  0.7561462E-02  0.1460371E+00
         -1   -1    0    0    0  501 -0.00000000000E+00  0.00000000000E+00  0.35242175269E+03  0.35242175269E+03  0.00000000000E+00 0.  1.
          1   -1    0    0  501    0  0.00000000000E+00 -0.00000000000E+00 -0.35278932978E+02  0.35278932978E+02  0.00000000000E+00 0. -1.
         25    2    1    2    0    0  0.18267122771E+02  0.18995714035E+02  0.20236161511E+03  0.23935694474E+03  0.12508796424E+03 0.  0.
          5    1    3    3  502    0  0.28141420755E+02  0.20827028270E+02  0.21770891954E+03  0.22054557515E+03  0.41800000000E+01 0.  1.
         -5    1    3    3    0  502 -0.98742979838E+01 -0.18313142346E+01 -0.15347304433E+02  0.18811369590E+02  0.41800000000E+01 0.  1.
        -11    1    1    2    0    0 -0.15508474608E+02 -0.31810834233E+02  0.12613256306E+03  0.13100330310E+03  0.00000000000E+00 0.  1.
         11    1    1    2    0    0 -0.27586481636E+01  0.12815120198E+02 -0.11351358456E+02  0.17340437831E+02  0.00000000000E+00 0. -1.
</event>
<event>
 7    1  0.2556591E-009  0.9675233E+02  0.7561462E-02  0.1287277E+00
          2   -1    0    0  501    0  0.00000000000E+00  0.00000000000E+00  0.80216160749E+02  0.80216160749E+02  0.00000000000E+00 0. -1.
         -2   -1    0    0    0  501 -0.00000000000E+00 -0.00000000000E+00 -0.19958303519E+03  0.19958303519E+03  0.00000000000E+00 0.  1.
         25    2    1    2    0    0 -0.58446593964E+02  0.29894225029E+02 -0.60736584741E+02  0.15376607984E+03  0.12508159556E+03 0.  0.
          5    1    3    3  502    0 -0.99107983125E+01  0.34309226171E+02  0.32506425340E+02  0.48471507219E+02  0.41800000000E+01 0. -1.
         -5    1    3    3    0  502 -0.48535795652E+02 -0.44150011419E+01 -0.93243010082E+02  0.10529457262E+03  0.41800000000E+01 0. -1.
        -11    1    1    2    0    0  0.37797774204E+02 -0.60724652636E+02 -0.24470908367E+02  0.75597490229E+02  0.00000000000E+00 0.  1.
         11    1    1    2    0    0  0.20648819760E+02  0.30830427607E+02 -0.34159381334E+02  0.50435625872E+02  0.00000000000E+00 0. -1.
</event>
<event>
 7    1  0.2556591E-009  0.1768637E+03  0.7561462E-02  0.1170873E+00
         -2   -1    0    0    0  501 -0.00000000000E+00  0.00000000000E+00  0.16288333313E+03  0.16288333313E+03  0.00000000000E+00 0.  1.
          2   -1    0    0  501    0  0.00000000000E+00 -0.00000000000E+00 -0.24614073900E+03  0.24614073900E+03  0.00000000000E+00 0. -1.
         25    2    1    2    0    0 -0.16698099035E+03 -0.80704638372E+01 -0.41897680831E+02  0.21296075277E+03  0.12509629506E+03 0.  0.
          5    1    3    3  502    0 -0.13230148482E+03 -0.38306652764E+02 -0.74278731831E+02  0.15654355603E+03  0.41800000000E+01 0. -1.
         -5    1    3    3    0  502 -0.34679505526E+02  0.30236188926E+02  0.32381050999E+02  0.56417196742E+02  0.41800000000E+01 0. -1.
        -11    1    1    2    0    0  0.11151606499E+03 -0.85068398177E+01  0.17851167594E+02  0.11325574272E+03  0.00000000000E+00 0.  1.
         11    1    1    2    0    0  0.55464925359E+02  0.16577303655E+02 -0.59210892633E+02  0.82807576634E+02  0.00000000000E+00 0. -1.
</event>
<event>
 7    1  0.2556591E-009  0.7738144E+02  0.7561462E-02  0.1336651E+00
         -2   -1    0    0    0  501 -0.00000000000E+00  0.00000000000E+00  0.70774144173E+02  0.70774144173E+02  0.00000000000E+00 0. -1.
          2   -1    0    0  501    0  0.00000000000E+00 -0.00000000000E+00 -0.22060345910E+03  0.22060345910E+03  0.00000000000E+00 0.  1.
         25    2    1    2    0    0 -0.34430251605E+02  0.35745380918E+02 -0.93227596604E+02  0.16371529271E+03  0.12509251703E+03 0.  0.
          5    1    3    3  502    0  0.87145332716E+01  0.18186844924E+02 -0.11158773796E+03  0.11347246398E+03  0.41800000000E+01 0.  1.
         -5    1    3    3    0  502 -0.43144784876E+02  0.17558535994E+02  0.18360141356E+02  0.50242828731E+02  0.41800000000E+01 0.  1.
        -11    1    1    2    0    0 -0.21111701343E+02 -0.21342920824E+02 -0.63138704251E+02  0.69912231958E+02  0.00000000000E+00 0.  1.
         11    1    1    2    0    0  0.55541952948E+02 -0.14402460094E+02  0.65369859257E+01  0.57750078606E+02  0.00000000000E+00 0. -1.
</event>
<event>
 7    1  0.2556591E-009  0.1375627E+03  0.7561462E-02  0.1216647E+00
          2   -1    0    0  501    0  0.00000000000E+00  0.00000000000E+00  0.18263803743E+03  0.18263803743E+03  0.00000000000E+00 0. -1.
         -2   -1    0    0    0  501 -0.00000000000E+00 -0.00000000000E+00 -0.10558877072E+03  0.10558877072E+03  0.00000000000E+00 0.  1.
         25    2    1    2    0    0  0.34391756013E+01  0.85851565549E+02  0.49426282564E+02  0.15959215925E+03  0.12507749857E+03 0.  0.
          5    1    3    3  502    0  0.16871338628E-02  0.11741657998E+03  0.27167681563E+02  0.12059108001E+03  0.41800000000E+01 0.  1.
         -5    1    3    3    0  502  0.34374884674E+01 -0.31565014431E+02  0.22258601001E+02  0.39001079236E+02  0.41800000000E+01 0.  1.
        -11    1    1    2    0    0  0.36251855386E+02 -0.76760086280E+02  0.17469127937E+02  0.86668785012E+02  0.00000000000E+00 0.  1.
         11    1    1    2    0    0 -0.39691030988E+02 -0.90914792691E+01  0.10153856204E+02  0.41965863889E+02  0.00000000000E+00 0. -1.
</event>
<event>
 7    1  0.2556591E-009  0.1478862E+03  0.7561462E-02  0.1203095E+00
         -1   -1    0    0    0  501 -0.00000000000E+00  0.00000000000E+00  0.54954016205E+03  0.54954016205E+03  0.00000000000E+00 0.  1.
          1   -1    0    0  501    0  0.00000000000E+00 -0.00000000000E+00 -0.45995767324E+02  0.45995767324E+02  0.00000000000E+00 0. -1.
         25    2    1    2    0    0  0.53170620715E+02 -0.87111933987E+02  0.16558534345E+03  0.23126075989E+03  0.12508968443E+03 0.  0.
          5    1    3    3  502    0 -0.18348593381E+02 -0.86355223749E+02  0.10648512746E+03  0.13838515209E+03  0.41800000000E+01 0. -1.
         -5    1    3    3    0  502  0.71519214097E+02 -0.75671023791E+00  0.59100215987E+02  0.92875607805E+02  0.41800000000E+01 0. -1.
        -11    1    1    2    0    0 -0.30084951791E+02 -0.13169243064E+02  0.73630094273E+02  0.80622106583E+02  0.00000000000E+00 0.  1.
         11    1    1    2    0    0 -0.23085668924E+02  0.10028117705E+03  0.26432895700E+03  0.28365306290E+03  0.00000000000E+00 0. -1.
</event>
<event>
 7    1  0.2556591E-009  0.1012799E+03  0.7561462E-02  0.1277627E+00
          1   -1    0    0  501    0  0.00000000000E+00  0.00000000000E+00  0.36427357794E+03  0.36427357794E+03  0.00000000000E+00 0. -1.
         -1   -1    0    0    0  501 -0.00000000000E+00 -0.00000000000E+00 -0.45270143450E+02  0.45270143450E+02  0.00000000000E+00 0.  1.
         25    2    1    2    0    0 -0.64541854444E+02 -0.98956674968E+01  0.13823907167E+03  0.19753662091E+03  0.12508837058E+03 0.  0.
          5    1    3    3  502    0 -0.42210814051E+02  0.50899994201E+02  0.33313925041E+02  0.74160988627E+02  0.41800000000E+01 0. -1.
         -5    1    3    3    0  502 -0.22331040393E+02 -0.60795661698E+02  0.10492514663E+03  0.12337563229E+03  0.41800000000E+01 0. -1.
        -11    1    1    2    0    0  0.97681864505E+01 -0.91755028860E+01 -0.72591597880E+01  0.15241480262E+02  0.00000000000E+00 0.  1.
         11    1    1    2    0    0  0.54773667994E+02  0.19071170383E+02  0.18802352261E+03  0.19676562021E+03  0.00000000000E+00 0. -1.
</event>
<event>
 7    1  0.2556591E-009  0.9023254E+02  0.7561462E-02  0.1302290E+00
         -1   -1    0    0    0  501 -0.00000000000E+00  0.00000000000E+00  0.88140137828E+02  0.88140137828E+02  0.00000000000E+00 0.  1.
          1   -1    0    0  501    0  0.00000000000E+00 -0.00000000000E+00 -0.14586105547E+03  0.14586105547E+03  0.00000000000E+00 0. -1.
         25    2    1    2    0    0  0.88041199928E+01  0.41649686314E+02 -0.31178155912E+02  0.13576640956E+03  0.12509289212E+03 0.  0.
          5    1    3    3  502    0 -0.16993632948E+02 -0.15955366761E+02 -0.61292005297E+02  0.65707987358E+02  0.41800000000E+01 0.  1.
         -5    1    3    3    0  502  0.25797752941E+02  0.57605053074E+02  0.30113849385E+02  0.70058422201E+02  0.41800000000E+01 0.  1.
        -11    1    1    2    0    0  0.24113855229E+02  0.14718606856E+02 -0.14862216749E+02  0.31921793316E+02  0.00000000000E+00 0. -1.
         11    1    1    2    0    0 -0.32917975222E+02 -0.56368293170E+02 -0.11680544978E+02  0.66312990421E+02  0.00000000000E+00 0.  1.
</event>
<event>
 7    1  0.2556591E-009  0.3745658E+02  0.7561462E-02  0.1527808E+00
          3   -1    0    0  501    0  0.00000000000E+00  0.00000000000E+00  0.64527299212E+02  0.64527299212E+02  0.00000000000E+00 0. -1.
         -3   -1    0    0    0  501 -0.00000000000E+00 -0.00000000000E+00 -0.29504537535E+03  0.29504537535E+03  0.00000000000E+00 0.  1.
         25    2    1    2    0    0  0.52028832440E+01  0.17153198510E+02 -0.23289857399E+03  0.26497336107E+03  0.12509130304E+03 0.  0.
          5    1    3    3  502    0 -0.47774657018E+01  0.88205473901E+01 -0.24588656164E+03  0.24612659310E+03  0.41800000000E+01 0. -1.
         -5    1    3    3    0  502  0.99803489458E+01  0.83326511200E+01  0.12987987650E+02  0.18846767971E+02  0.41800000000E+01 0. -1.
        -11    1    1    2    0    0 -0.14607664006E+02  0.12533754859E+02  0.40818887331E+02  0.45129374264E+02  0.00000000000E+00 0. -1.
         11    1    1    2    0    0  0.94047807616E+01 -0.29686953369E+02 -0.38438389474E+02  0.49469939224E+02  0.00000000000E+00 0.  1.
</event>
<event>
 7    1  0.3206372E-009  0.2059662E+03  0.7561462E-02  0.1144801E+00
         -1   -1    0    0    0  501 -0.00000000000E+00  0.00000000000E+00  0.88563614842E+02  0.88563614842E+02  0.00000000000E+00 0.  1.
          1   -1    0    0  501    0  0.00000000000E+00 -0.00000000000E+00 -0.53201040452E+03  0.53201040452E+03  0.00000000000E+00 0. -1.
         25    2    1    2    0    0  0.12790137935E+03 -0.13616542239E+03 -0.20696163653E+03  0.30558358806E+03  0.12509366569E+03 0.  0.
          5    1    3    3  502    0  0.96951369375E+02 -0.33119871597E+02 -0.47091043439E+02  0.11283409365E+03  0.41800000000E+01 0.  1.
         -5    1    3    3    0  502  0.30950009979E+02 -0.10304555080E+03 -0.15987059309E+03  0.19274949440E+03  0.41800000000E+01 0.  1.
        -11    1    1    2    0    0 -0.95339293102E+02  0.46001839304E+02 -0.85177925164E+02  0.13587136918E+03  0.00000000000E+00 0.  1.
         11    1    1    2    0    0 -0.32562086251E+02  0.90163583089E+02 -0.15130722798E+03  0.17911906212E+03  0.00000000000E+00 0. -1.
</event>
<event>
 7    1  0.2556591E-009  0.1809960E+03  0.7561462E-02  0.1166843E+00
         -1   -1    0    0    0  501 -0.00000000000E+00  0.00000000000E+00  0.44865472986E+02  0.44865472986E+02  0.00000000000E+00 0.  1.
          1   -1    0    0  501    0  0.00000000000E+00 -0.00000000000E+00 -0.99054921338E+03  0.99054921338E+03  0.00000000000E+00 0. -1.
         25    2    1    2    0    0 -0.29040794455E+02  0.15840236538E+03 -0.29400515931E+03  0.35779904106E+03  0.12508574254E+03 0.  0.
          5    1    3    3  502    0 -0.40916759167E+02  0.59177486667E+00 -0.33896772055E+02  0.53300984362E+02  0.41800000000E+01 0. -1.
         -5    1    3    3    0  502  0.11875964711E+02  0.15781059051E+03 -0.26010838725E+03  0.30449805670E+03  0.41800000000E+01 0. -1.
        -11    1    1    2    0    0  0.20831358490E+02 -0.54911994446E+02 -0.97701535626E+02  0.11399501171E+03  0.00000000000E+00 0.  1.
         11    1    1    2    0    0  0.82094359648E+01 -0.10349037094E+03 -0.55397704546E+03  0.56362063359E+03  0.00000000000E+00 0. -1.
</event>
<event>
 7    1  0.2556591E-009  0.8246302E+02  0.7561462E-02  0.1322204E+00
         -1   -1    0    0    0  501 -0.00000000000E+00  0.00000000000E+00  0.28357534326E+02  0.28357534326E+02  0.00000000000E+00 0.  1.
          1   -1    0    0  501    0  0.00000000000E+00 -0.00000000000E+00 -0.56830590212E+03  0.56830590212E+03  0.00000000000E+00 0. -1.
         25    2    1    2    0    0 -0.46931744923E+02 -0.24273085466E+02 -0.42627992609E+03  0.44738630516E+03  0.12509260290E+03 0.  0.
          5    1    3    3  502    0 -0.33635174198E+02  0.35202596700E+02 -0.32834501205E+03  0.33196154461E+03  0.41800000000E+01 0.  1.
         -5    1    3    3    0  502 -0.13296570725E+02 -0.59475682166E+02 -0.97934914038E+02  0.11542476056E+03  0.41800000000E+01 0.  1.
        -11    1    1    2    0    0  0.18711807156E+02  0.16155155749E+01  0.93967585417E+01  0.21000968756E+02  0.00000000000E+00 0.  1.
         11    1    1    2    0    0  0.28219937767E+02  0.22657569891E+02 -0.12306520025E+03  0.12827616253E+03  0.00000000000E+00 0. -1.
</event>
<event>
 7    1  0.2556591E-009  0.2745562E+03  0.7561462E-02  0.1098700E+00
         -2   -1    0    0    0  501 -0.00000000000E+00  0.00000000000E+00  0.11407606377E+03  0.11407606377E+03  0.00000000000E+00 0. -1.
          2   -1    0    0  501    0  0.00000000000E+00 -0.00000000000E+00 -0.10544915154E+04  0.10544915154E+04  0.00000000000E+00 0.  1.
         25    2    1    2    0    0 -0.23664574015E+03 -0.10950787023E+03 -0.81528959648E+03  0.86506565863E+03  0.12509311584E+03 0.  0.
          5    1    3    3  502    0 -0.29660190550E+02 -0.71719121813E+02 -0.18871808454E+03  0.20409641636E+03  0.41800000000E+01 0. -1.
         -5    1    3    3    0  502 -0.20698554960E+03 -0.37788748413E+02 -0.62657151194E+03  0.66096924226E+03  0.41800000000E+01 0. -1.
        -11    1    1    2    0    0  0.12908632433E+03  0.65135859673E+02 -0.11852861532E+03  0.18696254169E+03  0.00000000000E+00 0.  1.
         11    1    1    2    0    0  0.10755941582E+03  0.44372010552E+02 -0.65972398278E+01  0.11653937886E+03  0.00000000000E+00 0. -1.
</event>
<event>
 7    1  0.2556591E-009  0.1096690E+03  0.7561462E-02  0.1261184E+00
          1   -1    0    0  501    0  0.00000000000E+00  0.00000000000E+00  0.60024924799E+03  0.60024924799E+03  0.00000000000E+00 0. -1.
         -1   -1    0    0    0  501 -0.00000000000E+00 -0.00000000000E+00 -0.21926978577E+02  0.21926978577E+02  0.00000000000E+00 0.  1.
         25    2    1    2    0    0  0.29525369680E+02  0.12598924658E+02  0.30706648505E+03  0.33311197640E+03  0.12507310751E+03 0.  0.
          5    1    3    3  502    0  0.39278903649E+02  0.63999022826E+02  0.20462948753E+03  0.21801240048E+03  0.41800000000E+01 0. -1.
         -5    1    3    3    0  502 -0.97535339691E+01 -0.51400098168E+02  0.10243699752E+03  0.11509957592E+03  0.41800000000E+01 0. -1.
        -11    1    1    2    0    0 -0.43824241181E+02 -0.40895780292E+02  0.22595852984E+03  0.23377400662E+03  0.00000000000E+00 0.  1.
         11    1    1    2    0    0  0.14298871501E+02  0.28296855635E+02  0.45297254523E+02  0.55290243555E+02  0.00000000000E+00 0. -1.
</event>
<event>
 7    1  0.2556591E-009  0.1328025E+03  0.7561462E-02  0.1223356E+00
         -3   -1    0    0    0  501 -0.00000000000E+00  0.00000000000E+00  0.11785513062E+04  0.11785513062E+04  0.00000000000E+00 0. -1.
          3   -1    0    0  501    0  0.00000000000E+00 -0.00000000000E+00 -0.22797335148E+02  0.22797335148E+02  0.00000000000E+00 0.  1.
         25    2    1    2    0    0  0.10667890468E+03  0.59413184072E+02  0.67356494068E+03  0.69587894004E+03  0.12508978667E+03 0.  0.
          5    1    3    3  502    0  0.56246196765E+02 -0.10318425032E+02  0.95212934491E+02  0.11114440985E+03  0.41800000000E+01 0.  1.
         -5    1    3    3    0  502  0.50432707915E+02  0.69731609104E+02  0.57835200619E+03  0.58473453019E+03  0.41800000000E+01 0.  1.
        -11    1    1    2    0    0 -0.43092103948E+02 -0.23795065494E+02  0.62792369026E+02  0.79787318368E+02  0.00000000000E+00 0.  1.
         11    1    1    2    0    0 -0.63586800733E+02 -0.35618118578E+02  0.41939666132E+03  0.42568238292E+03  0.00000000000E+00 0. -1.
</event>
<event>
 7    1  0.3396583E-009  0.8671234E+02  0.7561462E-02  0.1311014E+00
         -1   -1    0    0    0  501 -0.00000000000E+00  0.00000000000E+00  0.31724643899E+02  0.31724643899E+02  0.00000000000E+00 0.  1.
          1   -1    0    0  501    0  0.00000000000E+00 -0.00000000000E+00 -0.53269859213E+03  0.53269859213E+03  0.00000000000E+00 0. -1.
         25    2    1    2    0    0 -0.38533378222E+02  0.51048660532E+02 -0.34678801613E+03  0.37416576871E+03  0.12508919763E+03 0.  0.
          5    1    3    3  502    0  0.12634255091E-01  0.66958630949E+02 -0.81377122435E+02  0.10546642534E+03  0.41800000000E+01 0.  1.
         -5    1    3    3    0  502 -0.38546012478E+02 -0.15909970416E+02 -0.26541089369E+03  0.26869934337E+03  0.41800000000E+01 0.  1.
        -11    1    1    2    0    0  0.19595669807E+02 -0.32289112397E+02 -0.42935491590E+01  0.38013308446E+02  0.00000000000E+00 0.  1.
         11    1    1    2    0    0  0.18937708415E+02 -0.18759548135E+02 -0.14989238294E+03  0.15224415887E+03  0.00000000000E+00 0. -1.
</event>
<event>
 7    1  0.2556591E-009  0.3155541E+03  0.7561462E-02  0.1077714E+00
         -1   -1    0    0    0  501 -0.00000000000E+00  0.00000000000E+00  0.12288573415E+03  0.12288573415E+03  0.00000000000E+00 0.  1.
          1   -1    0    0  501    0  0.00000000000E+00 -0.00000000000E+00 -0.10048387114E+04  0.10048387114E+04  0.00000000000E+00 0. -1.
         25    2    1    2    0    0  0.10618861874E+03  0.29619185057E+03 -0.62574974576E+03  0.71148861477E+03  0.12509064527E+03 0.  0.
          5    1    3    3  502    0  0.37121256628E+02  0.64557592209E+02 -0.27891861984E+03  0.28871913566E+03  0.41800000000E+01 0.  1.
         -5    1    3    3    0  502  0.69067362109E+02  0.23163425836E+03 -0.34683112592E+03  0.42276947911E+03  0.41800000000E+01 0.  1.
        -11    1    1    2    0    0 -0.15536251752E+02 -0.53217656273E+02 -0.58001196454E+01  0.55741684991E+02  0.00000000000E+00 0. -1.
         11    1    1    2    0    0 -0.90652366985E+02 -0.24297419430E+03 -0.25040311185E+03  0.36049414581E+03  0.00000000000E+00 0.  1.
</event>
<event>
 7    1  0.2556591E-009  0.1008639E+03  0.7561462E-02  0.1278490E+00
         -3   -1    0    0    0  501 -0.00000000000E+00  0.00000000000E+00  0.94682530174E+02  0.94682530174E+02  0.00000000000E+00 0.  1.
          3   -1    0    0  501    0  0.00000000000E+00 -0.00000000000E+00 -0.11963031734E+03  0.11963031734E+03  0.00000000000E+00 0. -1.
         25    2    1    2    0    0  0.30713287692E+01  0.23082005940E+02 -0.26381004146E+02  0.12994587965E+03  0.12509101566E+03 0.  0.
          5    1    3    3  502    0  0.19772595470E+02 -0.45592239105E+02  0.91942187771E+01  0.50711082193E+02  0.41800000000E+01 0. -1.
         -5    1    3    3    0  502 -0.16701266701E+02  0.68674245045E+02 -0.35575222923E+02  0.79234797457E+02  0.41800000000E+01 0. -1.
        -11    1    1    2    0    0  0.78334001464E+01 -0.50732991141E+02 -0.10395538995E+02  0.52376194773E+02  0.00000000000E+00 0. -1.
         11    1    1    2    0    0 -0.10904728916E+02  0.27650985201E+02  0.11828755972E+02  0.31990773094E+02  0.00000000000E+00 0.  1.
</event>
<event>
 7    1  0.2556591E-009  0.1309266E+03  0.7561462E-02  0.1226087E+00
          2   -1    0    0  501    0  0.00000000000E+00  0.00000000000E+00  0.14733874117E+03  0.14733874117E+03  0.00000000000E+00 0. -1.
         -2   -1    0    0    0  501 -0.00000000000E+00 -0.00000000000E+00 -0.14399004229E+03  0.14399004229E+03  0.00000000000E+00 0.  1.
         25    2    1    2    0    0  0.91887039384E+02  0.26944257212E+02  0.13920584404E+02  0.15814988967E+03  0.12509350075E+03 0.  0.
          5    1    3    3  502    0  0.10972695040E+03  0.34742659815E+02 -0.21834726204E+02  0.11722322178E+03  0.41800000000E+01 0.  1.
         -5    1    3    3    0  502 -0.17839911018E+02 -0.77984026038E+01  0.35755310608E+02  0.40926667895E+02  0.41800000000E+01 0.  1.
        -11    1    1    2    0    0 -0.65327972143E+02 -0.56971414003E+02 -0.25576857652E+02  0.90375116073E+02  0.00000000000E+00 0.  1.
         11    1    1    2    0    0 -0.26559067241E+02  0.30027156791E+02  0.15004972134E+02  0.42803777712E+02  0.00000000000E+00 0. -1.
</event>
<event>
 7    1  0.2556591E-009  0.1334143E+03  0.7561462E-02  0.1222476E+00
          2   -1    0    0  501    0  0.00000000000E+00  0.00000000000E+00  0.52693391561E+03  0.52693391561E+03  0.00000000000E+00 0. -1.
         -2   -1    0    0    0  501 -0.00000000000E+00 -0.00000000000E+00 -0.34449956090E+02  0.34449956090E+02  0.00000000000E+00 0.  1.
         25    2    1    2    0    0 -0.28831602394E+02  0.73282667897E+02  0.30616933573E+03  0.33998381231E+03  0.12509084612E+03 0.  0.
          5    1    3    3  502    0  0.49349122103E+02  0.34847017115E+02  0.12938525037E+03  0.14285540195E+03  0.41800000000E+01 0.  1.
         -5    1    3    3    0  502 -0.78180724496E+02  0.38435650782E+02  0.17678408536E+03  0.19712841036E+03  0.41800000000E+01 0.  1.
        -11    1    1    2    0    0  0.63251435566E+01 -0.90497615453E+02  0.13248376896E+03  0.16056704170E+03  0.00000000000E+00 0.  1.
         11    1    1    2    0    0  0.22506458837E+02  0.17214947556E+02  0.53830854836E+02  0.60833017689E+02  0.00000000000E+00 0. -1.
</event>
<event>
 7    1  0.2556591E-009  0.2003427E+03  0.7561462E-02  0.1149450E+00
         -1   -1    0    0    0  501 -0.00000000000E+00  0.00000000000E+00  0.98557010306E+02  0.98557010306E+02  0.00000000000E+00 0.  1.
          1   -1    0    0  501    0  0.00000000000E+00 -0.00000000000E+00 -0.46727929694E+03  0.46727929694E+03  0.00000000000E+00 0. -1.
         25    2    1    2    0    0 -0.41733338590E+02  0.17433155919E+03 -0.24340473731E+03  0.32715032922E+03  0.12509319599E+03 0.  0.
          5    1    3    3  502    0 -0.17003150384E+02  0.17408651247E+03 -0.15008064557E+03  0.23051441066E+03  0.41800000000E+01 0. -1.
         -5    1    3    3    0  502 -0.24730188206E+02  0.24504672196E+00 -0.93324091740E+02  0.96635918558E+02  0.41800000000E+01 0. -1.
        -11    1    1    2    0    0 -0.26572122193E+02 -0.79095498671E+02 -0.33956346041E+02  0.90084454953E+02  0.00000000000E+00 0.  1.
         11    1    1    2    0    0  0.68305460784E+02 -0.95236060518E+02 -0.91361203289E+02  0.14860152308E+03  0.00000000000E+00 0. -1.
</event>
<event>
 7    1  0.2556591E-009  0.1191728E+03  0.7561462E-02  0.1244468E+00
         -2   -1    0    0    0  501 -0.00000000000E+00  0.00000000000E+00  0.31089698658E+02  0.31089698658E+02  0.00000000000E+00 0.  1.
          2   -1    0    0  501    0  0.00000000000E+00 -0.00000000000E+00 -0.81011901529E+03  0.81011901529E+03  0.00000000000E+00 0. -1.
         25    2    1    2    0    0 -0.95593611597E+02  0.65548612799E+02 -0.45633363141E+03  0.48715708806E+03  0.12508751365E+03 0.  0.
          5    1    3    3  502    0  0.13398387352E+01  0.32045341665E+00 -0.24972787969E+03  0.24976665941E+03  0.41800000000E+01 0. -1.
         -5    1    3    3    0  502 -0.96933450332E+02  0.65228159383E+02 -0.20660575172E+03  0.23739042865E+03  0.41800000000E+01 0. -1.
        -11    1    1    2    0    0  0.12547091534E+02 -0.15982960694E+02 -0.36183216813E+01  0.20639205176E+02  0.00000000000E+00 0.  1.
         11    1    1    2    0    0  0.83046520062E+02 -0.49565652105E+02 -0.31907736355E+03  0.33341242072E+03  0.00000000000E+00 0. -1.
</event>
<event>
 7    1  0.2556591E-009  0.1565779E+03  0.7561462E-02  0.1192615E+00
          1   -1    0    0  501    0  0.00000000000E+00  0.00000000000E+00  0.11888785566E+04  0.11888785566E+04  0.00000000000E+00 0. -1.
         -1   -1    0    0    0  501 -0.00000000000E+00 -0.00000000000E+00 -0.24477875498E+02  0.24477875498E+02  0.00000000000E+00 0.  1.
         25    2    1    2    0    0 -0.25705265905E+02  0.12568323063E+03  0.52970582205E+03  0.55918953466E+03  0.12509053761E+03 0.  0.
          5    1    3    3  502    0  0.22548117158E+02  0.12187503810E+03  0.30415596859E+03  0.32846654035E+03  0.41800000000E+01 0.  1.
         -5    1    3    3    0  502 -0.48253383064E+02  0.38081925322E+01  0.22554985346E+03  0.23072299431E+03  0.41800000000E+01 0.  1.
        -11    1    1    2    0    0  0.38108499754E+01 -0.11690949182E+03  0.60520141259E+03  0.61640173723E+03  0.00000000000E+00 0. -1.
         11    1    1    2    0    0  0.21894415930E+02 -0.87737388122E+01  0.29493446457E+02  0.37765160209E+02  0.00000000000E+00 0.  1.
</event>
<event>
 7    1  0.2556591E-009  0.8343215E+02  0.7561462E-02  0.1319584E+00
         -2   -1    0    0    0  501 -0.00000000000E+00  0.00000000000E+00  0.52026965363E+02  0.52026965363E+02  0.00000000000E+00 0.  1.
          2   -1    0    0  501    0  0.00000000000E+00 -0.00000000000E+00 -0.41078789099E+03  0.41078789099E+03  0.00000000000E+00 0. -1.
         25    2    1    2    0    0 -0.47435458821E+02 -0.26296748924E+02 -0.32256167815E+03  0.35018956815E+03  0.12508019695E+03 0.  0.
          5    1    3    3  502    0 -0.86446160982E+01 -0.32483242874E+02 -0.10250119586E+02  0.35389656775E+02  0.41800000000E+01 0. -1.
         -5    1    3    3    0  502 -0.38790842723E+02  0.61864939506E+01 -0.31231155857E+03  0.31479991137E+03  0.41800000000E+01 0. -1.
        -11    1    1    2    0    0 -0.77916944114E+01  0.36503924546E+02  0.11375426280E+02  0.39021113928E+02  0.00000000000E+00 0.  1.
         11    1    1    2    0    0  0.55227153232E+02 -0.10207175623E+02 -0.47574673759E+02  0.73604174281E+02  0.00000000000E+00 0. -1.
</event>
<event>
 7    1  0.2556591E-009  0.1816574E+03  0.7561462E-02  0.1166209E+00
          1   -1    0    0  501    0  0.00000000000E+00  0.00000000000E+00  0.49911171927E+02  0.49911171927E+02  0.00000000000E+00 0. -1.
         -1   -1    0    0    0  501 -0.00000000000E+00 -0.00000000000E+00 -0.85871080599E+03  0.85871080599E+03  0.00000000000E+00 0.  1.
         25    2    1    2    0    0 -0.10901639301E+03  0.11838392286E+03 -0.24878168714E+03  0.32162075423E+03  0.12509298365E+03 0.  0.
          5    1    3    3  502    0 -0.12316234586E+03  0.79538930247E+02 -0.13075522885E+03  0.19649378396E+03  0.41800000000E+01 0. -1.
         -5    1    3    3    0  502  0.14145952848E+02  0.38844992610E+02 -0.11802645828E+03  0.12512697027E+03  0.41800000000E+01 0. -1.
        -11    1    1    2    0    0  0.19591339170E+02 -0.71470500268E+02 -0.20918600875E+03  0.22192485042E+03  0.00000000000E+00 0.  1.
         11    1    1    2    0    0  0.89425053842E+02 -0.46913422589E+02 -0.35083193817E+03  0.36507637326E+03  0.00000000000E+00 0. -1.
</event>
<event>
 7    1  0.2556591E-009  0.1164677E+03  0.7561462E-02  0.1249041E+00
          1   -1    0    0  501    0  0.00000000000E+00  0.00000000000E+00  0.59116028886E+03  0.59116028886E+03  0.00000000000E+00 0. -1.
         -1   -1    0    0    0  501 -0.00000000000E+00 -0.00000000000E+00 -0.31513196889E+02  0.31513196889E+02  0.00000000000E+00 0.  1.
         25    2    1    2    0    0  0.77987779387E+02  0.86840161371E+01  0.36764872951E+03  0.39619505587E+03  0.12508968029E+03 0.  0.
          5    1    3    3  502    0 -0.24659651141E+02 -0.19644399696E+02  0.36961649326E+02  0.48761016753E+02  0.41800000000E+01 0.  1.
         -5    1    3    3    0  502  0.10264743053E+03  0.28328415833E+02  0.33068708018E+03  0.34743403912E+03  0.41800000000E+01 0.  1.
        -11    1    1    2    0    0 -0.33680902231E+02 -0.30265562943E+02  0.16327025869E+03  0.16943312795E+03  0.00000000000E+00 0. -1.
         11    1    1    2    0    0 -0.44306877156E+02  0.21581546806E+02  0.28728103779E+02  0.57045301932E+02  0.00000000000E+00 0.  1.
</event>
<event>
 7    1  0.2556591E-009  0.9624096E+02  0.7561462E-02  0.1288405E+00
          1   -1    0    0  501    0  0.00000000000E+00  0.00000000000E+00  0.12538904745E+03  0.12538904745E+03  0.00000000000E+00 0. -1.
         -1   -1    0    0    0  501 -0.00000000000E+00 -0.00000000000E+00 -0.12632967365E+03  0.12632967365E+03  0.00000000000E+00 0.  1.
         25    2    1    2    0    0 -0.36120070608E+02  0.43080963979E+02 -0.29022098818E+02  0.14017885293E+03  0.12508876700E+03 0.  0.
          5    1    3    3  502    0 -0.11600614327E+02 -0.16881725684E+02 -0.63374139343E+02  0.66733206519E+02  0.41800000000E+01 0. -1.
         -5    1    3    3    0  502 -0.24519456281E+02  0.59962689662E+02  0.34352040525E+02  0.73445646406E+02  0.41800000000E+01 0. -1.
        -11    1    1    2    0    0  0.44570077171E+02  0.15715060879E+02  0.21013835522E+02  0.51720752129E+02  0.00000000000E+00 0.  1.
         11    1    1    2    0    0 -0.84500065633E+01 -0.58796024858E+02  0.70676371043E+01  0.59819116044E+02  0.00000000000E+00 0. -1.
</event>
<event>
 7    1  0.2556591E-009  0.8122962E+02  0.7561462E-02  0.1325598E+00
         -1   -1    0    0    0  501 -0.00000000000E+00  0.00000000000E+00  0.11009327016E+03  0.11009327016E+03  0.00000000000E+00 0.  1.
          1   -1    0    0  501    0  0.00000000000E+00 -0.00000000000E+00 -0.11723625308E+03  0.11723625308E+03  0.00000000000E+00 0. -1.
         25    2    1    2    0    0  0.14706876321E+02 -0.20582262554E+02 -0.28490316270E+02  0.13075058647E+03  0.12507636067E+03 0.  0.
          5    1    3    3  502    0  0.62546439153E+02 -0.23713003431E+02  0.11720767147E+02  0.68038315419E+02  0.41800000000E+01 0.  1.
         -5    1    3    3    0  502 -0.47839562832E+02  0.31307408773E+01 -0.40211083417E+02  0.62712271048E+02  0.41800000000E+01 0.  1.
        -11    1    1    2    0    0  0.11013297108E+02  0.18474221651E+02  0.52140283150E+02  0.56402116146E+02  0.00000000000E+00 0.  1.
         11    1    1    2    0    0 -0.25720173429E+02  0.21080409032E+01 -0.30792949801E+02  0.40176820620E+02  0.00000000000E+00 0. -1.
</event>
<event>
 7    1  0.2556591E-009  0.1260429E+03  0.7561462E-02  0.1233448E+00
          1   -1    0    0  501    0  0.00000000000E+00  0.00000000000E+00  0.19683172930E+03  0.19683172930E+03  0.00000000000E+00 0. -1.
         -1   -1    0    0    0  501 -0.00000000000E+00 -0.00000000000E+00 -0.99214143279E+02  0.99214143279E+02  0.00000000000E+00 0.  1.
         25    2    1    2    0    0 -0.83962301442E+02 -0.73823615431E+01  0.29916478787E+02  0.15377386191E+03  0.12508891868E+03 0.  0.
          5    1    3    3  502    0  0.31743330112E+02  0.25345308653E+01  0.18361685095E+02  0.36995766418E+02  0.41800000000E+01 0.  1.
         -5    1    3    3    0  502 -0.11570563155E+03 -0.99168924084E+01  0.11554793692E+02  0.11677809549E+03  0.41800000000E+01 0.  1.
        -11    1    1    2    0    0  0.34968312178E+02 -0.26771476039E+02  0.69776863058E+02  0.82512456054E+02  0.00000000000E+00 0. -1.
         11    1    1    2    0    0  0.48993989265E+02  0.34153837582E+02 -0.20757558272E+01  0.59759554616E+02  0.00000000000E+00 0.  1.
</event>
<event>
 7    1  0.2556591E-009  0.9822796E+02  0.7561462E-02  0.1284067E+00
          1   -1    0    0  501    0  0.00000000000E+00  0.00000000000E+00  0.35262049866E+03  0.35262049866E+03  0.00000000000E+00 0. -1.
         -1   -1    0    0    0  501 -0.00000000000E+00 -0.00000000000E+00 -0.46905664596E+02  0.46905664596E+02  0.00000000000E+00 0.  1.
         25    2    1    2    0    0  0.32282250147E+02 -0.15156260972E+02  0.26181976394E+03  0.29235056057E+03  0.12508959012E+03 0.  0.
          5    1    3    3  502    0  0.21967817001E+02 -0.53987059161E+02  0.50585698155E+02  0.77288891818E+02  0.41800000000E+01 0. -1.
         -5    1    3    3    0  502  0.10314433146E+02  0.38830798188E+02  0.21123406578E+03  0.21506166875E+03  0.41800000000E+01 0. -1.
        -11    1    1    2    0    0 -0.37463601761E+02 -0.32556640798E+02  0.25259723500E+02  0.55691201714E+02  0.00000000000E+00 0.  1.
         11    1    1    2    0    0  0.51813516143E+01  0.47712901770E+02  0.18635346630E+02  0.51484400976E+02  0.00000000000E+00 0. -1.
</event>
<event>
 7    1  0.2556591E-009  0.1257357E+03  0.7561462E-02  0.1233924E+00
         -2   -1    0    0    0  501 -0.00000000000E+00  0.00000000000E+00  0.10498058831E+03  0.10498058831E+03  0.00000000000E+00 0.  1.
          2   -1    0    0  501    0  0.00000000000E+00 -0.00000000000E+00 -0.20675245134E+03  0.20675245134E+03  0.00000000000E+00 0. -1.
         25    2    1    2    0    0 -0.78175899025E+02 -0.17212159714E+02 -0.11814010526E+03  0.18977731570E+03  0.12510241986E+03 0.  0.
          5    1    3    3  502    0 -0.59841513226E+02 -0.60466401441E+02 -0.30904379069E+02  0.90607645671E+02  0.41800000000E+01 0.  1.
         -5    1    3    3    0  502 -0.18334385799E+02  0.43254241727E+02 -0.87235726190E+02  0.99169670030E+02  0.41800000000E+01 0.  1.
        -11    1    1    2    0    0 -0.19813168155E+02  0.12631643311E+01 -0.48452128208E+01  0.20436078483E+02  0.00000000000E+00 0. -1.
         11    1    1    2    0    0  0.97989067180E+02  0.15948995383E+02  0.21213455057E+02  0.10151964547E+03  0.00000000000E+00 0.  1.
</event>
<event>
 7    1  0.2556591E-009  0.1159718E+03  0.7561462E-02  0.1249894E+00
          2   -1    0    0  501    0  0.00000000000E+00  0.00000000000E+00  0.21487409287E+03  0.21487409287E+03  0.00000000000E+00 0. -1.
         -2   -1    0    0    0  501 -0.00000000000E+00 -0.00000000000E+00 -0.10590484774E+03  0.10590484774E+03  0.00000000000E+00 0.  1.
         25    2    1    2    0    0  0.37059799229E+02 -0.45959364781E+02  0.15046890807E+03  0.20438859231E+03  0.12509241559E+03 0.  0.
          5    1    3    3  502    0  0.67594226767E+02 -0.69479703782E+02  0.12398969184E+03  0.15743990858E+03  0.41800000000E+01 0. -1.
         -5    1    3    3    0  502 -0.30534427537E+02  0.23520339001E+02  0.26479216229E+02  0.46948683729E+02  0.41800000000E+01 0. -1.
        -11    1    1    2    0    0  0.12172980462E+02 -0.14009917990E+02  0.12038486788E+02  0.22122034707E+02  0.00000000000E+00 0. -1.
         11    1    1    2    0    0 -0.49232779692E+02  0.59969282771E+02 -0.53538149725E+02  0.94268313596E+02  0.00000000000E+00 0.  1.
</event>
<event>
 7    1  0.2556591E-009  0.1994721E+03  0.7561462E-02  0.1150185E+00
         -1   -1    0    0    0  501 -0.00000000000E+00  0.00000000000E+00  0.76082433948E+02  0.76082433948E+02  0.00000000000E+00 0.  1.
          1   -1    0    0  501    0  0.00000000000E+00 -0.00000000000E+00 -0.89061268584E+03  0.89061268584E+03  0.00000000000E+00 0. -1.
         25    2    1    2    0    0 -0.11934589667E+03  0.13341003670E+03 -0.70545366238E+03  0.73848099596E+03  0.12509048999E+03 0.  0.
          5    1    3    3  502    0  0.24242589483E+02  0.42159489531E+01 -0.91817497930E+02  0.95149370447E+02  0.41800000000E+01 0.  1.
         -5    1    3    3    0  502 -0.14358848615E+03  0.12919408774E+03 -0.61363616445E+03  0.64333162552E+03  0.41800000000E+01 0.  1.
        -11    1    1    2    0    0  0.36050706822E+02 -0.58740614853E+02 -0.92155780438E+02  0.11507737034E+03  0.00000000000E+00 0. -1.
         11    1    1    2    0    0  0.83295189848E+02 -0.74669421843E+02 -0.16920809072E+02  0.11313675349E+03  0.00000000000E+00 0.  1.
</event>
<event>
 7    1  0.2556591E-009  0.1119451E+03  0.7561462E-02  0.1257010E+00
         -4   -1    0    0    0  501 -0.00000000000E+00  0.00000000000E+00  0.20534267033E+03  0.20534267033E+03  0.00000000000E+00 0.  1.
          4   -1    0    0  501    0  0.00000000000E+00 -0.00000000000E+00 -0.79399624522E+02  0.79399624522E+02  0.00000000000E+00 0. -1.
         25    2    1    2    0    0 -0.45126889493E+02  0.47817710541E+02  0.54669214413E+02  0.15152042968E+03  0.12508696179E+03 0.  0.
          5    1    3    3  502    0 -0.45840290118E+02 -0.20334913921E+02  0.65271601304E+02  0.82417809114E+02  0.41800000000E+01 0. -1.
         -5    1    3    3    0  502  0.71340062542E+00  0.68152624463E+02 -0.10602386890E+02  0.69102620568E+02  0.41800000000E+01 0. -1.
        -11    1    1    2    0    0 -0.12016665492E+02  0.15747726865E+02  0.35314787419E+02  0.40491052856E+02  0.00000000000E+00 0.  1.
         11    1    1    2    0    0  0.57143554985E+02 -0.63565437406E+02  0.35959043979E+02  0.92730812317E+02  0.00000000000E+00 0. -1.
</event>
<event>
 7    1  0.2556591E-009  0.1623030E+03  0.7561462E-02  0.1186121E+00
         -2   -1    0    0    0  501 -0.00000000000E+00  0.00000000000E+00  0.18945573193E+03  0.18945573193E+03  0.00000000000E+00 0.  1.
          2   -1    0    0  501    0  0.00000000000E+00 -0.00000000000E+00 -0.19253249784E+03  0.19253249784E+03  0.00000000000E+00 0. -1.
         25    2    1    2    0    0 -0.13219076695E+03 -0.71880716381E+02 -0.43984971182E+02  0.20055892976E+03  0.12509184770E+03 0.  0.
          5    1    3    3  502    0 -0.42932832522E+01 -0.41281799483E+02  0.28327477284E+02  0.50423581972E+02  0.41800000000E+01 0.  1.
         -5    1    3    3    0  502 -0.12789748370E+03 -0.30598916899E+02 -0.72312448466E+02  0.15013534778E+03  0.41800000000E+01 0.  1.
        -11    1    1    2    0    0  0.27825927125E+02  0.22870175168E+02  0.54504639789E+02  0.65330566285E+02  0.00000000000E+00 0.  1.
         11    1    1    2    0    0  0.10436483982E+03  0.49010541214E+02 -0.13596434524E+02  0.11609873373E+03  0.00000000000E+00 0. -1.
</event>
<event>
 7    1  0.2556591E-009  0.1393754E+03  0.7561462E-02  0.1214172E+00
          2   -1    0    0  501    0  0.00000000000E+00  0.00000000000E+00  0.28758853313E+03  0.28758853313E+03  0.00000000000E+00 0. -1.
         -2   -1    0    0    0  501 -0.00000000000E+00 -0.00000000000E+00 -0.84449181632E+02  0.84449181632E+02  0.00000000000E+00 0.  1.
         25    2    1    2    0    0 -0.21876143291E+02 -0.11101898340E+03  0.92710337037E+02  0.19247476683E+03  0.12509016329E+03 0.  0.
          5    1    3    3  502    0 -0.52608893730E+02 -0.69535958056E+02  0.11772987281E+01  0.87302941500E+02  0.41800000000E+01 0. -1.
         -5    1    3    3    0  502  0.30732750440E+02 -0.41483025347E+02  0.91533038309E+02  0.10517182533E+03  0.41800000000E+01 0. -1.
        -11    1    1    2    0    0 -0.22687467173E+02  0.85174792317E+02  0.55025721594E+02  0.10391004018E+03  0.00000000000E+00 0. -1.
         11    1    1    2    0    0  0.44563610464E+02  0.25844191086E+02  0.55403292864E+02  0.75652907748E+02  0.00000000000E+00 0.  1.
</event>
<event>
 7    1  0.2556591E-009  0.1800555E+03  0.7561462E-02  0.1167749E+00
         -2   -1    0    0    0  501 -0.00000000000E+00  0.00000000000E+00  0.43049198968E+02  0.43049198968E+02  0.00000000000E+00 0. -1.
          2   -1    0    0  501    0  0.00000000000E+00 -0.00000000000E+00 -0.82347304200E+03  0.82347304200E+03  0.00000000000E+00 0.  1.
         25    2    1    2    0    0  0.14426899322E+03  0.49659161167E+02 -0.38805591018E+03  0.43533334443E+03  0.12509259233E+03 0.  0.
          5    1    3    3  502    0  0.38079844034E+01  0.48040741327E+02 -0.16280126098E+03  0.16983561626E+03  0.41800000000E+01 0. -1.
         -5    1    3    3    0  502  0.14046100881E+03  0.16184198402E+01 -0.22525464920E+03  0.26549772817E+03  0.41800000000E+01 0. -1.
        -11    1    1    2    0    0 -0.51919966708E+02 -0.58757434969E+02 -0.24305267921E+03  0.25538739981E+03  0.00000000000E+00 0.  1.
         11    1    1    2    0    0 -0.92349026510E+02  0.90982738016E+01 -0.14931525364E+03  0.17580149673E+03  0.00000000000E+00 0. -1.
</event>
<event>
 7    1  0.3854550E-009  0.1722765E+03  0.7561462E-02  0.1175494E+00
         -2   -1    0    0    0  501 -0.00000000000E+00  0.00000000000E+00  0.12064477899E+03  0.12064477899E+03  0.00000000000E+00 0.  1.
          2   -1    0    0  501    0  0.00000000000E+00 -0.00000000000E+00 -0.34797058782E+03  0.34797058782E+03  0.00000000000E+00 0. -1.
         25    2    1    2    0    0 -0.10898764312E+03  0.13229565422E+03 -0.88158486449E+02  0.22978241599E+03  0.12509034129E+03 0.  0.
          5    1    3    3  502    0 -0.46779829898E+02  0.46208387705E+02  0.28653767240E+02  0.71847605086E+02  0.41800000000E+01 0.  1.
         -5    1    3    3    0  502 -0.62207813226E+02  0.86087266515E+02 -0.11681225369E+03  0.15793481090E+03  0.41800000000E+01 0.  1.
        -11    1    1    2    0    0  0.73154303567E+02 -0.74806975982E+02 -0.27433456434E+02  0.10816760290E+03  0.00000000000E+00 0. -1.
         11    1    1    2    0    0  0.35833339557E+02 -0.57488678238E+02 -0.11173386594E+03  0.13066534792E+03  0.00000000000E+00 0.  1.
</event>
<event>
 7    1  0.2556591E-009  0.1933871E+03  0.7561462E-02  0.1155441E+00
         -1   -1    0    0    0  501 -0.00000000000E+00  0.00000000000E+00  0.61341913397E+02  0.61341913397E+02  0.00000000000E+00 0.  1.
          1   -1    0    0  501    0  0.00000000000E+00 -0.00000000000E+00 -0.77525709650E+03  0.77525709650E+03  0.00000000000E+00 0. -1.
         25    2    1    2    0    0 -0.14121153507E+03 -0.11949443952E+03 -0.43876849469E+03  0.49233025742E+03  0.12510664141E+03 0.  0.
          5    1    3    3  502    0 -0.20077022656E+01 -0.40805820523E+02 -0.20499718573E+03  0.20907047715E+03  0.41800000000E+01 0. -1.
         -5    1    3    3    0  502 -0.13920383280E+03 -0.78688618995E+02 -0.23377130895E+03  0.28325978026E+03  0.41800000000E+01 0. -1.
        -11    1    1    2    0    0  0.11972805025E+03  0.92806223968E+02 -0.27004225425E+03  0.30962981171E+03  0.00000000000E+00 0. -1.
         11    1    1    2    0    0  0.21483484816E+02  0.26688215550E+02 -0.51044341643E+01  0.34638940763E+02  0.00000000000E+00 0.  1.
</event>
<event>
 7    1  0.2556591E-009  0.1488235E+03  0.7561462E-02  0.1201926E+00
         -2   -1    0    0    0  501 -0.00000000000E+00  0.00000000000E+00  0.28377994295E+02  0.28377994295E+02  0.00000000000E+00 0. -1.
          2   -1    0    0  501    0  0.00000000000E+00 -0.00000000000E+00 -0.95332595941E+03  0.95332595941E+03  0.00000000000E+00 0.  1.
         25    2    1    2    0    0 -0.11772200971E+03 -0.34242994486E+02 -0.46622792782E+03  0.49804394169E+03  0.12509289722E+03 0.  0.
          5    1    3    3  502    0 -0.73929490548E+02  0.21192345484E+02 -0.10656630003E+03  0.13148586913E+03  0.41800000000E+01 0. -1.
         -5    1    3    3    0  502 -0.43792519165E+02 -0.55435339970E+02 -0.35966162779E+03  0.36655807256E+03  0.41800000000E+01 0. -1.
        -11    1    1    2    0    0  0.10986605926E+03 -0.48591784547E+01 -0.28649203579E+03  0.30687432145E+03  0.00000000000E+00 0. -1.
         11    1    1    2    0    0  0.78559504503E+01  0.39102172941E+02 -0.17222800151E+03  0.17678569057E+03  0.00000000000E+00 0.  1.
</event>
<event>
 7    1  0.2556591E-009  0.1393491E+03  0.7561462E-02  0.1214207E+00
          3   -1    0    0  501    0  0.00000000000E+00  0.00000000000E+00  0.55656985434E+03  0.55656985434E+03  0.00000000000E+00 0. -1.
         -3   -1    0    0    0  501 -0.00000000000E+00 -0.00000000000E+00 -0.57611350480E+02  0.57611350480E+02  0.00000000000E+00 0.  1.
         25    2    1    2    0    0 -0.79203025511E+02 -0.98083415378E+02  0.15293906739E+03  0.23437218403E+03  0.12508591724E+03 0.  0.
          5    1    3    3  502    0 -0.25225978883E+02 -0.64803468322E+02  0.15589600892E+03  0.17075385066E+03  0.41800000000E+01 0. -1.
         -5    1    3    3    0  502 -0.53977046628E+02 -0.33279947056E+02 -0.29569415240E+01  0.63618333379E+02  0.41800000000E+01 0. -1.
        -11    1    1    2    0    0 -0.13265845570E+02  0.22209183994E+02  0.13310943596E+03  0.13559997218E+03  0.00000000000E+00 0. -1.
         11    1    1    2    0    0  0.92468871081E+02  0.75874231385E+02  0.21291000050E+03  0.24420904861E+03  0.00000000000E+00 0.  1.
</event>
<event>
 7    1  0.2556591E-009  0.8503067E+02  0.7561462E-02  0.1315352E+00
         -1   -1    0    0    0  501 -0.00000000000E+00  0.00000000000E+00  0.19483837227E+03  0.19483837227E+03  0.00000000000E+00 0.  1.
          1   -1    0    0  501    0  0.00000000000E+00 -0.00000000000E+00 -0.85504087304E+02  0.85504087304E+02  0.00000000000E+00 0. -1.
         25    2    1    2    0    0  0.52285755669E+02 -0.40059507550E+02  0.35315845339E+02  0.14571577860E+03  0.12508922739E+03 0.  0.
          5    1    3    3  502    0  0.30767777133E+02 -0.94583903267E+01 -0.45890330662E+02  0.56209537496E+02  0.41800000000E+01 0. -1.
         -5    1    3    3    0  502  0.21517978535E+02 -0.30601117223E+02  0.81206176001E+02  0.89506241102E+02  0.41800000000E+01 0. -1.
        -11    1    1    2    0    0 -0.48157889189E+02 -0.10453050234E+02  0.57664116508E+01  0.49615522306E+02  0.00000000000E+00 0. -1.
         11    1    1    2    0    0 -0.41278664798E+01  0.50512557784E+02  0.68252027977E+02  0.85011158670E+02  0.00000000000E+00 0.  1.
</event>
<event>
 7    1  0.2556591E-009  0.1025001E+03  0.7561462E-02  0.1275125E+00
         -3   -1    0    0    0  501 -0.00000000000E+00  0.00000000000E+00  0.12956058933E+03  0.12956058933E+03  0.00000000000E+00 0.  1.
          3   -1    0    0  501    0  0.00000000000E+00 -0.00000000000E+00 -0.12945377749E+03  0.12945377749E+03  0.00000000000E+00 0. -1.
         25    2    1    2    0    0  0.64319369890E+02 -0.39720307063E+01 -0.25330038655E+02  0.14297558099E+03  0.12509055731E+03 0.  0.
          5    1    3    3  502    0  0.93636521156E+02  0.25018687360E+02 -0.58608072691E+01  0.97188241435E+02  0.41800000000E+01 0.  1.
         -5    1    3    3    0  502 -0.29317151266E+02 -0.28990718066E+02 -0.19469231386E+02  0.45787339550E+02  0.41800000000E+01 0.  1.
        -11    1    1    2    0    0 -0.31323122062E+02 -0.63770990743E+01  0.59471914697E+02  0.67518249429E+02  0.00000000000E+00 0.  1.
         11    1    1    2    0    0 -0.32996247828E+02  0.10349129781E+02 -0.34035064206E+02  0.48520536409E+02  0.00000000000E+00 0. -1.
</event>
<event>
 7    1  0.2556591E-009  0.1019050E+03  0.7561462E-02  0.1276340E+00
         -2   -1    0    0    0  501 -0.00000000000E+00  0.00000000000E+00  0.27920244242E+02  0.27920244242E+02  0.00000000000E+00 0. -1.
          2   -1    0    0  501    0  0.00000000000E+00 -0.00000000000E+00 -0.67877222790E+03  0.67877222790E+03  0.00000000000E+00 0.  1.
         25    2    1    2    0    0 -0.40139370954E+02 -0.17752607329E+02 -0.54135556602E+03  0.55735089878E+03  0.12509137200E+03 0.  0.
          5    1    3    3  502    0 -0.81807085359E+02 -0.24239707013E+02 -0.42545502923E+03  0.43394632953E+03  0.41800000000E+01 0.  1.
         -5    1    3    3    0  502  0.41667714406E+02  0.64870996839E+01 -0.11590053679E+03  0.12340456926E+03  0.41800000000E+01 0.  1.
        -11    1    1    2    0    0  0.23773685122E+02  0.41109546475E+02 -0.13752182439E+02  0.49439917451E+02  0.00000000000E+00 0. -1.
         11    1    1    2    0    0  0.16365685831E+02 -0.23356939146E+02 -0.95744235198E+02  0.99901655906E+02  0.00000000000E+00 0.  1.
</event>
<event>
 7    1  0.2556591E-009  0.6296055E+02  0.7561462E-02  0.1385812E+00
         -1   -1    0    0    0  501 -0.00000000000E+00  0.00000000000E+00  0.13064899772E+03  0.13064899772E+03  0.00000000000E+00 0.  1.
          1   -1    0    0  501    0  0.00000000000E+00 -0.00000000000E+00 -0.10741207732E+03  0.10741207732E+03  0.00000000000E+00 0. -1.
         25    2    1    2    0    0  0.33758890723E+02 -0.13646396026E+02 -0.17734091552E+02  0.13147682856E+03  0.12508305888E+03 0.  0.
          5    1    3    3  502    0 -0.45881231442E+01 -0.13174037649E+02 -0.67192564425E+02  0.68752594540E+02  0.41800000000E+01 0. -1.
         -5    1    3    3    0  502  0.38347013867E+02 -0.47235837708E+00  0.49458472873E+02  0.62724234024E+02  0.41800000000E+01 0. -1.
        -11    1    1    2    0    0 -0.13882922313E+01  0.34335627859E+02  0.55693998956E+02  0.65442220435E+02  0.00000000000E+00 0.  1.
         11    1    1    2    0    0 -0.32370598491E+02 -0.20689231832E+02 -0.14722987007E+02  0.41142026043E+02  0.00000000000E+00 0. -1.
</event>
<event>
 7    1  0.2556591E-009  0.1343180E+03  0.7561462E-02  0.1221186E+00
         -1   -1    0    0    0  501 -0.00000000000E+00  0.00000000000E+00  0.54794428090E+02  0.54794428090E+02  0.00000000000E+00 0.  1.
          1   -1    0    0  501    0  0.00000000000E+00 -0.00000000000E+00 -0.41426483045E+03  0.41426483045E+03  0.00000000000E+00 0. -1.
         25    2    1    2    0    0 -0.72347114120E+02 -0.60078504487E+02 -0.26709959595E+03  0.30956882713E+03  0.12508850048E+03 0.  0.
          5    1    3    3  502    0  0.14613535189E+01  0.25346736083E+02 -0.80552947452E+01  0.26962061450E+02  0.41800000000E+01 0.  1.
         -5    1    3    3    0  502 -0.73808467639E+02 -0.85425240571E+02 -0.25904430121E+03  0.28260676568E+03  0.41800000000E+01 0.  1.
        -11    1    1    2    0    0  0.17719637490E+02  0.71891853878E+02 -0.49775244295E+02  0.89218827337E+02  0.00000000000E+00 0. -1.
         11    1    1    2    0    0  0.54627476630E+02 -0.11813349390E+02 -0.42595562109E+02  0.70271604067E+02  0.00000000000E+00 0.  1.
</event>
<event>
 7    1  0.2556591E-009  0.1071394E+03  0.7561462E-02  0.1265961E+00
         -1   -1    0    0    0  501 -0.00000000000E+00  0.00000000000E+00  0.14375426652E+03  0.14375426652E+03  0.00000000000E+00 0.  1.
          1   -1    0    0  501    0  0.00000000000E+00 -0.00000000000E+00 -0.11425507194E+03  0.11425507194E+03  0.00000000000E+00 0. -1.
         25    2    1    2    0    0 -0.18989816595E+01 -0.49190168465E+02 -0.29311393332E+02  0.13758474433E+03  0.12508846984E+03 0.  0.
          5    1    3    3  502    0 -0.29741464457E+02 -0.69372846812E+02  0.19180493953E+02  0.77990450256E+02  0.41800000000E+01 0. -1.
         -5    1    3    3    0  502  0.27842482797E+02  0.20182678346E+02 -0.48491887286E+02  0.59594294073E+02  0.41800000000E+01 0. -1.
        -11    1    1    2    0    0  0.46701130254E+02  0.21879457988E+02  0.20685892235E+02  0.55566288219E+02  0.00000000000E+00 0. -1.
         11    1    1    2    0    0 -0.44802148594E+02  0.27310710477E+02  0.38124695680E+02  0.64858305915E+02  0.00000000000E+00 0.  1.
</event>
<event>
 7    1  0.2556591E-009  0.1828030E+03  0.7561462E-02  0.1165118E+00
         -3   -1    0    0    0  501 -0.00000000000E+00  0.00000000000E+00  0.27688560589E+03  0.27688560589E+03  0.00000000000E+00 0.  1.
          3   -1    0    0  501    0  0.00000000000E+00 -0.00000000000E+00 -0.14926030458E+03  0.14926030458E+03  0.00000000000E+00 0. -1.
         25    2    1    2    0    0  0.10971643239E+03  0.10208436243E+03  0.15340341736E+03  0.24827205618E+03  0.12508993898E+03 0.  0.
          5    1    3    3  502    0  0.87485589723E+02 -0.27062422915E+01  0.76698390109E+02  0.11645242635E+03  0.41800000000E+01 0.  1.
         -5    1    3    3    0  502  0.22230842670E+02  0.10479060473E+03  0.76705027248E+02  0.13181962984E+03  0.41800000000E+01 0.  1.
        -11    1    1    2    0    0 -0.46808471568E+02 -0.96948843227E+02 -0.36856944765E+02  0.11379167628E+03  0.00000000000E+00 0. -1.
         11    1    1    2    0    0 -0.62907960825E+02 -0.51355192077E+01  0.11078828717E+02  0.64082178009E+02  0.00000000000E+00 0.  1.
</event>
<event>
 7    1  0.2556591E-009  0.1461010E+03  0.7561462E-02  0.1205348E+00
         -1   -1    0    0    0  501 -0.00000000000E+00  0.00000000000E+00  0.91373992265E+03  0.91373992265E+03  0.00000000000E+00 0.  1.
          1   -1    0    0  501    0  0.00000000000E+00 -0.00000000000E+00 -0.29188600611E+02  0.29188600611E+02  0.00000000000E+00 0. -1.
         25    2    1    2    0    0 -0.11925327811E+03  0.20387197932E+02  0.42298948212E+03  0.45738922137E+03  0.12509122938E+03 0.  0.
          5    1    3    3  502    0 -0.48277153054E+02 -0.45684453146E+02  0.25323820204E+03  0.26184883452E+03  0.41800000000E+01 0.  1.
         -5    1    3    3    0  502 -0.70976125057E+02  0.66071651078E+02  0.16975128008E+03  0.19554038686E+03  0.41800000000E+01 0.  1.
        -11    1    1    2    0    0  0.52180916649E+02 -0.30915205279E+02  0.34787287141E+03  0.35312056389E+03  0.00000000000E+00 0.  1.
         11    1    1    2    0    0  0.67072361462E+02  0.10528007347E+02  0.11368896852E+03  0.13241873800E+03  0.00000000000E+00 0. -1.
</event>
<event>
 7    1  0.2767603E-009  0.2612815E+03  0.7561462E-02  0.1106376E+00
         -2   -1    0    0    0  501 -0.00000000000E+00  0.00000000000E+00  0.11853512171E+03  0.11853512171E+03  0.00000000000E+00 0.  1.
          2   -1    0    0  501    0  0.00000000000E+00 -0.00000000000E+00 -0.64904734955E+03  0.64904734955E+03  0.00000000000E+00 0. -1.
         25    2    1    2    0    0 -0.24242067719E+03  0.29018361671E+02 -0.37342054329E+03  0.46335759379E+03  0.12508999774E+03 0.  0.
          5    1    3    3  502    0 -0.89037905660E+02  0.72392118842E+02 -0.15203155127E+03  0.19052409952E+03  0.41800000000E+01 0. -1.
         -5    1    3    3    0  502 -0.15338277153E+03 -0.43373757171E+02 -0.22138899201E+03  0.27283349427E+03  0.41800000000E+01 0. -1.
        -11    1    1    2    0    0  0.93439390735E+02 -0.33416044527E+02 -0.10947409808E+03  0.14775699619E+03  0.00000000000E+00 0. -1.
         11    1    1    2    0    0  0.14898128646E+03  0.43976828565E+01 -0.47617586478E+02  0.15646788128E+03  0.00000000000E+00 0.  1.
</event>
<event>
 7    1  0.2556591E-009  0.1296032E+03  0.7561462E-02  0.1228046E+00
         -2   -1    0    0    0  501 -0.00000000000E+00  0.00000000000E+00  0.73767238525E+02  0.73767238525E+02  0.00000000000E+00 0.  1.
          2   -1    0    0  501    0  0.00000000000E+00 -0.00000000000E+00 -0.26240518883E+03  0.26240518883E+03  0.00000000000E+00 0. -1.
         25    2    1    2    0    0  0.11908317374E+02  0.83664026343E+02 -0.78918456307E+02  0.17034491253E+03  0.12509112340E+03 0.  0.
          5    1    3    3  502    0  0.54694576605E+02  0.39151241761E+01 -0.86051026549E+01  0.55662780195E+02  0.41800000000E+01 0.  1.
         -5    1    3    3    0  502 -0.42786259232E+02  0.79748902167E+02 -0.70313353652E+02  0.11468213234E+03  0.41800000000E+01 0.  1.
        -11    1    1    2    0    0  0.18658011312E+02 -0.80786646579E+02 -0.45335638529E+02  0.94498273912E+02  0.00000000000E+00 0.  1.
         11    1    1    2    0    0 -0.30566328686E+02 -0.28773797641E+01 -0.64383855474E+02  0.71329240913E+02  0.00000000000E+00 0. -1.
</event>
<event>
 7    1  0.2556591E-009  0.2426079E+03  0.7561462E-02  0.1118068E+00
         -2   -1    0    0    0  501 -0.00000000000E+00  0.00000000000E+00  0.30190040759E+02  0.30190040759E+02  0.00000000000E+00 0.  1.
          2   -1    0    0  501    0  0.00000000000E+00 -0.00000000000E+00 -0.23328979738E+04  0.23328979738E+04  0.00000000000E+00 0. -1.
         25    2    1    2    0    0 -0.20492391547E+03 -0.12847338454E+03 -0.12152483810E+04  0.12453824398E+04  0.12509825010E+03 0.  0.
          5    1    3    3  502    0 -0.84782458765E+02 -0.38806376935E+02 -0.22120956012E+03  0.24009402761E+03  0.41800000000E+01 0. -1.
         -5    1    3    3    0  502 -0.12014145670E+03 -0.89667007602E+02 -0.99403882088E+03  0.10052884122E+04  0.41800000000E+01 0. -1.
        -11    1    1    2    0    0  0.19541358690E+02  0.13844759496E+02 -0.31962977258E+02  0.39939629194E+02  0.00000000000E+00 0.  1.
         11    1    1    2    0    0  0.18538255678E+03  0.11462862504E+03 -0.10554965747E+04  0.10777659455E+04  0.00000000000E+00 0. -1.
</event>
<event>
 7    1  0.2556591E-009  0.1165480E+03  0.7561462E-02  0.1248903E+00
         -1   -1    0    0    0  501 -0.00000000000E+00  0.00000000000E+00  0.26653209460E+03  0.26653209460E+03  0.00000000000E+00 0. -1.
          1   -1    0    0  501    0  0.00000000000E+00 -0.00000000000E+00 -0.74000199212E+02  0.74000199212E+02  0.00000000000E+00 0.  1.
         25    2    1    2    0    0  0.14672790523E+02  0.77781600509E+02  0.15410450010E+03  0.21368415842E+03  0.12508978555E+03 0.  0.
          5    1    3    3  502    0 -0.37055935355E+02 -0.15668527252E+02  0.51813379934E+02  0.65732365175E+02  0.41800000000E+01 0. -1.
         -5    1    3    3    0  502  0.51728725878E+02  0.93450127762E+02  0.10229112017E+03  0.14795179325E+03  0.41800000000E+01 0. -1.
        -11    1    1    2    0    0  0.13220511708E+01 -0.65687852153E+02 -0.17033707739E+02  0.67873330102E+02  0.00000000000E+00 0.  1.
         11    1    1    2    0    0 -0.15994841694E+02 -0.12093748356E+02  0.55461103025E+02  0.58974805289E+02  0.00000000000E+00 0. -1.
</event>
<event>
 7    1  0.2556591E-009  0.2083081E+03  0.7561462E-02  0.1142913E+00
          2   -1    0    0  501    0  0.00000000000E+00  0.00000000000E+00  0.68728355551E+03  0.68728355551E+03  0.00000000000E+00 0. -1.
         -2   -1    0    0    0  501 -0.00000000000E+00 -0.00000000000E+00 -0.12669514140E+03  0.12669514140E+03  0.00000000000E+00 0.  1.
         25    2    1    2    0    0  0.11784839045E+03  0.13562520280E+03  0.14090286273E+01  0.21892606997E+03  0.12507677635E+03 0.  0.
          5    1    3    3  502    0  0.11627108399E+02  0.10272083716E+03  0.21956587219E+02  0.10576542043E+03  0.41800000000E+01 0.  1.
         -5    1    3    3    0  502  0.10622128205E+03  0.32904365641E+02 -0.20547558592E+02  0.11316064954E+03  0.41800000000E+01 0.  1.
        -11    1    1    2    0    0 -0.78872722874E+02 -0.22195448900E+02  0.19109799517E+03  0.20792303413E+03  0.00000000000E+00 0.  1.
         11    1    1    2    0    0 -0.38975667578E+02 -0.11342975390E+03  0.36808139031E+03  0.38712959281E+03  0.00000000000E+00 0. -1.
</event>
<event>
 7    1  0.2556591E-009  0.1755170E+03  0.7561462E-02  0.1172214E+00
         -1   -1    0    0    0  501 -0.00000000000E+00  0.00000000000E+00  0.57501104147E+02  0.57501104147E+02  0.00000000000E+00 0.  1.
          1   -1    0    0  501    0  0.00000000000E+00 -0.00000000000E+00 -0.83704336673E+03  0.83704336673E+03  0.00000000000E+00 0. -1.
         25    2    1    2    0    0 -0.13751102066E+03  0.83560574860E+02 -0.61092311303E+03  0.64402443846E+03  0.12509507115E+03 0.  0.
          5    1    3    3  502    0 -0.93884909551E+02  0.10531919711E+03 -0.53798740882E+03  0.55619639874E+03  0.41800000000E+01 0. -1.
         -5    1    3    3    0  502 -0.43626111107E+02 -0.21758622250E+02 -0.72935704204E+02  0.87828039716E+02  0.41800000000E+01 0. -1.
        -11    1    1    2    0    0  0.88649515333E+02 -0.51780843983E+02 -0.41612724648E+02  0.11077730465E+03  0.00000000000E+00 0.  1.
         11    1    1    2    0    0  0.48861505325E+02 -0.31779730876E+02 -0.12700642491E+03  0.13974272777E+03  0.00000000000E+00 0. -1.
</event>
<event>
 7    1  0.2556591E-009  0.1328402E+03  0.7561462E-02  0.1223301E+00
         -1   -1    0    0    0  501 -0.00000000000E+00  0.00000000000E+00  0.62540717650E+02  0.62540717650E+02  0.00000000000E+00 0.  1.
          1   -1    0    0  501    0  0.00000000000E+00 -0.00000000000E+00 -0.35761661539E+03  0.35761661539E+03  0.00000000000E+00 0. -1.
         25    2    1    2    0    0 -0.93156091600E+02  0.30854655763E+02 -0.21549848642E+03  0.26780084450E+03  0.12509047718E+03 0.  0.
          5    1    3    3  502    0 -0.62485433687E+02  0.75824513457E+02 -0.10108555492E+03  0.14103030908E+03  0.41800000000E+01 0. -1.
         -5    1    3    3    0  502 -0.30670657913E+02 -0.44969857694E+02 -0.11441293149E+03  0.12677053542E+03  0.41800000000E+01 0. -1.
        -11    1    1    2    0    0  0.46991492643E+02  0.13326819814E+02 -0.73389392088E+02  0.88157854887E+02  0.00000000000E+00 0. -1.
         11    1    1    2    0    0  0.46164598956E+02 -0.44181475578E+02 -0.61880192343E+01  0.64198633654E+02  0.00000000000E+00 0.  1.
</event>
<event>
 7    1  0.2556591E-009  0.1037053E+03  0.7561462E-02  0.1272692E+00
          2   -1    0    0  501    0  0.00000000000E+00  0.00000000000E+00  0.66630547405E+03  0.66630547405E+03  0.00000000000E+00 0. -1.
         -2   -1    0    0    0  501 -0.00000000000E+00 -0.00000000000E+00 -0.31500026859E+02  0.31500026859E+02  0.00000000000E+00 0.  1.
         25    2    1    2    0    0  0.10215458248E+02 -0.72830182030E+02  0.49365569626E+03  0.51454102091E+03  0.12509166541E+03 0.  0.
          5    1    3    3  502    0 -0.41393744383E+02 -0.45673175009E+01  0.64312956940E+02  0.76732856675E+02  0.41800000000E+01 0.  1.
         -5    1    3    3    0  502  0.51609202631E+02 -0.68262864529E+02  0.42934273932E+03  0.43780816424E+03  0.41800000000E+01 0.  1.
        -11    1    1    2    0    0  0.74501956831E+01  0.52151055644E+02  0.14637793203E+03  0.15556907470E+03  0.00000000000E+00 0. -1.
         11    1    1    2    0    0 -0.17665653932E+02  0.20679126386E+02 -0.52281810878E+01  0.27695405294E+02  0.00000000000E+00 0.  1.
</event>
<event>
 7    1  0.2556591E-009  0.1572329E+03  0.7561462E-02  0.1191857E+00
          2   -1    0    0  501    0  0.00000000000E+00  0.00000000000E+00  0.50408835642E+03  0.50408835642E+03  0.00000000000E+00 0.  1.
         -2   -1    0    0    0  501 -0.00000000000E+00 -0.00000000000E+00 -0.79491498811E+02  0.79491498811E+02  0.00000000000E+00 0. -1.
         25    2    1    2    0    0  0.32622654852E+02 -0.13217702413E+03  0.36710749538E+03  0.41103556000E+03  0.12508922859E+03 0.  0.
          5    1    3    3  502    0  0.51778617276E+01 -0.13131376133E+03  0.18581986656E+03  0.22763261931E+03  0.41800000000E+01 0. -1.
         -5    1    3    3    0  502  0.27444793125E+02 -0.86326279718E+00  0.18128762882E+03  0.18340294069E+03  0.41800000000E+01 0. -1.
        -11    1    1    2    0    0  0.24257017168E+02  0.34430152807E+02  0.40043683950E+02  0.58114842584E+02  0.00000000000E+00 0. -1.
         11    1    1    2    0    0 -0.56879672021E+02  0.97746871319E+02  0.17445678282E+02  0.11442945264E+03  0.00000000000E+00 0.  1.
</event>
<event>
 7    1  0.2556591E-009  0.1915266E+03  0.7561462E-02  0.1157092E+00
          1   -1    0    0  501    0  0.00000000000E+00  0.00000000000E+00  0.14292423433E+03  0.14292423433E+03  0.00000000000E+00 0. -1.
         -1   -1    0    0    0  501 -0.00000000000E+00 -0.00000000000E+00 -0.29520470545E+03  0.29520470545E+03  0.00000000000E+00 0.  1.
         25    2    1    2    0    0 -0.12047324026E+03 -0.11673032589E+03 -0.12798004701E+03  0.24528131722E+03  0.12507702242E+03 0.  0.
          5    1    3    3  502    0 -0.39233591161E+02 -0.10209036939E+03 -0.11972887571E+03  0.16221650432E+03  0.41800000000E+01 0. -1.
         -5    1    3    3    0  502 -0.81239649102E+02 -0.14639956506E+02 -0.82511713081E+01  0.83064812892E+02  0.41800000000E+01 0. -1.
        -11    1    1    2    0    0  0.11386180520E+03  0.50785459874E+02 -0.21488289434E+02  0.12651252982E+03  0.00000000000E+00 0. -1.
         11    1    1    2    0    0  0.66114350624E+01  0.65944866020E+02 -0.28121346721E+01  0.66335092744E+02  0.00000000000E+00 0.  1.
</event>
<event>
 7    1  0.2556591E-009  0.1605023E+03  0.7561462E-02  0.1188131E+00
          2   -1    0    0  501    0  0.00000000000E+00  0.00000000000E+00  0.16816821592E+03  0.16816821592E+03  0.00000000000E+00 0. -1.
         -2   -1    0    0    0  501 -0.00000000000E+00 -0.00000000000E+00 -0.20016314475E+03  0.20016314475E+03  0.00000000000E+00 0.  1.
         25    2    1    2    0    0  0.57249644781E+02 -0.13547249392E+03 -0.20023964690E+02  0.19410952983E+03  0.12508889627E+03 0.  0.
          5    1    3    3  502    0 -0.54816976626E+01 -0.24475489915E+02 -0.56055162062E+02  0.61552840793E+02  0.41800000000E+01 0. -1.
         -5    1    3    3    0  502  0.62731342444E+02 -0.11099700401E+03  0.36031197372E+02  0.13255668903E+03  0.41800000000E+01 0. -1.
        -11    1    1    2    0    0 -0.43545212540E+02  0.13960108350E+02  0.16595868205E+02  0.48646613466E+02  0.00000000000E+00 0. -1.
         11    1    1    2    0    0 -0.13704432241E+02  0.12151238557E+03 -0.28566832344E+02  0.12557521738E+03  0.00000000000E+00 0.  1.
</event>
<event>
 7    1  0.2556591E-009  0.7862867E+02  0.7561462E-02  0.1332989E+00
         -1   -1    0    0    0  501 -0.00000000000E+00  0.00000000000E+00  0.26771671257E+02  0.26771671257E+02  0.00000000000E+00 0.  1.
          1   -1    0    0  501    0  0.00000000000E+00 -0.00000000000E+00 -0.46720361629E+03  0.46720361629E+03  0.00000000000E+00 0. -1.
         25    2    1    2    0    0  0.16513304120E+01 -0.26963161978E+02 -0.27676883326E+03  0.30492413380E+03  0.12509197142E+03 0.  0.
          5    1    3    3  502    0 -0.19569384478E+02 -0.66752117413E+02 -0.96361275125E+02  0.11891918992E+03  0.41800000000E+01 0.  1.
         -5    1    3    3    0  502  0.21220714890E+02  0.39788955435E+02 -0.18040755814E+03  0.18600494388E+03  0.41800000000E+01 0.  1.
        -11    1    1    2    0    0 -0.14451634013E+02  0.25616670887E+02 -0.17148557393E+03  0.17398955606E+03  0.00000000000E+00 0. -1.
         11    1    1    2    0    0  0.12800303601E+02  0.13464910905E+01  0.78224621577E+01  0.15061597682E+02  0.00000000000E+00 0.  1.
</event>
<event>
 7    1  0.2556591E-009  0.7436579E+02  0.7561462E-02  0.1345846E+00
          1   -1    0    0  501    0  0.00000000000E+00  0.00000000000E+00  0.21804328680E+03  0.21804328680E+03  0.00000000000E+00 0. -1.
         -1   -1    0    0    0  501 -0.00000000000E+00 -0.00000000000E+00 -0.66808524728E+02  0.66808524728E+02  0.00000000000E+00 0.  1.
         25    2    1    2    0    0  0.17646766481E+02 -0.12235066542E+02  0.14572486267E+03  0.19324637801E+03  0.12508925530E+03 0.  0.
          5    1    3    3  502    0  0.16073941352E+02 -0.34296933000E+02  0.16138658026E+03  0.16582446107E+03  0.41800000000E+01 0.  1.
         -5    1    3    3    0  502  0.15728251284E+01  0.22061866457E+02 -0.15661717587E+02  0.27421916932E+02  0.41800000000E+01 0.  1.
        -11    1    1    2    0    0  0.27789078214E+02  0.28547984597E+02  0.14695372557E+02  0.42463799490E+02  0.00000000000E+00 0.  1.
         11    1    1    2    0    0 -0.45435844695E+02 -0.16312918054E+02 -0.91854731515E+01  0.49141634035E+02  0.00000000000E+00 0. -1.
</event>
<event>
 7    1  0.2556591E-009  0.1073241E+03  0.7561462E-02  0.1265607E+00
          2   -1    0    0  501    0  0.00000000000E+00  0.00000000000E+00  0.51150496161E+03  0.51150496161E+03  0.00000000000E+00 0. -1.
         -2   -1    0    0    0  501 -0.00000000000E+00 -0.00000000000E+00 -0.25205348113E+02  0.25205348113E+02  0.00000000000E+00 0.  1.
         25    2    1    2    0    0  0.32784720975E+02 -0.14602081091E+02  0.27974591516E+03  0.30853304165E+03  0.12508717776E+03 0.  0.
          5    1    3    3  502    0  0.10599977053E+02  0.50030789541E+02  0.63114149581E+02  0.81340689036E+02  0.41800000000E+01 0. -1.
         -5    1    3    3    0  502  0.22184743922E+02 -0.64632870632E+02  0.21663176558E+03  0.22719235261E+03  0.41800000000E+01 0. -1.
        -11    1    1    2    0    0  0.10291059592E+02  0.42384752353E+02  0.11875150105E+03  0.12650807145E+03  0.00000000000E+00 0.  1.
         11    1    1    2    0    0 -0.43075780567E+02 -0.27782671262E+02  0.87802197288E+02  0.10166919663E+03  0.00000000000E+00 0. -1.
</event>
<event>
 7    1  0.2556591E-009  0.1140341E+03  0.7561462E-02  0.1253277E+00
          2   -1    0    0  501    0  0.00000000000E+00  0.00000000000E+00  0.59253859356E+03  0.59253859356E+03  0.00000000000E+00 0. -1.
         -2   -1    0    0    0  501 -0.00000000000E+00 -0.00000000000E+00 -0.32864753256E+02  0.32864753256E+02  0.00000000000E+00 0.  1.
         25    2    1    2    0    0  0.86584798264E+02 -0.84791711325E+01  0.33880161900E+03  0.37148717464E+03  0.12508940903E+03 0.  0.
          5    1    3    3  502    0  0.29389361670E+02  0.48474195708E+02  0.22392538334E+03  0.23102712380E+03  0.41800000000E+01 0.  1.
         -5    1    3    3    0  502  0.57195436595E+02 -0.56953366840E+02  0.11487623566E+03  0.14046005083E+03  0.41800000000E+01 0.  1.
        -11    1    1    2    0    0 -0.26888551943E+02  0.14245297899E+02  0.62399648097E+01  0.31062194042E+02  0.00000000000E+00 0.  1.
         11    1    1    2    0    0 -0.59696246321E+02 -0.57661267670E+01  0.21463225650E+03  0.22285397814E+03  0.00000000000E+00 0. -1.
</event>
<event>
 7    1  0.2556591E-009  0.1435354E+03  0.7561462E-02  0.1208649E+00
         -1   -1    0    0    0  501 -0.00000000000E+00  0.00000000000E+00  0.34050567371E+02  0.34050567371E+02  0.00000000000E+00 0.  1.
          1   -1    0    0  501    0  0.00000000000E+00 -0.00000000000E+00 -0.87192056150E+03  0.87192056150E+03  0.00000000000E+00 0. -1.
         25    2    1    2    0    0 -0.24944428661E+02 -0.12946124755E+03 -0.51279433406E+03  0.54404741732E+03  0.12508846515E+03 0.  0.
          5    1    3    3  502    0 -0.51411729550E+02 -0.10809440495E+03 -0.48601170658E+03  0.50055211282E+03  0.41800000000E+01 0. -1.
         -5    1    3    3    0  502  0.26467300889E+02 -0.21366842600E+02 -0.26782627480E+02  0.43495304502E+02  0.41800000000E+01 0. -1.
        -11    1    1    2    0    0  0.36926304189E+01  0.66004344379E+02 -0.26111266661E+03  0.26935113450E+03  0.00000000000E+00 0. -1.
         11    1    1    2    0    0  0.21251798242E+02  0.63456903169E+02 -0.63962993472E+02  0.92572577053E+02  0.00000000000E+00 0.  1.
</event>
<event>
 7    1  0.2556591E-009  0.9271579E+02  0.7561462E-02  0.1296405E+00
          1   -1    0    0  501    0  0.00000000000E+00  0.00000000000E+00  0.12742179656E+03  0.12742179656E+03  0.00000000000E+00 0. -1.
         -1   -1    0    0    0  501 -0.00000000000E+00 -0.00000000000E+00 -0.10333723655E+03  0.10333723655E+03  0.00000000000E+00 0.  1.
         25    2    1    2    0    0 -0.34005279678E+00 -0.15442766879E+02  0.54456772275E+02  0.13731419658E+03  0.12510417200E+03 0.  0.
          5    1    3    3  502    0  0.15590896021E+02 -0.55656456246E+02 -0.10765161790E+02  0.58941312073E+02  0.41800000000E+01 0. -1.
         -5    1    3    3    0  502 -0.15930948818E+02  0.40213689367E+02  0.65221934065E+02  0.78372884507E+02  0.41800000000E+01 0. -1.
        -11    1    1    2    0    0 -0.81075402877E+01  0.48875003217E+02 -0.31905849273E+02  0.58927763973E+02  0.00000000000E+00 0.  1.
         11    1    1    2    0    0  0.84475930845E+01 -0.33432236338E+02  0.15336370016E+01  0.34517072558E+02  0.00000000000E+00 0. -1.
</event>
<event>
 7    1  0.2556591E-009  0.7458506E+02  0.7561462E-02  0.1345161E+00
          1   -1    0    0  501    0  0.00000000000E+00  0.00000000000E+00  0.16808282624E+02  0.16808282624E+02  0.00000000000E+00 0. -1.
         -1   -1    0    0    0  501 -0.00000000000E+00 -0.00000000000E+00 -0.82146328232E+03  0.82146328232E+03  0.00000000000E+00 0.  1.
         25    2    1    2    0    0  0.69149281074E+01  0.21340958894E+02 -0.54740365058E+03  0.56196252301E+03  0.12509143793E+03 0.  0.
          5    1    3    3  502    0  0.72639969173E+01 -0.13903422578E+02 -0.51050900868E+03  0.51076706154E+03  0.41800000000E+01 0.  1.
         -5    1    3    3    0  502 -0.34906880988E+00  0.35244381472E+02 -0.36894641899E+02  0.51195461471E+02  0.41800000000E+01 0.  1.
        -11    1    1    2    0    0 -0.17509788248E+02  0.35521112693E+02 -0.71181184713E+02  0.81456142731E+02  0.00000000000E+00 0. -1.
         11    1    1    2    0    0  0.10594860141E+02 -0.56862071587E+02 -0.18607016440E+03  0.19485289920E+03  0.00000000000E+00 0.  1.
</event>
<event>
 7    1  0.2556591E-009  0.1184810E+03  0.7561462E-02  0.1245624E+00
         -2   -1    0    0    0  501 -0.00000000000E+00  0.00000000000E+00  0.34844773306E+02  0.34844773306E+02  0.00000000000E+00 0.  1.
          2   -1    0    0  501    0  0.00000000000E+00 -0.00000000000E+00 -0.48699544908E+03  0.48699544908E+03  0.00000000000E+00 0. -1.
         25    2    1    2    0    0 -0.67177289968E+02 -0.56389179252E+01 -0.19459763312E+03  0.24095577491E+03  0.12508741329E+03 0.  0.
          5    1    3    3  502    0 -0.70507125398E+02 -0.46045836530E+02 -0.17797697652E+03  0.19693844309E+03  0.41800000000E+01 0. -1.
         -5    1    3    3    0  502  0.33298354300E+01  0.40406918605E+02 -0.16620656599E+02  0.44017331824E+02  0.41800000000E+01 0. -1.
        -11    1    1    2    0    0  0.16630200856E+02  0.44902795338E+02 -0.11845859364E+03  0.12777035265E+03  0.00000000000E+00 0.  1.
         11    1    1    2    0    0  0.50547089112E+02 -0.39263877413E+02 -0.13909444901E+03  0.15311409482E+03  0.00000000000E+00 0. -1.
</event>
<event>
 7    1  0.2556591E-009  0.5731203E+02  0.7561462E-02  0.1409471E+00
          1   -1    0    0  501    0  0.00000000000E+00  0.00000000000E+00  0.20602852520E+03  0.20602852520E+03  0.00000000000E+00 0. -1.
         -1   -1    0    0    0  501 -0.00000000000E+00 -0.00000000000E+00 -0.78806986139E+02  0.78806986139E+02  0.00000000000E+00 0.  1.
         25    2    1    2    0    0 -0.13930854302E+02  0.24106232117E+02  0.13851627650E+03  0.18870339044E+03  0.12508809527E+03 0.  0.
          5    1    3    3  502    0 -0.21600497248E+02  0.75995005458E+01 -0.19022856864E+02  0.30061193808E+02  0.41800000000E+01 0.  1.
         -5    1    3    3    0  502  0.76696429469E+01  0.16506731571E+02  0.15753913337E+03  0.15864219663E+03  0.41800000000E+01 0.  1.
        -11    1    1    2    0    0  0.32163924471E+02  0.10266543492E+02  0.25708929501E+02  0.42436647001E+02  0.00000000000E+00 0. -1.
         11    1    1    2    0    0 -0.18233070169E+02 -0.34372775609E+02 -0.37003666938E+02  0.53695473903E+02  0.00000000000E+00 0.  1.
</event>
<event>
 7    1  0.2556591E-009  0.1516981E+03  0.7561462E-02  0.1198402E+00
          2   -1    0    0  501    0  0.00000000000E+00  0.00000000000E+00  0.28766518015E+02  0.28766518015E+02  0.00000000000E+00 0. -1.
         -2   -1    0    0    0  501 -0.00000000000E+00 -0.00000000000E+00 -0.11754901999E+04  0.11754901999E+04  0.00000000000E+00 0.  1.
         25    2    1    2    0    0 -0.96507837748E+02  0.74364270359E+02 -0.87905065661E+03  0.89622614065E+03  0.12508969117E+03 0.  0.
          5    1    3    3  502    0  0.17114547355E+02  0.55936872028E+01 -0.21121517199E+02  0.28067560572E+02  0.41800000000E+01 0. -1.
         -5    1    3    3    0  502 -0.11362238510E+03  0.68770583156E+02 -0.85792913941E+03  0.86815858008E+03  0.41800000000E+01 0. -1.
        -11    1    1    2    0    0  0.79644671403E+02 -0.40749802366E+01 -0.12931627537E+03  0.15192951729E+03  0.00000000000E+00 0. -1.
         11    1    1    2    0    0  0.16863166345E+02 -0.70289290122E+02 -0.13835674993E+03  0.15610106001E+03  0.00000000000E+00 0.  1.
</event>
<event>
 7    1  0.2556591E-009  0.1120950E+03  0.7561462E-02  0.1256739E+00
          2   -1    0    0  501    0  0.00000000000E+00  0.00000000000E+00  0.39627389381E+03  0.39627389381E+03  0.00000000000E+00 0. -1.
         -2   -1    0    0    0  501 -0.00000000000E+00 -0.00000000000E+00 -0.47330791593E+02  0.47330791593E+02  0.00000000000E+00 0.  1.
         25    2    1    2    0    0 -0.37023547542E+02  0.53324829313E+02  0.27452933027E+03  0.30859130189E+03  0.12509179803E+03 0.  0.
          5    1    3    3  502    0  0.13802297834E+02 -0.21997278708E+02  0.16091042423E+03  0.16304606932E+03  0.41800000000E+01 0. -1.
         -5    1    3    3    0  502 -0.50825845376E+02  0.75322108021E+02  0.11361890604E+03  0.14554523257E+03  0.41800000000E+01 0. -1.
        -11    1    1    2    0    0  0.48277655927E+01 -0.70342449716E+02  0.27633479869E+02  0.75729629356E+02  0.00000000000E+00 0.  1.
         11    1    1    2    0    0  0.32195781949E+02  0.17017620403E+02  0.46780292085E+02  0.59283754158E+02  0.00000000000E+00 0. -1.
</event>
<event>
 7    1  0.2556591E-009  0.1253903E+03  0.7561462E-02  0.1234461E+00
          2   -1    0    0  501    0  0.00000000000E+00  0.00000000000E+00  0.50318765529E+03  0.50318765529E+03  0.00000000000E+00 0. -1.
         -2   -1    0    0    0  501 -0.00000000000E+00 -0.00000000000E+00 -0.36547827444E+02  0.36547827444E+02  0.00000000000E+00 0.  1.
         25    2    1    2    0    0  0.17589220273E+02 -0.60428425434E+02  0.34622534231E+03  0.37347076659E+03  0.12508977004E+03 0.  0.
          5    1    3    3  502    0  0.40806305257E+02 -0.90538537773E+02  0.21656702409E+03  0.23828791345E+03  0.41800000000E+01 0.  1.
         -5    1    3    3    0  502 -0.23217084984E+02  0.30110112338E+02  0.12965831822E+03  0.13518285314E+03  0.41800000000E+01 0.  1.
        -11    1    1    2    0    0 -0.53302272795E+02  0.55721596976E+02  0.94079735282E+02  0.12164302383E+03  0.00000000000E+00 0. -1.
         11    1    1    2    0    0  0.35713052522E+02  0.47068284579E+01  0.26334750252E+02  0.44621692319E+02  0.00000000000E+00 0.  1.
</event>
<event>
 7    1  0.2556591E-009  0.1153663E+03  0.7561462E-02  0.1250943E+00
          1   -1    0    0  501    0  0.00000000000E+00  0.00000000000E+00  0.20222853719E+03  0.20222853719E+03  0.00000000000E+00 0. -1.
         -1   -1    0    0    0  501 -0.00000000000E+00 -0.00000000000E+00 -0.10716943412E+03  0.10716943412E+03  0.00000000000E+00 0.  1.
         25    2    1    2    0    0 -0.43853665871E+02  0.66797024958E+02 -0.10187637509E+02  0.14878134930E+03  0.12508843027E+03 0.  0.
          5    1    3    3  502    0 -0.64452162018E+02  0.30243983530E+02  0.41157377129E+02  0.82341859468E+02  0.41800000000E+01 0. -1.
         -5    1    3    3    0  502  0.20598496146E+02  0.36553041428E+02 -0.51345014638E+02  0.66439489833E+02  0.41800000000E+01 0. -1.
        -11    1    1    2    0    0  0.64845936437E+02 -0.70659459047E+02  0.67583357759E+02  0.11732546557E+03  0.00000000000E+00 0.  1.
         11    1    1    2    0    0 -0.20992270566E+02  0.38624340889E+01  0.37663382813E+02  0.43291156436E+02  0.00000000000E+00 0. -1.
</event>
<event>
 7    1  0.2556591E-009  0.9593989E+02  0.7561462E-02  0.1289073E+00
         -2   -1    0    0    0  501 -0.00000000000E+00  0.00000000000E+00  0.16689262533E+03  0.16689262533E+03  0.00000000000E+00 0.  1.
          2   -1    0    0  501    0  0.00000000000E+00 -0.00000000000E+00 -0.74522850747E+02  0.74522850747E+02  0.00000000000E+00 0. -1.
         25    2    1    2    0    0 -0.20952846120E+02 -0.18749452927E+02  0.75883712258E+02  0.14898537255E+03  0.12509092574E+03 0.  0.
          5    1    3    3  502    0 -0.71384705297E+02 -0.23398240431E+02  0.58402395432E+02  0.95244768874E+02  0.41800000000E+01 0. -1.
         -5    1    3    3    0  502  0.50431859177E+02  0.46487875047E+01  0.17481316826E+02  0.53740603675E+02  0.41800000000E+01 0. -1.
        -11    1    1    2    0    0 -0.20737156422E+02  0.10807311584E+02  0.38176193104E+02  0.44768843631E+02  0.00000000000E+00 0.  1.
         11    1    1    2    0    0  0.41690002542E+02  0.79421413428E+01 -0.21690130784E+02  0.47661259892E+02  0.00000000000E+00 0. -1.
</event>
<event>
 7    1  0.2556591E-009  0.1217476E+03  0.7561462E-02  0.1240242E+00
          1   -1    0    0  501    0  0.00000000000E+00  0.00000000000E+00  0.18016360863E+03  0.18016360863E+03  0.00000000000E+00 0. -1.
         -1   -1    0    0    0  501 -0.00000000000E+00 -0.00000000000E+00 -0.93845801835E+02  0.93845801835E+02  0.00000000000E+00 0.  1.
         25    2    1    2    0    0  0.44213836883E+02  0.45011891343E+02  0.79715280579E+02  0.16119317281E+03  0.12509108389E+03 0.  0.
          5    1    3    3  502    0  0.46423078683E+02 -0.36005800439E+02  0.31427164733E+02  0.66758212849E+02  0.41800000000E+01 0.  1.
         -5    1    3    3    0  502 -0.22092418002E+01  0.81017691782E+02  0.48288115846E+02  0.94434959962E+02  0.41800000000E+01 0.  1.
        -11    1    1    2    0    0 -0.51025283967E+02  0.65389247288E+01 -0.19021503952E+02  0.54846647601E+02  0.00000000000E+00 0. -1.
         11    1    1    2    0    0  0.68114470840E+01 -0.51550816072E+02  0.25624030172E+02  0.57969590056E+02  0.00000000000E+00 0.  1.
</event>
<event>
 7    1  0.2556591E-009  0.1639152E+03  0.7561462E-02  0.1184346E+00
         -2   -1    0    0    0  501 -0.00000000000E+00  0.00000000000E+00  0.26013971718E+02  0.26013971718E+02  0.00000000000E+00 0.  1.
          2   -1    0    0  501    0  0.00000000000E+00 -0.00000000000E+00 -0.12751013476E+04  0.12751013476E+04  0.00000000000E+00 0. -1.
         25    2    1    2    0    0  0.11264299765E+03 -0.50304873376E+02 -0.38454737279E+03  0.42277783517E+03  0.12508153654E+03 0.  0.
          5    1    3    3  502    0  0.13140817868E+03 -0.66844727513E+02 -0.35095031751E+03  0.38068349686E+03  0.41800000000E+01 0.  1.
         -5    1    3    3    0  502 -0.18765181031E+02  0.16539854137E+02 -0.33597055282E+02  0.42094338309E+02  0.41800000000E+01 0.  1.
        -11    1    1    2    0    0 -0.27144829758E+02 -0.28030180173E+02 -0.20465041088E+03  0.20833704293E+03  0.00000000000E+00 0. -1.
         11    1    1    2    0    0 -0.85498167894E+02  0.78335053549E+02 -0.65988959223E+03  0.67000044124E+03  0.00000000000E+00 0.  1.
</event>
<event>
 7    1  0.2556591E-009  0.9830198E+02  0.7561462E-02  0.1283908E+00
         -2   -1    0    0    0  501 -0.00000000000E+00  0.00000000000E+00  0.24438143804E+03  0.24438143804E+03  0.00000000000E+00 0.  1.
          2   -1    0    0  501    0  0.00000000000E+00 -0.00000000000E+00 -0.91256261366E+02  0.91256261366E+02  0.00000000000E+00 0. -1.
         25    2    1    2    0    0  0.53115935282E+02 -0.58793844158E+02  0.13843261323E+02  0.14871635356E+03  0.12508756629E+03 0.  0.
          5    1    3    3  502    0  0.37985346935E+01  0.19375023521E+01 -0.48330888192E+02  0.48698356590E+02  0.41800000000E+01 0.  1.
         -5    1    3    3    0  502  0.49317400588E+02 -0.60731346510E+02  0.62174149515E+02  0.10001799697E+03  0.41800000000E+01 0.  1.
        -11    1    1    2    0    0 -0.19989629749E+02 -0.19096697755E+02  0.77062266152E+02  0.81871008466E+02  0.00000000000E+00 0.  1.
         11    1    1    2    0    0 -0.33126305532E+02  0.77890541913E+02  0.62219649202E+02  0.10505033738E+03  0.00000000000E+00 0. -1.
</event>
<event>
 7    1  0.2556591E-009  0.1023863E+03  0.7561462E-02  0.1275356E+00
          2   -1    0    0  501    0  0.00000000000E+00  0.00000000000E+00  0.19134726276E+03  0.19134726276E+03  0.00000000000E+00 0. -1.
         -2   -1    0    0    0  501 -0.00000000000E+00 -0.00000000000E+00 -0.93960712297E+02  0.93960712297E+02  0.00000000000E+00 0.  1.
         25    2    1    2    0    0  0.44533786951E+02  0.30662569774E+02  0.11315973764E+03  0.17713334712E+03  0.12509054750E+03 0.  0.
          5    1    3    3  502    0  0.63303127247E+02 -0.30445991831E+02  0.44654533722E+02  0.83341131020E+02  0.41800000000E+01 0. -1.
         -5    1    3    3    0  502 -0.18769340296E+02  0.61108561606E+02  0.68505203917E+02  0.93792216097E+02  0.41800000000E+01 0. -1.
        -11    1    1    2    0    0 -0.15229280475E+02 -0.37304830734E+02  0.32192399784E+02  0.51574528439E+02  0.00000000000E+00 0. -1.
         11    1    1    2    0    0 -0.29304506476E+02  0.66422609596E+01 -0.47965586963E+02  0.56600099498E+02  0.00000000000E+00 0.  1.
</event>
<event>
 7    1  0.2556591E-009  0.1168523E+03  0.7561462E-02  0.1248382E+00
         -1   -1    0    0    0  501 -0.00000000000E+00  0.00000000000E+00  0.31649387216E+03  0.31649387216E+03  0.00000000000E+00 0.  1.
          1   -1    0    0  501    0  0.00000000000E+00 -0.00000000000E+00 -0.95169326234E+02  0.95169326234E+02  0.00000000000E+00 0. -1.
         25    2    1    2    0    0 -0.77839290580E+02 -0.17608412368E+02  0.24679672223E+03  0.28796683078E+03  0.12508901702E+03 0.  0.
          5    1    3    3  502    0 -0.81006313017E+02 -0.56073519621E+02  0.21913278701E+03  0.24029755116E+03  0.41800000000E+01 0. -1.
         -5    1    3    3    0  502  0.31670224373E+01  0.38465107253E+02  0.27663935226E+02  0.47669279618E+02  0.41800000000E+01 0. -1.
        -11    1    1    2    0    0  0.52526491792E+02 -0.15344410811E+02 -0.51104134336E+02  0.74873999689E+02  0.00000000000E+00 0. -1.
         11    1    1    2    0    0  0.25312798788E+02  0.32952823179E+02  0.25631958033E+02  0.48822367933E+02  0.00000000000E+00 0.  1.
</event>
<event>
 7    1  0.2556591E-009  0.1186834E+03  0.7561462E-02  0.1245285E+00
         -2   -1    0    0    0  501 -0.00000000000E+00  0.00000000000E+00  0.19467705467E+02  0.19467705467E+02  0.00000000000E+00 0.  1.
          2   -1    0    0  501    0  0.00000000000E+00 -0.00000000000E+00 -0.82461545014E+03  0.82461545014E+03  0.00000000000E+00 0. -1.
         25    2    1    2    0    0 -0.44687165671E+02 -0.33132962665E+02 -0.32765166273E+03  0.35510286317E+03  0.12509074849E+03 0.  0.
          5    1    3    3  502    0 -0.71038358594E+02 -0.61138244786E+02 -0.26857673321E+03  0.28449124308E+03  0.41800000000E+01 0. -1.
         -5    1    3    3    0  502  0.26351192923E+02  0.28005282120E+02 -0.59074929513E+02  0.70611620092E+02  0.41800000000E+01 0. -1.
        -11    1    1    2    0    0  0.43529187989E+02 -0.22652946186E+02 -0.20021065914E+03  0.20613649413E+03  0.00000000000E+00 0.  1.
         11    1    1    2    0    0  0.11579776818E+01  0.55785908852E+02 -0.27728542280E+03  0.28284379830E+03  0.00000000000E+00 0. -1.
</event>
<event>
 7    1  0.2556591E-009  0.1272957E+03  0.7561462E-02  0.1231525E+00
          1   -1    0    0  501    0  0.00000000000E+00  0.00000000000E+00  0.70269102833E+02  0.70269102833E+02  0.00000000000E+00 0. -1.
         -1   -1    0    0    0  501 -0.00000000000E+00 -0.00000000000E+00 -0.35509868107E+03  0.35509868107E+03  0.00000000000E+00 0.  1.
         25    2    1    2    0    0  0.11311738306E+03  0.25978457906E+01 -0.13232584730E+03  0.21438101749E+03  0.12508716819E+03 0.  0.
          5    1    3    3  502    0  0.28555733138E+02 -0.96033767514E+01 -0.12486565818E+03  0.12851676830E+03  0.41800000000E+01 0.  1.
         -5    1    3    3    0  502  0.84561649921E+02  0.12201222542E+02 -0.74601891148E+01  0.85864249199E+02  0.41800000000E+01 0.  1.
        -11    1    1    2    0    0 -0.98506762121E+02  0.29949945509E+02 -0.13868900808E+03  0.17272875378E+03  0.00000000000E+00 0.  1.
         11    1    1    2    0    0 -0.14610620938E+02 -0.32547791299E+02 -0.13814722859E+02  0.38258012629E+02  0.00000000000E+00 0. -1.
</event>
<event>
 7    1  0.2556591E-009  0.9386164E+02  0.7561462E-02  0.1293761E+00
          2   -1    0    0  501    0  0.00000000000E+00  0.00000000000E+00  0.15870210401E+02  0.15870210401E+02  0.00000000000E+00 0. -1.
         -2   -1    0    0    0  501 -0.00000000000E+00 -0.00000000000E+00 -0.85530786704E+03  0.85530786704E+03  0.00000000000E+00 0.  1.
         25    2    1    2    0    0  0.20888026431E+02 -0.31715704841E+02 -0.54590195978E+03  0.56133628688E+03  0.12508909504E+03 0.  0.
          5    1    3    3  502    0  0.45188118148E+02  0.62398424153E+01 -0.47510174544E+03  0.47730497857E+03  0.41800000000E+01 0. -1.
         -5    1    3    3    0  502 -0.24300091717E+02 -0.37955547257E+02 -0.70800214342E+02  0.84031308307E+02  0.41800000000E+01 0. -1.
        -11    1    1    2    0    0 -0.35743511609E+02 -0.21291485825E+02 -0.16187168931E+03  0.16713279089E+03  0.00000000000E+00 0. -1.
         11    1    1    2    0    0  0.14855485178E+02  0.53007190666E+02 -0.13166400755E+03  0.14270899967E+03  0.00000000000E+00 0.  1.
</event>
<event>
 7    1  0.2556591E-009  0.9139012E+02  0.7561462E-02  0.1299520E+00
          2   -1    0    0  501    0  0.00000000000E+00  0.00000000000E+00  0.66751545641E+02  0.66751545641E+02  0.00000000000E+00 0. -1.
         -2   -1    0    0    0  501 -0.00000000000E+00 -0.00000000000E+00 -0.21309059980E+03  0.21309059980E+03  0.00000000000E+00 0.  1.
         25    2    1    2    0    0  0.12071726688E+02 -0.28526264741E+02 -0.35132336333E+02  0.13356940683E+03  0.12508809304E+03 0.  0.
          5    1    3    3  502    0 -0.43540208980E+02 -0.28444790884E+01  0.22578668906E+02  0.49306283057E+02  0.41800000000E+01 0.  1.
         -5    1    3    3    0  502  0.55611935669E+02 -0.25681785652E+02 -0.57711005239E+02  0.84263123778E+02  0.41800000000E+01 0.  1.
        -11    1    1    2    0    0  0.45217574367E+01  0.50116060931E+02 -0.25635218944E+02  0.56473270703E+02  0.00000000000E+00 0.  1.
         11    1    1    2    0    0 -0.16593484125E+02 -0.21589796191E+02 -0.85571498881E+02  0.89799467903E+02  0.00000000000E+00 0. -1.
</event>
<event>
 7    1  0.2556591E-009  0.1084461E+03  0.7561462E-02  0.1263475E+00
          1   -1    0    0  501    0  0.00000000000E+00  0.00000000000E+00  0.88676361735E+03  0.88676361735E+03  0.00000000000E+00 0. -1.
         -1   -1    0    0    0  501 -0.00000000000E+00 -0.00000000000E+00 -0.17650828616E+02  0.17650828616E+02  0.00000000000E+00 0.  1.
         25    2    1    2    0    0 -0.31904142127E+02 -0.53127946553E+02  0.50267021687E+03  0.52169452824E+03  0.12508949148E+03 0.  0.
          5    1    3    3  502    0  0.34006295259E+02 -0.12743688391E+02  0.33532729015E+03  0.33731393927E+03  0.41800000000E+01 0.  1.
         -5    1    3    3    0  502 -0.65910437386E+02 -0.40384258162E+02  0.16734292672E+03  0.18438058896E+03  0.41800000000E+01 0.  1.
        -11    1    1    2    0    0 -0.15825549244E+02  0.52877377565E+02  0.12559049958E+03  0.13718395916E+03  0.00000000000E+00 0.  1.
         11    1    1    2    0    0  0.47729691371E+02  0.25056898790E+00  0.24085207229E+03  0.24553595856E+03  0.00000000000E+00 0. -1.
</event>
<event>
 7    1  0.2556591E-009  0.1082692E+03  0.7561462E-02  0.1263809E+00
         -2   -1    0    0    0  501 -0.00000000000E+00  0.00000000000E+00  0.66026023776E+03  0.66026023776E+03  0.00000000000E+00 0.  1.
          2   -1    0    0  501    0  0.00000000000E+00 -0.00000000000E+00 -0.19631851819E+02  0.19631851819E+02  0.00000000000E+00 0. -1.
         25    2    1    2    0    0 -0.23364098086E+02 -0.18213031258E+02  0.43540962321E+03  0.45399105166E+03  0.12509492164E+03 0.  0.
          5    1    3    3  502    0  0.94927865151E+01 -0.64577129705E+02  0.16195592092E+03  0.17466399571E+03  0.41800000000E+01 0.  1.
         -5    1    3    3    0  502 -0.32856884601E+02  0.46364098447E+02  0.27345370229E+03  0.27932705595E+03  0.41800000000E+01 0.  1.
        -11    1    1    2    0    0  0.31179808492E+02 -0.31210309167E+02  0.87621321576E+02  0.98100763762E+02  0.00000000000E+00 0.  1.
         11    1    1    2    0    0 -0.78157104059E+01  0.49423340424E+02  0.11759744116E+03  0.12780027416E+03  0.00000000000E+00 0. -1.
</event>
<event>
 7    1  0.2556591E-009  0.1259724E+03  0.7561462E-02  0.1233557E+00
         -2   -1    0    0    0  501 -0.00000000000E+00  0.00000000000E+00  0.47713581864E+03  0.47713581864E+03  0.00000000000E+00 0.  1.
          2   -1    0    0  501    0  0.00000000000E+00 -0.00000000000E+00 -0.89420902473E+02  0.89420902473E+02  0.00000000000E+00 0. -1.
         25    2    1    2    0    0  0.40175260408E+02  0.11787304713E+03  0.32907681892E+02  0.17954974528E+03  0.12508832365E+03 0.  0.
          5    1    3    3  502    0 -0.19946936913E+01  0.23527972606E+02 -0.44375093644E+02  0.50439722777E+02  0.41800000000E+01 0.  1.
         -5    1    3    3    0  502  0.42169954100E+02  0.94345074521E+02  0.77282775536E+02  0.12911002250E+03  0.41800000000E+01 0.  1.
        -11    1    1    2    0    0 -0.18586375422E+02 -0.56802385134E+02  0.28729715990E+03  0.29344781887E+03  0.00000000000E+00 0.  1.
         11    1    1    2    0    0 -0.21588884986E+02 -0.61070661993E+02  0.67510074367E+02  0.93559156967E+02  0.00000000000E+00 0. -1.
</event>
<event>
 7    1  0.2556591E-009  0.9203182E+02  0.7561462E-02  0.1298005E+00
          2   -1    0    0  501    0  0.00000000000E+00  0.00000000000E+00  0.10321128081E+03  0.10321128081E+03  0.00000000000E+00 0. -1.
         -2   -1    0    0    0  501 -0.00000000000E+00 -0.00000000000E+00 -0.13099896049E+03  0.13099896049E+03  0.00000000000E+00 0.  1.
         25    2    1    2    0    0 -0.42131860350E+02 -0.13356801976E+02 -0.11322139213E+02  0.13315130496E+03  0.12509029283E+03 0.  0.
          5    1    3    3  502    0 -0.18687453851E+02  0.32636779826E+02  0.43552312819E+02  0.57694511704E+02  0.41800000000E+01 0. -1.
         -5    1    3    3    0  502 -0.23444406499E+02 -0.45993581802E+02 -0.54874452032E+02  0.75456793259E+02  0.41800000000E+01 0. -1.
        -11    1    1    2    0    0 -0.13291467658E+02 -0.24110365553E+02 -0.20057995299E+02  0.34063118105E+02  0.00000000000E+00 0.  1.
         11    1    1    2    0    0  0.55423328008E+02  0.37467167529E+02  0.35924548308E+01  0.66995818242E+02  0.00000000000E+00 0. -1.
</event>
<event>
 7    1  0.2556591E-009  0.8665840E+02  0.7561462E-02  0.1311152E+00
         -4   -1    0    0    0  501 -0.00000000000E+00  0.00000000000E+00  0.12687169366E+03  0.12687169366E+03  0.00000000000E+00 0.  1.
          4   -1    0    0  501    0  0.00000000000E+00 -0.00000000000E+00 -0.16206271651E+03  0.16206271651E+03  0.00000000000E+00 0. -1.
         25    2    1    2    0    0 -0.68405821765E+02 -0.11177949917E+02 -0.91346871832E+02  0.16969065881E+03  0.12508543352E+03 0.  0.
          5    1    3    3  502    0 -0.33539879377E+02 -0.18213783506E+00  0.28568893051E+02  0.44256194289E+02  0.41800000000E+01 0.  1.
         -5    1    3    3    0  502 -0.34865942388E+02 -0.10995812082E+02 -0.11991576488E+03  0.12543446452E+03  0.41800000000E+01 0.  1.
        -11    1    1    2    0    0  0.48282767637E+02  0.43274121822E+02  0.22680275401E+02  0.68689665616E+02  0.00000000000E+00 0. -1.
         11    1    1    2    0    0  0.20123054128E+02 -0.32096171905E+02  0.33475573590E+02  0.50554085745E+02  0.00000000000E+00 0.  1.
</event>
<event>
 7    1  0.2556591E-009  0.1159976E+03  0.7561462E-02  0.1249850E+00
         -1   -1    0    0    0  501 -0.00000000000E+00  0.00000000000E+00  0.44616363777E+02  0.44616363777E+02  0.00000000000E+00 0.  1.
          1   -1    0    0  501    0  0.00000000000E+00 -0.00000000000E+00 -0.41220347474E+03  0.41220347474E+03  0.00000000000E+00 0. -1.
         25    2    1    2    0    0 -0.10542590190E+02 -0.78455189737E+02 -0.23636219299E+03  0.27889242607E+03  0.12509011167E+03 0.  0.
          5    1    3    3  502    0 -0.39396582807E+02 -0.14862425377E+02 -0.12155668487E+02  0.44025164410E+02  0.41800000000E+01 0. -1.
         -5    1    3    3    0  502  0.28853992617E+02 -0.63592764360E+02 -0.22420652450E+03  0.23486726166E+03  0.41800000000E+01 0. -1.
        -11    1    1    2    0    0  0.43404239813E+02  0.11132768313E+02 -0.56556455668E+02  0.72156075571E+02  0.00000000000E+00 0.  1.
         11    1    1    2    0    0 -0.32861649623E+02  0.67322421424E+02 -0.74668462311E+02  0.10577133688E+03  0.00000000000E+00 0. -1.
</event>
<event>
 7    1  0.2556591E-009  0.1056204E+03  0.7561462E-02  0.1268902E+00
          2   -1    0    0  501    0  0.00000000000E+00  0.00000000000E+00  0.26203063927E+03  0.26203063927E+03  0.00000000000E+00 0. -1.
         -2   -1    0    0    0  501 -0.00000000000E+00 -0.00000000000E+00 -0.47863171716E+02  0.47863171716E+02  0.00000000000E+00 0.  1.
         25    2    1    2    0    0  0.12885836677E+02  0.10352146637E+02  0.87673224476E+02  0.15364695480E+03  0.12509029021E+03 0.  0.
          5    1    3    3  502    0 -0.49665459421E+02 -0.15248698652E+02  0.14830408728E+02  0.54190350554E+02  0.41800000000E+01 0.  1.
         -5    1    3    3    0  502  0.62551296098E+02  0.25600845289E+02  0.72842815748E+02  0.99456604251E+02  0.41800000000E+01 0.  1.
        -11    1    1    2    0    0 -0.43557385484E+02 -0.31839207577E+02  0.68216573309E+02  0.86974029706E+02  0.00000000000E+00 0. -1.
         11    1    1    2    0    0  0.30671548807E+02  0.21487060940E+02  0.58277669769E+02  0.69272826474E+02  0.00000000000E+00 0.  1.
</event>
<event>
 7    1  0.2971676E-009  0.1293672E+03  0.7561462E-02  0.1228398E+00
         -1   -1    0    0    0  501 -0.00000000000E+00  0.00000000000E+00  0.20334664743E+02  0.20334664743E+02  0.00000000000E+00 0.  1.
          1   -1    0    0  501    0  0.00000000000E+00 -0.00000000000E+00 -0.10376782788E+04  0.10376782788E+04  0.00000000000E+00 0. -1.
         25    2    1    2    0    0 -0.49662842369E+02  0.60869432581E+02 -0.75746899343E+03  0.77173868733E+03  0.12509931968E+03 0.  0.
          5    1    3    3  502    0  0.29174215157E+02 -0.13391102601E+02 -0.92647558638E+02  0.98140200634E+02  0.41800000000E+01 0. -1.
         -5    1    3    3    0  502 -0.78837057526E+02  0.74260535182E+02 -0.66482143479E+03  0.67359848670E+03  0.41800000000E+01 0. -1.
        -11    1    1    2    0    0  0.41664051675E+02  0.13024030725E+02 -0.71567981251E+02  0.83830152801E+02  0.00000000000E+00 0.  1.
         11    1    1    2    0    0  0.79987906942E+01 -0.73893463306E+02 -0.18830663937E+03  0.20244410340E+03  0.00000000000E+00 0. -1.
</event>
<event>
 7    1  0.2556591E-009  0.1287423E+03  0.7561462E-02  0.1229334E+00
         -1   -1    0    0    0  501 -0.00000000000E+00  0.00000000000E+00  0.36498352459E+02  0.36498352459E+02  0.00000000000E+00 0.  1.
          1   -1    0    0  501    0  0.00000000000E+00 -0.00000000000E+00 -0.58524460304E+03  0.58524460304E+03  0.00000000000E+00 0. -1.
         25    2    1    2    0    0 -0.18412663136E+01 -0.96782418195E+02 -0.26325280377E+03  0.30711507361E+03  0.12508957995E+03 0.  0.
          5    1    3    3  502    0 -0.21270661808E+02 -0.11540619677E+03 -0.14925808524E+03  0.18991176824E+03  0.41800000000E+01 0.  1.
         -5    1    3    3    0  502  0.19429395494E+02  0.18623778572E+02 -0.11399471853E+03  0.11720330537E+03  0.41800000000E+01 0.  1.
        -11    1    1    2    0    0  0.29726468177E+02  0.43520757926E+02 -0.54006371159E+02  0.75461297408E+02  0.00000000000E+00 0.  1.
         11    1    1    2    0    0 -0.27885201864E+02  0.53261660269E+02 -0.23148707566E+03  0.23916658448E+03  0.00000000000E+00 0. -1.
</event>
<event>
 7    1  0.2556591E-009  0.1725535E+03  0.7561462E-02  0.1175211E+00
          2   -1    0    0  501    0  0.00000000000E+00  0.00000000000E+00  0.43976019771E+03  0.43976019771E+03  0.00000000000E+00 0.  1.
         -2   -1    0    0    0  501 -0.00000000000E+00 -0.00000000000E+00 -0.97068138547E+02  0.97068138547E+02  0.00000000000E+00 0. -1.
         25    2    1    2    0    0 -0.30377691892E+02  0.16370585075E+03  0.24114682665E+03  0.31861866525E+03  0.12507458619E+03 0.  0.
          5    1    3    3  502    0 -0.30414403993E+02  0.12410876491E+03  0.24723817942E+03  0.27833830362E+03  0.41800000000E+01 0.  1.
         -5    1    3    3    0  502  0.36712101549E-01  0.39597085838E+02 -0.60913527738E+01  0.40280361632E+02  0.41800000000E+01 0.  1.
        -11    1    1    2    0    0  0.44575972915E+02 -0.72290999775E+02  0.91999667079E+02  0.12520760661E+03  0.00000000000E+00 0.  1.
         11    1    1    2    0    0 -0.14198281024E+02 -0.91414850975E+02  0.95455654373E+01  0.93002064398E+02  0.00000000000E+00 0. -1.
</event>
<event>
 7    1  0.2556591E-009  0.1144639E+03  0.7561462E-02  0.1252520E+00
          3   -1    0    0  501    0  0.00000000000E+00  0.00000000000E+00  0.22402626304E+03  0.22402626304E+03  0.00000000000E+00 0. -1.
         -3   -1    0    0    0  501 -0.00000000000E+00 -0.00000000000E+00 -0.83154167047E+02  0.83154167047E+02  0.00000000000E+00 0.  1.
         25    2    1    2    0    0  0.42454605893E+02  0.71150847045E+02  0.80654354506E+02  0.17034341150E+03  0.12508763466E+03 0.  0.
          5    1    3    3  502    0  0.61410240865E+02  0.77063397578E+02  0.10130866106E+03  0.14138918677E+03  0.41800000000E+01 0.  1.
         -5    1    3    3    0  502 -0.18955634972E+02 -0.59125505326E+01 -0.20654306551E+02  0.28954224736E+02  0.41800000000E+01 0.  1.
        -11    1    1    2    0    0 -0.61493984517E+01 -0.73377651639E+02  0.92389277100E+01  0.74212213594E+02  0.00000000000E+00 0.  1.
         11    1    1    2    0    0 -0.36305207442E+02  0.22268045932E+01  0.50978813777E+02  0.62624804991E+02  0.00000000000E+00 0. -1.
</event>
<event>
 7    1  0.5716826E-009  0.1980298E+03  0.7561462E-02  0.1151412E+00
          1   -1    0    0  501    0  0.00000000000E+00  0.00000000000E+00  0.12984454542E+04  0.12984454542E+04  0.00000000000E+00 0. -1.
         -1   -1    0    0    0  501 -0.00000000000E+00 -0.00000000000E+00 -0.41062993835E+02  0.41062993835E+02  0.00000000000E+00 0.  1.
         25    2    1    2    0    0 -0.16593087624E+03 -0.96995612237E+02  0.45691309361E+03  0.51123168317E+03  0.12508818602E+03 0.  0.
          5    1    3    3  502    0 -0.53815694578E+02 -0.23513354855E+02  0.29580001557E+03  0.30160260020E+03  0.41800000000E+01 0.  1.
         -5    1    3    3    0  502 -0.11211518167E+03 -0.73482257382E+02  0.16111307804E+03  0.20962908297E+03  0.41800000000E+01 0.  1.
        -11    1    1    2    0    0  0.71913730880E+02  0.79920520099E+02  0.29797166286E+03  0.31677434570E+03  0.00000000000E+00 0.  1.
         11    1    1    2    0    0  0.94017145364E+02  0.17075092138E+02  0.50249770387E+03  0.51150241914E+03  0.00000000000E+00 0. -1.
</event>
<event>
 7    1  0.2556591E-009  0.1217760E+03  0.7561462E-02  0.1240196E+00
         -1   -1    0    0    0  501 -0.00000000000E+00  0.00000000000E+00  0.10883146528E+03  0.10883146528E+03  0.00000000000E+00 0.  1.
          1   -1    0    0  501    0  0.00000000000E+00 -0.00000000000E+00 -0.16025997071E+03  0.16025997071E+03  0.00000000000E+00 0. -1.
         25    2    1    2    0    0  0.16362341122E+02 -0.75764291527E+02 -0.21334567508E+02  0.14869418788E+03  0.12508734413E+03 0.  0.
          5    1    3    3  502    0 -0.47998920184E+02 -0.17258151151E+02 -0.32913687644E+02  0.60848363612E+02  0.41800000000E+01 0. -1.
         -5    1    3    3    0  502  0.64361261305E+02 -0.58506140376E+02  0.11579120136E+02  0.87845824269E+02  0.41800000000E+01 0. -1.
        -11    1    1    2    0    0 -0.20044045290E+01 -0.14124614057E+02  0.13345494328E+02  0.19535213811E+02  0.00000000000E+00 0.  1.
         11    1    1    2    0    0 -0.14357936593E+02  0.89888905584E+02 -0.43439432249E+02  0.10086203431E+03  0.00000000000E+00 0. -1.
</event>
<event>
 7    1  0.2556591E-009  0.1176608E+03  0.7561462E-02  0.1247007E+00
         -2   -1    0    0    0  501 -0.00000000000E+00  0.00000000000E+00  0.31244805274E+02  0.31244805274E+02  0.00000000000E+00 0.  1.
          2   -1    0    0  501    0  0.00000000000E+00 -0.00000000000E+00 -0.52160638776E+03  0.52160638776E+03  0.00000000000E+00 0. -1.
         25    2    1    2    0    0  0.35541046383E+01  0.64669482222E+02 -0.30391833956E+03  0.33497569787E+03  0.12509031718E+03 0.  0.
          5    1    3    3  502    0 -0.21616997585E+02  0.87518403487E+02 -0.27724700596E+03  0.29156498461E+03  0.41800000000E+01 0.  1.
         -5    1    3    3    0  502  0.25171102223E+02 -0.22848921266E+02 -0.26671333594E+02  0.43410713261E+02  0.41800000000E+01 0.  1.
        -11    1    1    2    0    0 -0.21070610189E+02  0.17139942437E+02 -0.64556620311E+02  0.70037885937E+02  0.00000000000E+00 0. -1.
         11    1    1    2    0    0  0.17516505551E+02 -0.81809424658E+02 -0.12188662262E+03  0.14783760923E+03  0.00000000000E+00 0.  1.
</event>
<event>
 7    1  0.2556591E-009  0.1603156E+03  0.7561462E-02  0.1188341E+00
          1   -1    0    0  501    0  0.00000000000E+00  0.00000000000E+00  0.28542074961E+03  0.28542074961E+03  0.00000000000E+00 0. -1.
         -1   -1    0    0    0  501 -0.00000000000E+00 -0.00000000000E+00 -0.13799611453E+03  0.13799611453E+03  0.00000000000E+00 0.  1.
         25    2    1    2    0    0  0.11977681785E+03 -0.70348299649E+02  0.17395537369E+03  0.25534927743E+03  0.12508961624E+03 0.  0.
          5    1    3    3  502    0  0.66327153580E+02 -0.10027293568E+03  0.14208777196E+03  0.18617293110E+03  0.41800000000E+01 0.  1.
         -5    1    3    3    0  502  0.53449664272E+02  0.29924636030E+02  0.31867601726E+02  0.69176346334E+02  0.41800000000E+01 0.  1.
        -11    1    1    2    0    0 -0.86185257834E+02  0.49176965358E+02 -0.60153623174E+02  0.11603762739E+03  0.00000000000E+00 0.  1.
         11    1    1    2    0    0 -0.33591560019E+02  0.21171334290E+02  0.33622884561E+02  0.52029959315E+02  0.00000000000E+00 0. -1.
</event>
<event>
 7    1  0.2556591E-009  0.1594473E+03  0.7561462E-02  0.1189322E+00
          1   -1    0    0  501    0  0.00000000000E+00  0.00000000000E+00  0.97728921345E+03  0.97728921345E+03  0.00000000000E+00 0.  1.
         -1   -1    0    0    0  501 -0.00000000000E+00 -0.00000000000E+00 -0.31079545271E+02  0.31079545271E+02  0.00000000000E+00 0. -1.
         25    2    1    2    0    0 -0.10369443700E+03 -0.67846142627E+02  0.45144542013E+03  0.48456945673E+03  0.12509578612E+03 0.  0.
          5    1    3    3  502    0 -0.10523129531E+03  0.25722971493E+01  0.25964356244E+03  0.28020081039E+03  0.41800000000E+01 0. -1.
         -5    1    3    3    0  502  0.15368583170E+01 -0.70418439777E+02  0.19180185769E+03  0.20436864634E+03  0.41800000000E+01 0. -1.
        -11    1    1    2    0    0  0.24411764137E+02  0.58212660217E+02  0.82547661794E+02  0.10391710401E+03  0.00000000000E+00 0. -1.
         11    1    1    2    0    0  0.79282672860E+02  0.96334824106E+01  0.41221658626E+03  0.41988219798E+03  0.00000000000E+00 0.  1.
</event>
<event>
 7    1  0.2556591E-009  0.9014357E+02  0.7561462E-02  0.1302504E+00
         -2   -1    0    0    0  501 -0.00000000000E+00  0.00000000000E+00  0.24518290769E+03  0.24518290769E+03  0.00000000000E+00 0.  1.
          2   -1    0    0  501    0  0.00000000000E+00 -0.00000000000E+00 -0.84100699579E+02  0.84100699579E+02  0.00000000000E+00 0. -1.
         25    2    1    2    0    0  0.25962698604E+02  0.30564216328E+02 -0.99972013731E+01  0.13174246453E+03  0.12509156601E+03 0.  0.
          5    1    3    3  502    0  0.43737505974E+02  0.61782892213E+02  0.26548155871E+02  0.80326659206E+02  0.41800000000E+01 0. -1.
         -5    1    3    3    0  502 -0.17774807370E+02 -0.31218675885E+02 -0.36545357244E+02  0.51415805324E+02  0.41800000000E+01 0. -1.
        -11    1    1    2    0    0 -0.41618830490E+02 -0.32123576197E+02  0.17379669943E+03  0.18157462359E+03  0.00000000000E+00 0.  1.
         11    1    1    2    0    0  0.15656131886E+02  0.15593598690E+01 -0.27172899535E+01  0.15966519142E+02  0.00000000000E+00 0. -1.
</event>
<event>
 7    1  0.2556591E-009  0.9041378E+02  0.7561462E-02  0.1301853E+00
          2   -1    0    0  501    0  0.00000000000E+00  0.00000000000E+00  0.46872189360E+03  0.46872189360E+03  0.00000000000E+00 0. -1.
         -2   -1    0    0    0  501 -0.00000000000E+00 -0.00000000000E+00 -0.28858979499E+02  0.28858979499E+02  0.00000000000E+00 0.  1.
         25    2    1    2    0    0 -0.22438979302E+02  0.34565876822E+02  0.22804144138E+03  0.26334093219E+03  0.12508892815E+03 0.  0.
          5    1    3    3  502    0 -0.48227921351E+02  0.12506199849E+02  0.22245286586E+02  0.54723510558E+02  0.41800000000E+01 0. -1.
         -5    1    3    3    0  502  0.25788942049E+02  0.22059676974E+02  0.20579615479E+03  0.20861742163E+03  0.41800000000E+01 0. -1.
        -11    1    1    2    0    0  0.56041598410E+02 -0.16170006116E+02  0.96888451416E+02  0.11309067985E+03  0.00000000000E+00 0.  1.
         11    1    1    2    0    0 -0.33602619108E+02 -0.18395870707E+02  0.11493302131E+03  0.12114926107E+03  0.00000000000E+00 0. -1.
</event>
<event>
 7    1  0.2556591E-009  0.1254825E+03  0.7561462E-02  0.1234317E+00
          2   -1    0    0  501    0  0.00000000000E+00  0.00000000000E+00  0.92217046652E+03  0.92217046652E+03  0.00000000000E+00 0. -1.
         -2   -1    0    0    0  501 -0.00000000000E+00 -0.00000000000E+00 -0.36315947365E+02  0.36315947365E+02  0.00000000000E+00 0.  1.
         25    2    1    2    0    0 -0.11068003255E+03  0.66203194144E+01  0.71635276974E+03  0.73559608209E+03  0.12508559881E+03 0.  0.
          5    1    3    3  502    0 -0.90685447320E+02 -0.99497458459E+01  0.21549167637E+03  0.23404483071E+03  0.41800000000E+01 0. -1.
         -5    1    3    3    0  502 -0.19994585229E+02  0.16570065260E+02  0.50086109338E+03  0.50155125138E+03  0.41800000000E+01 0. -1.
        -11    1    1    2    0    0  0.10474239431E+03  0.19507205783E+02  0.91589263395E+02  0.14049944275E+03  0.00000000000E+00 0.  1.
         11    1    1    2    0    0  0.59376382371E+01 -0.26127525197E+02  0.77912486017E+02  0.82390889047E+02  0.00000000000E+00 0. -1.
</event>
<event>
 7    1  0.2556591E-009  0.1136147E+03  0.7561462E-02  0.1254019E+00
          3   -1    0    0  501    0  0.00000000000E+00  0.00000000000E+00  0.28241661872E+02  0.28241661872E+02  0.00000000000E+00 0. -1.
         -3   -1    0    0    0  501 -0.00000000000E+00 -0.00000000000E+00 -0.57186913254E+03  0.57186913254E+03  0.00000000000E+00 0.  1.
         25    2    1    2    0    0 -0.52146847395E+02 -0.13869359614E+02 -0.38599583529E+03  0.40933144075E+03  0.12509112955E+03 0.  0.
          5    1    3    3  502    0 -0.14873037708E+02 -0.68291603966E+02 -0.18994878194E+03  0.20244249204E+03  0.41800000000E+01 0. -1.
         -5    1    3    3    0  502 -0.37273809687E+02  0.54422244352E+02 -0.19604705336E+03  0.20688894871E+03  0.41800000000E+01 0. -1.
        -11    1    1    2    0    0  0.69271772690E+02  0.30794276322E+00 -0.15369276447E+03  0.16858273687E+03  0.00000000000E+00 0.  1.
         11    1    1    2    0    0 -0.17124925295E+02  0.13561416850E+02 -0.39388709125E+01  0.22196616801E+02  0.00000000000E+00 0. -1.
</event>
<event>
 7    1  0.2556591E-009  0.2074332E+03  0.7561462E-02  0.1143615E+00
          2   -1    0    0  501    0  0.00000000000E+00  0.00000000000E+00  0.23964317636E+04  0.23964317636E+04  0.00000000000E+00 0. -1.
         -2   -1    0    0    0  501 -0.00000000000E+00 -0.00000000000E+00 -0.36792596570E+02  0.36792596570E+02  0.00000000000E+00 0.  1.
         25    2    1    2    0    0 -0.14881285713E+03 -0.11695187015E+03  0.20307860840E+04  0.20434193681E+04  0.12509032089E+03 0.  0.
          5    1    3    3  502    0 -0.60155883106E+02 -0.12263608929E+03  0.11220514928E+04  0.11303430301E+04  0.41800000000E+01 0. -1.
         -5    1    3    3    0  502 -0.88656974025E+02  0.56842191359E+01  0.90873459120E+03  0.91307633801E+03  0.41800000000E+01 0. -1.
        -11    1    1    2    0    0  0.32019592740E+02  0.25238583659E+02  0.15921370445E+03  0.16435097843E+03  0.00000000000E+00 0. -1.
         11    1    1    2    0    0  0.11679326439E+03  0.91713286496E+02  0.16963937859E+03  0.22545401371E+03  0.00000000000E+00 0.  1.
</event>
<event>
 7    1  0.2556591E-009  0.9625311E+02  0.7561462E-02  0.1288378E+00
         -2   -1    0    0    0  501 -0.00000000000E+00  0.00000000000E+00  0.18562370475E+03  0.18562370475E+03  0.00000000000E+00 0.  1.
          2   -1    0    0  501    0  0.00000000000E+00 -0.00000000000E+00 -0.92217559143E+02  0.92217559143E+02  0.00000000000E+00 0. -1.
         25    2    1    2    0    0 -0.20177005135E+02  0.72674547468E+02  0.73259991693E+02  0.16341249366E+03  0.12509162768E+03 0.  0.
          5    1    3    3  502    0 -0.19475940566E+02  0.14471563018E+02  0.97248813614E+02  0.10031720962E+03  0.41800000000E+01 0.  1.
         -5    1    3    3    0  502 -0.70106456914E+00  0.58202984450E+02 -0.23988821921E+02  0.63095284036E+02  0.41800000000E+01 0.  1.
        -11    1    1    2    0    0 -0.17257676976E+02 -0.69890572587E+02  0.25787773306E+02  0.76469136279E+02  0.00000000000E+00 0.  1.
         11    1    1    2    0    0  0.37434682111E+02 -0.27839748807E+01 -0.56416193903E+01  0.37959633959E+02  0.00000000000E+00 0. -1.
</event>
<event>
 7    1  0.2556591E-009  0.1757604E+03  0.7561462E-02  0.1171970E+00
         -2   -1    0    0    0  501 -0.00000000000E+00  0.00000000000E+00  0.30600943489E+03  0.30600943489E+03  0.00000000000E+00 0. -1.
          2   -1    0    0  501    0  0.00000000000E+00 -0.00000000000E+00 -0.29135977334E+03  0.29135977334E+03  0.00000000000E+00 0.  1.
         25    2    1    2    0    0  0.13985644610E+03  0.91164780210E+02  0.22929268762E+03  0.30999364689E+03  0.12510028715E+03 0.  0.
          5    1    3    3  502    0  0.12010485469E+03  0.99996118697E+02  0.23925872046E+03  0.28580869054E+03  0.41800000000E+01 0. -1.
         -5    1    3    3    0  502  0.19751591418E+02 -0.88313384869E+01 -0.99660328342E+01  0.24184956346E+02  0.41800000000E+01 0. -1.
        -11    1    1    2    0    0 -0.97180668099E+02 -0.36531523936E+02 -0.18465993468E+03  0.21184410771E+03  0.00000000000E+00 0.  1.
         11    1    1    2    0    0 -0.42675778006E+02 -0.54633256275E+02 -0.29983091384E+02  0.75531453637E+02  0.00000000000E+00 0. -1.
</event>
<event>
 7    1  0.2556591E-009  0.2500129E+03  0.7561462E-02  0.1113297E+00
          1   -1    0    0  501    0  0.00000000000E+00  0.00000000000E+00  0.18910758731E+03  0.18910758731E+03  0.00000000000E+00 0. -1.
         -1   -1    0    0    0  501 -0.00000000000E+00 -0.00000000000E+00 -0.37147352908E+03  0.37147352908E+03  0.00000000000E+00 0.  1.
         25    2    1    2    0    0  0.16901525091E+01  0.23457260467E+03 -0.32393116158E+02  0.26781338119E+03  0.12509008632E+03 0.  0.
          5    1    3    3  502    0  0.41074756527E+02  0.21881595055E+03 -0.20837585566E+02  0.22364980038E+03  0.41800000000E+01 0.  1.
         -5    1    3    3    0  502 -0.39384604018E+02  0.15756654118E+02 -0.11555530592E+02  0.44163580810E+02  0.41800000000E+01 0.  1.
        -11    1    1    2    0    0 -0.48413197423E+01 -0.10337241339E+03 -0.11941974012E+03  0.15802015238E+03  0.00000000000E+00 0.  1.
         11    1    1    2    0    0  0.31511672331E+01 -0.13120019127E+03 -0.30553085495E+02  0.13474758283E+03  0.00000000000E+00 0. -1.
</event>
<event>
 7    1  0.2556591E-009  0.4122036E+03  0.7561462E-02  0.1039634E+00
         -2   -1    0    0    0  501 -0.00000000000E+00  0.00000000000E+00  0.10306917018E+03  0.10306917018E+03  0.00000000000E+00 0.  1.
          2   -1    0    0  501    0  0.00000000000E+00 -0.00000000000E+00 -0.18508878161E+04  0.18508878161E+04  0.00000000000E+00 0. -1.
         25    2    1    2    0    0 -0.95983076199E+02 -0.39580345854E+03 -0.62830846254E+03  0.75913833731E+03  0.12508542030E+03 0.  0.
          5    1    3    3  502    0  0.17289724926E+02 -0.42688478584E+02 -0.29713605214E+02  0.54969187065E+02  0.41800000000E+01 0. -1.
         -5    1    3    3    0  502 -0.11327280113E+03 -0.35311497996E+03 -0.59859485732E+03  0.70416915025E+03  0.41800000000E+01 0. -1.
        -11    1    1    2    0    0  0.59759593163E+02  0.25540300725E+03 -0.58736154287E+03  0.64326937369E+03  0.00000000000E+00 0.  1.
         11    1    1    2    0    0  0.36223483036E+02  0.14040045129E+03 -0.53214864055E+03  0.55154927530E+03  0.00000000000E+00 0. -1.
</event>
<event>
 7    1  0.2556591E-009  0.1632003E+03  0.7561462E-02  0.1185130E+00
          2   -1    0    0  501    0  0.00000000000E+00  0.00000000000E+00  0.11676583205E+04  0.11676583205E+04  0.00000000000E+00 0.  1.
         -2   -1    0    0    0  501 -0.00000000000E+00 -0.00000000000E+00 -0.26395879526E+02  0.26395879526E+02  0.00000000000E+00 0. -1.
         25    2    1    2    0    0  0.12774868803E+03  0.44640216883E+02  0.51420867706E+03  0.54623281511E+03  0.12508896225E+03 0.  0.
          5    1    3    3  502    0 -0.15340842933E+02 -0.88100932849E+01  0.13267156711E+02  0.22504422961E+02  0.41800000000E+01 0. -1.
         -5    1    3    3    0  502  0.14308953096E+03  0.53450310167E+02  0.50094152035E+03  0.52372839214E+03  0.41800000000E+01 0. -1.
        -11    1    1    2    0    0 -0.14091381718E+02  0.20152565930E+02  0.45358990997E+02  0.51595843016E+02  0.00000000000E+00 0.  1.
         11    1    1    2    0    0 -0.11365730631E+03 -0.64792782813E+02  0.58169477296E+03  0.59622554195E+03  0.00000000000E+00 0. -1.
</event>
<event>
 7    1  0.2556591E-009  0.2080475E+03  0.7561462E-02  0.1143122E+00
         -2   -1    0    0    0  501 -0.00000000000E+00  0.00000000000E+00  0.14048121509E+03  0.14048121509E+03  0.00000000000E+00 0.  1.
          2   -1    0    0  501    0  0.00000000000E+00 -0.00000000000E+00 -0.45557060088E+03  0.45557060088E+03  0.00000000000E+00 0. -1.
         25    2    1    2    0    0  0.12827710032E+03  0.13896643980E+03 -0.31243371937E+03  0.38604222832E+03  0.12508831755E+03 0.  0.
          5    1    3    3  502    0  0.99622209987E+02  0.16766164294E+02 -0.13525557060E+03  0.16887045558E+03  0.41800000000E+01 0. -1.
         -5    1    3    3    0  502  0.28654890334E+02  0.12220027551E+03 -0.17717814877E+03  0.21717177274E+03  0.41800000000E+01 0. -1.
        -11    1    1    2    0    0 -0.70866515554E+02 -0.84258429057E+02  0.43353953803E+02  0.11832629126E+03  0.00000000000E+00 0. -1.
         11    1    1    2    0    0 -0.57410584768E+02 -0.54708010743E+02 -0.46009620230E+02  0.91683296388E+02  0.00000000000E+00 0.  1.
</event>
<event>
 7    1  0.2556591E-009  0.2219451E+03  0.7561462E-02  0.1132441E+00
          2   -1    0    0  501    0  0.00000000000E+00  0.00000000000E+00  0.16723689955E+04  0.16723689955E+04  0.00000000000E+00 0. -1.
         -2   -1    0    0    0  501 -0.00000000000E+00 -0.00000000000E+00 -0.45422618195E+02  0.45422618195E+02  0.00000000000E+00 0.  1.
         25    2    1    2    0    0  0.18950746882E+03  0.62316114745E+02  0.13175309274E+04  0.13384063600E+04  0.12508981144E+03 0.  0.
          5    1    3    3  502    0  0.16875898325E+03  0.95806575505E+02  0.10264116812E+04  0.10446037076E+04  0.41800000000E+01 0. -1.
         -5    1    3    3    0  502  0.20748485567E+02 -0.33490460760E+02  0.29111924625E+03  0.29380265239E+03  0.41800000000E+01 0. -1.
        -11    1    1    2    0    0 -0.39352292851E+02 -0.43792035044E+02  0.14207808263E+03  0.15379378027E+03  0.00000000000E+00 0. -1.
         11    1    1    2    0    0 -0.15015517597E+03 -0.18524079701E+02  0.16733736727E+03  0.22559147343E+03  0.00000000000E+00 0.  1.
</event>
<event>
 7    1  0.2556591E-009  0.1285023E+03  0.7561462E-02  0.1229695E+00
          2   -1    0    0  501    0  0.00000000000E+00  0.00000000000E+00  0.20386910095E+03  0.20386910095E+03  0.00000000000E+00 0. -1.
         -2   -1    0    0    0  501 -0.00000000000E+00 -0.00000000000E+00 -0.26479723441E+03  0.26479723441E+03  0.00000000000E+00 0.  1.
         25    2    1    2    0    0 -0.10031720078E+03  0.68372053850E+01  0.14851073414E+03  0.21866231424E+03  0.12508989312E+03 0.  0.
          5    1    3    3  502    0 -0.78357082156E+02 -0.40422418788E+02  0.14027771192E+03  0.16573808593E+03  0.41800000000E+01 0.  1.
         -5    1    3    3    0  502 -0.21960118623E+02  0.47259624173E+02  0.82330222159E+01  0.52924228306E+02  0.41800000000E+01 0.  1.
        -11    1    1    2    0    0  0.27996773826E+02 -0.29498035932E+02 -0.18703891266E+02  0.44763702003E+02  0.00000000000E+00 0.  1.
         11    1    1    2    0    0  0.72320426953E+02  0.22660830547E+02 -0.19073497634E+03  0.20524031913E+03  0.00000000000E+00 0. -1.
</event>
<event>
 7    1  0.3724660E-009  0.1238446E+03  0.7561462E-02  0.1236886E+00
         -2   -1    0    0    0  501 -0.00000000000E+00  0.00000000000E+00  0.50801464417E+02  0.50801464417E+02  0.00000000000E+00 0. -1.
          2   -1    0    0  501    0  0.00000000000E+00 -0.00000000000E+00 -0.53907899403E+03  0.53907899403E+03  0.00000000000E+00 0.  1.
         25    2    1    2    0    0 -0.69966184871E+02 -0.85136580167E+02 -0.36527086330E+03  0.40151473192E+03  0.12509105510E+03 0.  0.
          5    1    3    3  502    0  0.52941624853E+01 -0.56297651760E+02 -0.48464768244E+02  0.74590615436E+02  0.41800000000E+01 0. -1.
         -5    1    3    3    0  502 -0.75260347356E+02 -0.28838928406E+02 -0.31680609506E+03  0.32692411649E+03  0.41800000000E+01 0. -1.
        -11    1    1    2    0    0  0.39399563015E+02  0.51329864093E+02 -0.86773649958E+01  0.65286883651E+02  0.00000000000E+00 0. -1.
         11    1    1    2    0    0  0.30566621856E+02  0.33806716074E+02 -0.11432930132E+03  0.12307884287E+03  0.00000000000E+00 0.  1.
</event>
<event>
 7    1  0.2556591E-009  0.1601923E+03  0.7561462E-02  0.1188480E+00
          2   -1    0    0  501    0  0.00000000000E+00  0.00000000000E+00  0.37251752248E+03  0.37251752248E+03  0.00000000000E+00 0. -1.
         -2   -1    0    0    0  501 -0.00000000000E+00 -0.00000000000E+00 -0.90035457663E+02  0.90035457663E+02  0.00000000000E+00 0.  1.
         25    2    1    2    0    0  0.13582848321E+03 -0.26240808061E+02  0.21255436106E+03  0.28278026867E+03  0.12508943635E+03 0.  0.
          5    1    3    3  502    0  0.11049990417E+03  0.13741088105E+02  0.20681206814E+03  0.23492073185E+03  0.41800000000E+01 0. -1.
         -5    1    3    3    0  502  0.25328579037E+02 -0.39981896166E+02  0.57422929221E+01  0.47859536825E+02  0.41800000000E+01 0. -1.
        -11    1    1    2    0    0 -0.60623654568E+02  0.54089364890E+02  0.55232154296E+02  0.98241934812E+02  0.00000000000E+00 0. -1.
         11    1    1    2    0    0 -0.75204828642E+02 -0.27848556830E+02  0.14695549463E+02  0.81530776659E+02  0.00000000000E+00 0.  1.
</event>
<event>
 7    1  0.2556591E-009  0.8760750E+02  0.7561462E-02  0.1308751E+00
          2   -1    0    0  501    0  0.00000000000E+00  0.00000000000E+00  0.40685750327E+03  0.40685750327E+03  0.00000000000E+00 0. -1.
         -2   -1    0    0    0  501 -0.00000000000E+00 -0.00000000000E+00 -0.71242293225E+02  0.71242293225E+02  0.00000000000E+00 0.  1.
         25    2    1    2    0    0  0.12757421135E+01 -0.18351329279E+02  0.37327748002E+03  0.39410975930E+03  0.12509207200E+03 0.  0.
          5    1    3    3  502    0  0.46807531407E+02  0.84341205627E+01  0.29945412447E+03  0.30323641676E+03  0.41800000000E+01 0. -1.
         -5    1    3    3    0  502 -0.45531789294E+02 -0.26785449841E+02  0.73823355550E+02  0.90873342539E+02  0.41800000000E+01 0. -1.
        -11    1    1    2    0    0  0.16704650846E+02  0.41751168247E+02 -0.17521212880E+02  0.48261768623E+02  0.00000000000E+00 0.  1.
         11    1    1    2    0    0 -0.17980392959E+02 -0.23399838968E+02 -0.20141057093E+02  0.35728268577E+02  0.00000000000E+00 0. -1.
</event>
<event>
 7    1  0.2844275E-009  0.1184797E+03  0.7561462E-02  0.1245626E+00
          2   -1    0    0  501    0  0.00000000000E+00  0.00000000000E+00  0.19169188519E+03  0.19169188519E+03  0.00000000000E+00 0.  1.
         -2   -1    0    0    0  501 -0.00000000000E+00 -0.00000000000E+00 -0.10852241884E+03  0.10852241884E+03  0.00000000000E+00 0. -1.
         25    2    1    2    0    0 -0.69328920016E+02  0.61189533950E+02  0.65152566704E+02  0.16864485847E+03  0.12508226543E+03 0.  0.
          5    1    3    3  502    0 -0.65508777311E+02 -0.13311947312E+02  0.65847346631E+02  0.93925253816E+02  0.41800000000E+01 0.  1.
         -5    1    3    3    0  502 -0.38201427056E+01  0.74501481263E+02 -0.69477992663E+00  0.74719604655E+02  0.41800000000E+01 0.  1.
        -11    1    1    2    0    0  0.37705190669E+01 -0.13973982111E+02  0.44304806860E+02  0.46609064580E+02  0.00000000000E+00 0.  1.
         11    1    1    2    0    0  0.65558400949E+02 -0.47215551839E+02 -0.26287907222E+02  0.84960380982E+02  0.00000000000E+00 0. -1.
</event>
<event>
 7    1  0.2556591E-009  0.3017603E+03  0.7561462E-02  0.1084364E+00
         -1   -1    0    0    0  501 -0.00000000000E+00  0.00000000000E+00  0.60763942960E+02  0.60763942960E+02  0.00000000000E+00 0.  1.
          1   -1    0    0  501    0  0.00000000000E+00 -0.00000000000E+00 -0.17293570793E+04  0.17293570793E+04  0.00000000000E+00 0. -1.
         25    2    1    2    0    0  0.28154446186E+03 -0.62897469935E+02 -0.11107013437E+04  0.11543517163E+04  0.12508810636E+03 0.  0.
          5    1    3    3  502    0  0.23146092361E+03 -0.92436902745E+02 -0.98059865251E+03  0.10117855157E+04  0.41800000000E+01 0.  1.
         -5    1    3    3    0  502  0.50083538249E+02  0.29539432811E+02 -0.13010269114E+03  0.14256620054E+03  0.41800000000E+01 0.  1.
        -11    1    1    2    0    0 -0.10390881353E+03  0.56332345822E+02 -0.15111349889E+03  0.19184802387E+03  0.00000000000E+00 0.  1.
         11    1    1    2    0    0 -0.17763564832E+03  0.65651241125E+01 -0.40677829381E+03  0.44392128212E+03  0.00000000000E+00 0. -1.
</event>
<event>
 7    1  0.2556591E-009  0.1307921E+03  0.7561462E-02  0.1226285E+00
         -3   -1    0    0    0  501 -0.00000000000E+00  0.00000000000E+00  0.17480909492E+03  0.17480909492E+03  0.00000000000E+00 0.  1.
          3   -1    0    0  501    0  0.00000000000E+00 -0.00000000000E+00 -0.12488830935E+03  0.12488830935E+03  0.00000000000E+00 0. -1.
         25    2    1    2    0    0  0.10047672224E+03 -0.10481587526E+01  0.34858958774E+02  0.16419199898E+03  0.12508874919E+03 0.  0.
          5    1    3    3  502    0 -0.27200732485E+02 -0.14523077839E+02  0.98099890965E-01  0.31117224510E+02  0.41800000000E+01 0.  1.
         -5    1    3    3    0  502  0.12767745473E+03  0.13474919086E+02  0.34760858883E+02  0.13307477447E+03  0.41800000000E+01 0.  1.
        -11    1    1    2    0    0 -0.21673540312E+02  0.75270966176E+01  0.45358236577E+02  0.50830789474E+02  0.00000000000E+00 0.  1.
         11    1    1    2    0    0 -0.78803181932E+02 -0.64789378650E+01 -0.30296409783E+02  0.84674615820E+02  0.00000000000E+00 0. -1.
</event>
<event>
 7    1  0.2556591E-009  0.1055076E+03  0.7561462E-02  0.1269123E+00
         -4   -1    0    0    0  501 -0.00000000000E+00  0.00000000000E+00  0.12315745259E+04  0.12315745259E+04  0.00000000000E+00 0.  1.
          4   -1    0    0  501    0  0.00000000000E+00 -0.00000000000E+00 -0.10220766171E+02  0.10220766171E+02  0.00000000000E+00 0. -1.
         25    2    1    2    0    0 -0.47678217604E+02 -0.11846016537E+02  0.89049623665E+03  0.90058079659E+03  0.12509469676E+03 0.  0.
          5    1    3    3  502    0 -0.37817668333E+02 -0.64697564792E+02  0.38748834593E+03  0.39469056432E+03  0.41800000000E+01 0.  1.
         -5    1    3    3    0  502 -0.98605492713E+01  0.52851548255E+02  0.50300789072E+03  0.50589023228E+03  0.41800000000E+01 0.  1.
        -11    1    1    2    0    0  0.12243921291E+02  0.36741343252E+02  0.18754859004E+03  0.19150538776E+03  0.00000000000E+00 0.  1.
         11    1    1    2    0    0  0.35434296313E+02 -0.24895326715E+02  0.14330893303E+03  0.14970910771E+03  0.00000000000E+00 0. -1.
</event>
<event>
 7    1  0.2556591E-009  0.8380676E+02  0.7561462E-02  0.1318583E+00
          2   -1    0    0  501    0  0.00000000000E+00  0.00000000000E+00  0.15385265142E+03  0.15385265142E+03  0.00000000000E+00 0. -1.
         -2   -1    0    0    0  501 -0.00000000000E+00 -0.00000000000E+00 -0.97129307556E+02  0.97129307556E+02  0.00000000000E+00 0.  1.
         25    2    1    2    0    0  0.25957129280E+02 -0.16451625992E+02 -0.14764650727E+02  0.12965660147E+03  0.12509360829E+03 0.  0.
          5    1    3    3  502    0  0.43874181001E+02  0.26629007764E+02  0.34260313355E+02  0.61848923064E+02  0.41800000000E+01 0.  1.
         -5    1    3    3    0  502 -0.17917051721E+02 -0.43080633756E+02 -0.49024964081E+02  0.67807678403E+02  0.41800000000E+01 0.  1.
        -11    1    1    2    0    0 -0.30451867874E+02  0.37183828639E+02  0.13839445640E+01  0.48081895468E+02  0.00000000000E+00 0.  1.
         11    1    1    2    0    0  0.44947385941E+01 -0.20732202647E+02  0.70104050028E+02  0.73243462042E+02  0.00000000000E+00 0. -1.
</event>
<event>
 7    1  0.2556591E-009  0.1070498E+03  0.7561462E-02  0.1266133E+00
         -2   -1    0    0    0  501 -0.00000000000E+00  0.00000000000E+00  0.34236130323E+02  0.34236130323E+02  0.00000000000E+00 0.  1.
          2   -1    0    0  501    0  0.00000000000E+00 -0.00000000000E+00 -0.39630768022E+03  0.39630768022E+03  0.00000000000E+00 0. -1.
         25    2    1    2    0    0  0.31180296680E+02 -0.32179254958E+01 -0.26980395083E+03  0.29903902844E+03  0.12509037814E+03 0.  0.
          5    1    3    3  502    0 -0.26302362604E+02 -0.44581435577E+02 -0.71058331735E+02  0.88011803673E+02  0.41800000000E+01 0. -1.
         -5    1    3    3    0  502  0.57482659285E+02  0.41363510081E+02 -0.19874561910E+03  0.21102722477E+03  0.41800000000E+01 0. -1.
        -11    1    1    2    0    0  0.19355427399E+02  0.28711042761E+02 -0.50193716953E+02  0.60978404110E+02  0.00000000000E+00 0. -1.
         11    1    1    2    0    0 -0.50535724080E+02 -0.25493117265E+02 -0.42073882108E+02  0.70526377986E+02  0.00000000000E+00 0.  1.
</event>
<event>
 7    1  0.2556591E-009  0.2064937E+03  0.7561462E-02  0.1144373E+00
         -2   -1    0    0    0  501 -0.00000000000E+00  0.00000000000E+00  0.60621641685E+02  0.60621641685E+02  0.00000000000E+00 0.  1.
          2   -1    0    0  501    0  0.00000000000E+00 -0.00000000000E+00 -0.86977380701E+03  0.86977380701E+03  0.00000000000E+00 0. -1.
         25    2    1    2    0    0 -0.81155698526E+02  0.15868219767E+03 -0.22646036523E+03  0.31415517267E+03  0.12507153247E+03 0.  0.
          5    1    3    3  502    0  0.12107985369E+02  0.11310364796E+03 -0.11624486359E+03  0.16269412775E+03  0.41800000000E+01 0.  1.
         -5    1    3    3    0  502 -0.93263683894E+02  0.45578549706E+02 -0.11021550164E+03  0.15146104492E+03  0.41800000000E+01 0.  1.
        -11    1    1    2    0    0 -0.15807213746E+02 -0.32469104143E+02 -0.61823438050E+02  0.71597822751E+02  0.00000000000E+00 0.  1.
         11    1    1    2    0    0  0.96962912271E+02 -0.12621309352E+03 -0.52086836204E+03  0.54464245328E+03  0.00000000000E+00 0. -1.
</event>
<event>
 7    1  0.2556591E-009  0.3295532E+03  0.7561462E-02  0.1071335E+00
          1   -1    0    0  501    0  0.00000000000E+00  0.00000000000E+00  0.14033195719E+03  0.14033195719E+03  0.00000000000E+00 0.  1.
         -1   -1    0    0    0  501 -0.00000000000E+00 -0.00000000000E+00 -0.15086825792E+04  0.15086825792E+04  0.00000000000E+00 0. -1.
         25    2    1    2    0    0 -0.31365457657E+03  0.77161314917E+02 -0.12436093666E+04  0.12909472404E+04  0.12508980359E+03 0.  0.
          5    1    3    3  502    0 -0.61318542352E+00  0.55937097084E+01 -0.50248002280E+00  0.70278354306E+01  0.41800000000E+01 0. -1.
         -5    1    3    3    0  502 -0.31304139114E+03  0.71567605208E+02 -0.12431068866E+04  0.12839194050E+04  0.41800000000E+01 0. -1.
        -11    1    1    2    0    0  0.25241095333E+03 -0.90730383016E+02 -0.76454654277E+02  0.27890608800E+03  0.00000000000E+00 0.  1.
         11    1    1    2    0    0  0.61243623241E+02  0.13569068100E+02 -0.48286601114E+02  0.79161207949E+02  0.00000000000E+00 0. -1.
</event>
<event>
 7    1  0.3260052E-009  0.9632185E+02  0.7561462E-02  0.1288226E+00
          1   -1    0    0  501    0  0.00000000000E+00  0.00000000000E+00  0.23947004251E+03  0.23947004251E+03  0.00000000000E+00 0. -1.
         -1   -1    0    0    0  501 -0.00000000000E+00 -0.00000000000E+00 -0.65846474937E+02  0.65846474937E+02  0.00000000000E+00 0.  1.
         25    2    1    2    0    0 -0.48877133593E+02 -0.41991810499E+01  0.48285307445E+02  0.14277714344E+03  0.12508890624E+03 0.  0.
          5    1    3    3  502    0 -0.78842732430E+02 -0.24209346832E+02  0.62758112695E+02  0.10372233144E+03  0.41800000000E+01 0. -1.
         -5    1    3    3    0  502  0.29965598836E+02  0.20010165782E+02 -0.14472805250E+02  0.39054811996E+02  0.41800000000E+01 0. -1.
        -11    1    1    2    0    0  0.54736818182E+02 -0.12452307554E+02  0.13218100728E+03  0.14360709563E+03  0.00000000000E+00 0. -1.
         11    1    1    2    0    0 -0.58596845890E+01  0.16651488604E+02 -0.68427471523E+01  0.18932278384E+02  0.00000000000E+00 0.  1.
</event>
<event>
 7    1  0.2556591E-009  0.1346095E+03  0.7561462E-02  0.1220772E+00
          2   -1    0    0  501    0  0.00000000000E+00  0.00000000000E+00  0.74477427226E+03  0.74477427226E+03  0.00000000000E+00 0. -1.
         -2   -1    0    0    0  501 -0.00000000000E+00 -0.00000000000E+00 -0.43672739446E+02  0.43672739446E+02  0.00000000000E+00 0.  1.
         25    2    1    2    0    0  0.43954985436E+02  0.81083168604E+02  0.61061960729E+03  0.63008812897E+03  0.12509286344E+03 0.  0.
          5    1    3    3  502    0 -0.37613542087E+02  0.21681491104E+02  0.93150497040E+02  0.10285598234E+03  0.41800000000E+01 0. -1.
         -5    1    3    3    0  502  0.81568527524E+02  0.59401677499E+02  0.51746911025E+03  0.52723214663E+03  0.41800000000E+01 0. -1.
        -11    1    1    2    0    0 -0.68476908238E+02 -0.48874153546E+02  0.80992855326E+02  0.11678018865E+03  0.00000000000E+00 0.  1.
         11    1    1    2    0    0  0.24521922802E+02 -0.32209015057E+02  0.94890701965E+01  0.41578694088E+02  0.00000000000E+00 0. -1.
</event>
<event>
 7    1  0.2556591E-009  0.1021248E+03  0.7561462E-02  0.1275890E+00
         -1   -1    0    0    0  501 -0.00000000000E+00  0.00000000000E+00  0.13281799580E+02  0.13281799580E+02  0.00000000000E+00 0.  1.
          1   -1    0    0  501    0  0.00000000000E+00 -0.00000000000E+00 -0.13829722061E+04  0.13829722061E+04  0.00000000000E+00 0. -1.
         25    2    1    2    0    0  0.96761412448E+01 -0.18011569847E+02 -0.11781139794E+04  0.11849130102E+04  0.12509296081E+03 0.  0.
          5    1    3    3  502    0  0.63248814389E+02 -0.89601745641E+01 -0.42086652120E+03  0.42570740928E+03  0.41800000000E+01 0.  1.
         -5    1    3    3    0  502 -0.53572673145E+02 -0.90513952834E+01 -0.75724745825E+03  0.75920560093E+03  0.41800000000E+01 0.  1.
        -11    1    1    2    0    0 -0.13220878498E+02 -0.32509453883E+02 -0.50902592048E+02  0.61828230585E+02  0.00000000000E+00 0.  1.
         11    1    1    2    0    0  0.35447372537E+01  0.50521023731E+02 -0.14067383498E+03  0.14951276484E+03  0.00000000000E+00 0. -1.
</event>
<event>
 7    1  0.2556591E-009  0.1621239E+03  0.7561462E-02  0.1186320E+00
          2   -1    0    0  501    0  0.00000000000E+00  0.00000000000E+00  0.29645227371E+02  0.29645227371E+02  0.00000000000E+00 0. -1.
         -2   -1    0    0    0  501 -0.00000000000E+00 -0.00000000000E+00 -0.97290964000E+03  0.97290964000E+03  0.00000000000E+00 0.  1.
         25    2    1    2    0    0  0.99359883792E+02 -0.79200218123E+02 -0.57003867777E+03  0.59727085745E+03  0.12507326632E+03 0.  0.
          5    1    3    3  502    0  0.11644744842E+03 -0.98059739209E+02 -0.49720963849E+03  0.52001020923E+03  0.41800000000E+01 0. -1.
         -5    1    3    3    0  502 -0.17087564630E+02  0.18859521086E+02 -0.72829039284E+02  0.77260648222E+02  0.41800000000E+01 0. -1.
        -11    1    1    2    0    0 -0.47517431162E+02  0.81423219876E+02 -0.30700982193E+03  0.32115833752E+03  0.00000000000E+00 0.  1.
         11    1    1    2    0    0 -0.51842452630E+02 -0.22230017525E+01 -0.66215912929E+02  0.84125672398E+02  0.00000000000E+00 0. -1.
</event>
<event>
 7    1  0.2556591E-009  0.1034938E+03  0.7561462E-02  0.1273116E+00
          2   -1    0    0  501    0  0.00000000000E+00  0.00000000000E+00  0.85012392145E+03  0.85012392145E+03  0.00000000000E+00 0. -1.
         -2   -1    0    0    0  501 -0.00000000000E+00 -0.00000000000E+00 -0.16370544884E+02  0.16370544884E+02  0.00000000000E+00 0.  1.
         25    2    1    2    0    0  0.16309521979E+02 -0.61188013532E+01  0.62886733334E+03  0.64142461907E+03  0.12509188129E+03 0.  0.
          5    1    3    3  502    0  0.50349073719E+02 -0.47307245579E+02  0.27795517597E+03  0.28644293840E+03  0.41800000000E+01 0. -1.
         -5    1    3    3    0  502 -0.34039551740E+02  0.41188444226E+02  0.35091215737E+03  0.35498168067E+03  0.41800000000E+01 0. -1.
        -11    1    1    2    0    0  0.32676142700E+02  0.12064326751E+02  0.40405413381E+02  0.53346749781E+02  0.00000000000E+00 0. -1.
         11    1    1    2    0    0 -0.48985664679E+02 -0.59455253974E+01  0.16448062984E+03  0.17172309748E+03  0.00000000000E+00 0.  1.
</event>
<event>
 7    1  0.2556591E-009  0.9511655E+02  0.7561462E-02  0.1290914E+00
         -2   -1    0    0    0  501 -0.00000000000E+00  0.00000000000E+00  0.25468533123E+02  0.25468533123E+02  0.00000000000E+00 0.  1.
          2   -1    0    0  501    0  0.00000000000E+00 -0.00000000000E+00 -0.47974126460E+03  0.47974126460E+03  0.00000000000E+00 0. -1.
         25    2    1    2    0    0 -0.70451167906E+01 -0.11840952351E+02 -0.21557098773E+03  0.24962061665E+03  0.12509899953E+03 0.  0.
          5    1    3    3  502    0 -0.35880499560E+02 -0.51776926974E+02 -0.17376461674E+03  0.18487799990E+03  0.41800000000E+01 0.  1.
         -5    1    3    3    0  502  0.28835382769E+02  0.39935974623E+02 -0.41806370985E+02  0.64742616749E+02  0.41800000000E+01 0.  1.
        -11    1    1    2    0    0  0.31010850818E+02  0.33294868479E+02 -0.67572707623E+02  0.81463439352E+02  0.00000000000E+00 0.  1.
         11    1    1    2    0    0 -0.23965734027E+02 -0.21453916127E+02 -0.17112903613E+03  0.17412574172E+03  0.00000000000E+00 0. -1.
</event>
<event>
 7    1  0.2556591E-009  0.1422726E+03  0.7561462E-02  0.1210303E+00
          1   -1    0    0  501    0  0.00000000000E+00  0.00000000000E+00  0.23097951239E+03  0.23097951239E+03  0.00000000000E+00 0. -1.
         -1   -1    0    0    0  501 -0.00000000000E+00 -0.00000000000E+00 -0.11209763398E+03  0.11209763398E+03  0.00000000000E+00 0.  1.
         25    2    1    2    0    0 -0.81251567821E+02 -0.82842595694E+02  0.85062951338E+02  0.19065573504E+03  0.12509672530E+03 0.  0.
          5    1    3    3  502    0  0.22730653765E+02  0.13093421208E+02  0.22229272567E+01  0.26655845609E+02  0.41800000000E+01 0.  1.
         -5    1    3    3    0  502 -0.10398222159E+03 -0.95936016902E+02  0.82840024081E+02  0.16399988944E+03  0.41800000000E+01 0.  1.
        -11    1    1    2    0    0  0.41234647526E+02  0.48936557301E+02 -0.29277145058E+02  0.70372111094E+02  0.00000000000E+00 0.  1.
         11    1    1    2    0    0  0.40016920295E+02  0.33906038393E+02  0.63096072137E+02  0.82049300232E+02  0.00000000000E+00 0. -1.
</event>
<event>
 7    1  0.2556591E-009  0.1495190E+03  0.7561462E-02  0.1201065E+00
          2   -1    0    0  501    0  0.00000000000E+00  0.00000000000E+00  0.78792995052E+03  0.78792995052E+03  0.00000000000E+00 0. -1.
         -2   -1    0    0    0  501 -0.00000000000E+00 -0.00000000000E+00 -0.33208903834E+02  0.33208903834E+02  0.00000000000E+00 0.  1.
         25    2    1    2    0    0  0.11738935404E+03 -0.31907852160E+02  0.41555990094E+03  0.45070658484E+03  0.12509205762E+03 0.  0.
          5    1    3    3  502    0  0.63635861264E+02  0.32523620674E+02  0.92867004103E+02  0.11725639254E+03  0.41800000000E+01 0.  1.
         -5    1    3    3    0  502  0.53753492776E+02 -0.64431472835E+02  0.32269289683E+03  0.33345019230E+03  0.41800000000E+01 0.  1.
        -11    1    1    2    0    0 -0.91862362656E+02 -0.12004832539E+02  0.26342166261E+03  0.27923785920E+03  0.00000000000E+00 0. -1.
         11    1    1    2    0    0 -0.25526991385E+02  0.43912684699E+02  0.75739483137E+02  0.91194410314E+02  0.00000000000E+00 0.  1.
</event>
<event>
 7    1  0.2556591E-009  0.7534578E+02  0.7561462E-02  0.1342804E+00
         -2   -1    0    0    0  501 -0.00000000000E+00  0.00000000000E+00  0.12817233792E+02  0.12817233792E+02  0.00000000000E+00 0.  1.
          2   -1    0    0  501    0  0.00000000000E+00 -0.00000000000E+00 -0.10085246686E+04  0.10085246686E+04  0.00000000000E+00 0. -1.
         25    2    1    2    0    0  0.30542649594E+02 -0.10589701181E+02 -0.60806904420E+03  0.62164349194E+03  0.12509066047E+03 0.  0.
          5    1    3    3  502    0 -0.10049691237E+02  0.43331607601E+01  0.30567890850E+00  0.11719147398E+02  0.41800000000E+01 0.  1.
         -5    1    3    3    0  502  0.40592340832E+02 -0.14922861941E+02 -0.60837472311E+03  0.60992434454E+03  0.41800000000E+01 0.  1.
        -11    1    1    2    0    0  0.26910628226E+02  0.24522468815E+02 -0.18789965175E+03  0.19139438998E+03  0.00000000000E+00 0.  1.
         11    1    1    2    0    0 -0.57453277820E+02 -0.13932767634E+02 -0.19973873890E+03  0.20830402052E+03  0.00000000000E+00 0. -1.
</event>
<event>
 7    1  0.2556591E-009  0.1025584E+03  0.7561462E-02  0.1275006E+00
          1   -1    0    0  501    0  0.00000000000E+00  0.00000000000E+00  0.13563082747E+04  0.13563082747E+04  0.00000000000E+00 0. -1.
         -1   -1    0    0    0  501 -0.00000000000E+00 -0.00000000000E+00 -0.19929549248E+02  0.19929549248E+02  0.00000000000E+00 0.  1.
         25    2    1    2    0    0  0.64110573222E+02 -0.41366150482E+02  0.11045973153E+04  0.11142729622E+04  0.12509069259E+03 0.  0.
          5    1    3    3  502    0 -0.12400355880E+02 -0.16329483969E+02  0.29558131629E+02  0.36215692980E+02  0.41800000000E+01 0. -1.
         -5    1    3    3    0  502  0.76510929102E+02 -0.25036666513E+02  0.10750391837E+04  0.10780572692E+04  0.41800000000E+01 0. -1.
        -11    1    1    2    0    0 -0.79380861683E+02  0.31519367268E+02  0.22790881600E+03  0.24338697608E+03  0.00000000000E+00 0. -1.
         11    1    1    2    0    0  0.15270288461E+02  0.98467832141E+01  0.38725941457E+01  0.18577885638E+02  0.00000000000E+00 0.  1.
</event>
<event>
 7    1  0.2556591E-009  0.1210246E+03  0.7561462E-02  0.1241416E+00
          1   -1    0    0  501    0  0.00000000000E+00  0.00000000000E+00  0.87167955602E+02  0.87167955602E+02  0.00000000000E+00 0. -1.
         -1   -1    0    0    0  501 -0.00000000000E+00 -0.00000000000E+00 -0.17331634807E+03  0.17331634807E+03  0.00000000000E+00 0.  1.
         25    2    1    2    0    0  0.57224812666E+02 -0.17006793814E+02 -0.53145008519E+02  0.14844201235E+03  0.12508688532E+03 0.  0.
          5    1    3    3  502    0 -0.16600665950E+01 -0.63146429032E+02 -0.18943329091E+02  0.66079871653E+02  0.41800000000E+01 0. -1.
         -5    1    3    3    0  502  0.58884879261E+02  0.46139635218E+02 -0.34201679428E+02  0.82362140692E+02  0.41800000000E+01 0. -1.
        -11    1    1    2    0    0 -0.72818655154E+02 -0.91236806085E+01 -0.10367538063E+02  0.74116691317E+02  0.00000000000E+00 0.  1.
         11    1    1    2    0    0  0.15593842488E+02  0.26130474423E+02 -0.22635845883E+02  0.37925600008E+02  0.00000000000E+00 0. -1.
</event>
<event>
 7    1  0.2556591E-009  0.1280997E+03  0.7561462E-02  0.1230303E+00
          2   -1    0    0  501    0  0.00000000000E+00  0.00000000000E+00  0.23239691405E+03  0.23239691405E+03  0.00000000000E+00 0. -1.
         -2   -1    0    0    0  501 -0.00000000000E+00 -0.00000000000E+00 -0.15549182580E+03  0.15549182580E+03  0.00000000000E+00 0.  1.
         25    2    1    2    0    0  0.83535151202E+02 -0.91345618370E+02  0.13469065720E+03  0.22160972098E+03  0.12508857588E+03 0.  0.
          5    1    3    3  502    0  0.76062748844E+02 -0.66716598402E+02  0.15731453636E+03  0.18708816642E+03  0.41800000000E+01 0.  1.
         -5    1    3    3    0  502  0.74724023588E+01 -0.24629019968E+02 -0.22623879158E+02  0.34521554567E+02  0.41800000000E+01 0.  1.
        -11    1    1    2    0    0 -0.74998786194E+02  0.59044498014E+02  0.45437629092E+01  0.95560014952E+02  0.00000000000E+00 0. -1.
         11    1    1    2    0    0 -0.85363650080E+01  0.32301120356E+02 -0.62329331858E+02  0.70719003908E+02  0.00000000000E+00 0.  1.
</event>
<event>
 7    1  0.2556591E-009  0.9237685E+02  0.7561462E-02  0.1297196E+00
         -3   -1    0    0    0  501 -0.00000000000E+00  0.00000000000E+00  0.14243822447E+03  0.14243822447E+03  0.00000000000E+00 0.  1.
          3   -1    0    0  501    0  0.00000000000E+00 -0.00000000000E+00 -0.89727369930E+02  0.89727369930E+02  0.00000000000E+00 0. -1.
         25    2    1    2    0    0 -0.28773493429E+02 -0.10986937693E+02  0.16443444351E+02  0.12987103451E+03  0.12508985578E+03 0.  0.
          5    1    3    3  502    0 -0.29539934090E+02  0.53750222121E+02 -0.46527226333E+01  0.61650744618E+02  0.41800000000E+01 0. -1.
         -5    1    3    3    0  502  0.76644066071E+00 -0.64737159814E+02  0.21096166984E+02  0.68220289896E+02  0.41800000000E+01 0. -1.
        -11    1    1    2    0    0 -0.41606680075E+00  0.25707533805E+02 -0.23072431056E+02  0.34545440810E+02  0.00000000000E+00 0. -1.
         11    1    1    2    0    0  0.29189560230E+02 -0.14720596112E+02  0.59339841246E+02  0.67749119075E+02  0.00000000000E+00 0.  1.
</event>
<event>
 7    1  0.2556591E-009  0.1789484E+03  0.7561462E-02  0.1168825E+00
         -1   -1    0    0    0  501 -0.00000000000E+00  0.00000000000E+00  0.40439149849E+02  0.40439149849E+02  0.00000000000E+00 0.  1.
          1   -1    0    0  501    0  0.00000000000E+00 -0.00000000000E+00 -0.94440424753E+03  0.94440424753E+03  0.00000000000E+00 0. -1.
         25    2    1    2    0    0  0.55895072718E+02 -0.15280981143E+03 -0.48625437453E+03  0.52779373931E+03  0.12509123420E+03 0.  0.
          5    1    3    3  502    0 -0.15735101258E+02 -0.93932085737E+02 -0.35127768824E+03  0.36398395129E+03  0.41800000000E+01 0.  1.
         -5    1    3    3    0  502  0.71630173975E+02 -0.58877725696E+02 -0.13497668629E+03  0.16380978802E+03  0.41800000000E+01 0.  1.
        -11    1    1    2    0    0 -0.49205162024E+02  0.64209647709E+02 -0.10857212249E+03  0.13539546747E+03  0.00000000000E+00 0.  1.
         11    1    1    2    0    0 -0.66899106932E+01  0.88600163724E+02 -0.30913860066E+03  0.32165419061E+03  0.00000000000E+00 0. -1.
</event>
<event>
 7    1  0.2556591E-009  0.8615421E+02  0.7561462E-02  0.1312441E+00
          3   -1    0    0  501    0  0.00000000000E+00  0.00000000000E+00  0.10560210675E+03  0.10560210675E+03  0.00000000000E+00 0. -1.
         -3   -1    0    0    0  501 -0.00000000000E+00 -0.00000000000E+00 -0.12879553079E+03  0.12879553079E+03  0.00000000000E+00 0.  1.
         25    2    1    2    0    0 -0.14052217657E+02  0.35001481925E+02 -0.33389994380E+02  0.13485226447E+03  0.12509065892E+03 0.  0.
          5    1    3    3  502    0  0.14714718465E+02  0.76634798199E+02 -0.30836953807E+02  0.84010745471E+02  0.41800000000E+01 0. -1.
         -5    1    3    3    0  502 -0.28766936122E+02 -0.41633316274E+02 -0.25530405731E+01  0.50841518998E+02  0.41800000000E+01 0. -1.
        -11    1    1    2    0    0  0.30491002794E+01 -0.31770922053E+02  0.49336356259E+02  0.58760229318E+02  0.00000000000E+00 0. -1.
         11    1    1    2    0    0  0.11003117377E+02 -0.32305598721E+01 -0.39139785917E+02  0.40785143751E+02  0.00000000000E+00 0.  1.
</event>
<event>
 7    1  0.2556591E-009  0.1053728E+03  0.7561462E-02  0.1269387E+00
          1   -1    0    0  501    0  0.00000000000E+00  0.00000000000E+00  0.19412250135E+03  0.19412250135E+03  0.00000000000E+00 0. -1.
         -1   -1    0    0    0  501 -0.00000000000E+00 -0.00000000000E+00 -0.93331538895E+02  0.93331538895E+02  0.00000000000E+00 0.  1.
         25    2    1    2    0    0 -0.23217021632E+01  0.62698069966E+02  0.10878972004E+03  0.17725037673E+03  0.12508418999E+03 0.  0.
          5    1    3    3  502    0  0.53702095423E+02 -0.17828844074E+01  0.34697624710E+02  0.64097513916E+02  0.41800000000E+01 0. -1.
         -5    1    3    3    0  502 -0.56023797587E+02  0.64480954374E+02  0.74092095327E+02  0.11315286281E+03  0.41800000000E+01 0. -1.
        -11    1    1    2    0    0 -0.10154912088E+02 -0.56487618481E+02 -0.43532148381E+02  0.72034861170E+02  0.00000000000E+00 0.  1.
         11    1    1    2    0    0  0.12476614252E+02 -0.62104514855E+01  0.35533390795E+02  0.38168802342E+02  0.00000000000E+00 0. -1.
</event>
<event>
 7    1  0.2556591E-009  0.8813443E+02  0.7561462E-02  0.1307433E+00
          2   -1    0    0  501    0  0.00000000000E+00  0.00000000000E+00  0.23330060481E+03  0.23330060481E+03  0.00000000000E+00 0. -1.
         -2   -1    0    0    0  501 -0.00000000000E+00 -0.00000000000E+00 -0.11584545044E+03  0.11584545044E+03  0.00000000000E+00 0.  1.
         25    2    1    2    0    0  0.29131079251E+02  0.75425243551E+02  0.16092608777E+03  0.21927662573E+03  0.12508975069E+03 0.  0.
          5    1    3    3  502    0  0.30146412932E+02  0.20488531005E+02 -0.11348329054E+02  0.38403685861E+02  0.41800000000E+01 0. -1.
         -5    1    3    3    0  502 -0.10153336806E+01  0.54936712546E+02  0.17227441682E+03  0.18087293987E+03  0.41800000000E+01 0. -1.
        -11    1    1    2    0    0 -0.29598561062E+02 -0.43896750248E+02 -0.70618679756E+02  0.88260962094E+02  0.00000000000E+00 0.  1.
         11    1    1    2    0    0  0.46748181085E+00 -0.31528493303E+02  0.27147746362E+02  0.41608467428E+02  0.00000000000E+00 0. -1.
</event>
<event>
 7    1  0.2556591E-009  0.1486040E+03  0.7561462E-02  0.1202199E+00
          1   -1    0    0  501    0  0.00000000000E+00  0.00000000000E+00  0.49810735275E+02  0.49810735275E+02  0.00000000000E+00 0. -1.
         -1   -1    0    0    0  501 -0.00000000000E+00 -0.00000000000E+00 -0.84851206752E+03  0.84851206752E+03  0.00000000000E+00 0.  1.
         25    2    1    2    0    0 -0.22300744409E+02 -0.11131358936E+03 -0.12811760026E+03  0.21201115599E+03  0.12508625979E+03 0.  0.
          5    1    3    3  502    0 -0.35945908152E+02  0.11587415921E+02 -0.59311251660E+02  0.70439147454E+02  0.41800000000E+01 0.  1.
         -5    1    3    3    0  502  0.13645163743E+02 -0.12290100528E+03 -0.68806348604E+02  0.14157200853E+03  0.41800000000E+01 0.  1.
        -11    1    1    2    0    0  0.37209259203E+02  0.11436482155E+03 -0.64808710375E+03  0.65915152690E+03  0.00000000000E+00 0.  1.
         11    1    1    2    0    0 -0.14908514794E+02 -0.30512321886E+01 -0.22496628240E+02  0.27160119907E+02  0.00000000000E+00 0. -1.
</event>
<event>
 7    1  0.2556591E-009  0.1175725E+03  0.7561462E-02  0.1247156E+00
          2   -1    0    0  501    0  0.00000000000E+00  0.00000000000E+00  0.16696247044E+03  0.16696247044E+03  0.00000000000E+00 0. -1.
         -2   -1    0    0    0  501 -0.00000000000E+00 -0.00000000000E+00 -0.11335207278E+03  0.11335207278E+03  0.00000000000E+00 0.  1.
         25    2    1    2    0    0  0.25217845716E+02 -0.44638726794E+02  0.96278106983E+02  0.16596965020E+03  0.12509154739E+03 0.  0.
          5    1    3    3  502    0  0.69818261417E+02 -0.54582122121E+02  0.56017047995E+02  0.10492463842E+03  0.41800000000E+01 0.  1.
         -5    1    3    3    0  502 -0.44600415701E+02  0.99433953271E+01  0.40261058988E+02  0.61045011771E+02  0.41800000000E+01 0.  1.
        -11    1    1    2    0    0  0.11406980020E+02  0.59815707636E+02 -0.43259564784E+02  0.74695568935E+02  0.00000000000E+00 0.  1.
         11    1    1    2    0    0 -0.36624825737E+02 -0.15176980842E+02  0.59185546246E+00  0.39649324088E+02  0.00000000000E+00 0. -1.
</event>
<event>
 7    1  0.2556591E-009  0.1639821E+03  0.7561462E-02  0.1184273E+00
          2   -1    0    0  501    0  0.00000000000E+00  0.00000000000E+00  0.11941333780E+04  0.11941333780E+04  0.00000000000E+00 0. -1.
         -2   -1    0    0    0  501 -0.00000000000E+00 -0.00000000000E+00 -0.26259437927E+02  0.26259437927E+02  0.00000000000E+00 0.  1.
         25    2    1    2    0    0 -0.41110626871E+02 -0.12161461224E+03  0.79635681858E+03  0.81628088063E+03  0.12510034386E+03 0.  0.
          5    1    3    3  502    0 -0.43904659906E+02  0.89081920912E+01  0.13997850806E+03  0.14703207190E+03  0.41800000000E+01 0. -1.
         -5    1    3    3    0  502  0.27940330350E+01 -0.13052280433E+03  0.65637831052E+03  0.66924880873E+03  0.41800000000E+01 0. -1.
        -11    1    1    2    0    0  0.14934395391E+02  0.12506019670E+03  0.34228408557E+03  0.36472110468E+03  0.00000000000E+00 0.  1.
         11    1    1    2    0    0  0.26176231480E+02 -0.34455844653E+01  0.29233035897E+02  0.39390830590E+02  0.00000000000E+00 0. -1.
</event>
<event>
 7    1  0.2556591E-009  0.1696693E+03  0.7561462E-02  0.1178193E+00
          2   -1    0    0  501    0  0.00000000000E+00  0.00000000000E+00  0.15643449745E+03  0.15643449745E+03  0.00000000000E+00 0. -1.
         -2   -1    0    0    0  501 -0.00000000000E+00 -0.00000000000E+00 -0.20096158114E+03  0.20096158114E+03  0.00000000000E+00 0.  1.
         25    2    1    2    0    0 -0.82226789304E+02 -0.11216087401E+03 -0.57983555776E+01  0.18714434153E+03  0.12509227436E+03 0.  0.
          5    1    3    3  502    0 -0.99315779650E+02 -0.52823996583E+02 -0.36126812607E+02  0.11822274608E+03  0.41800000000E+01 0. -1.
         -5    1    3    3    0  502  0.17088990346E+02 -0.59336877423E+02  0.30328457030E+02  0.68921595449E+02  0.41800000000E+01 0. -1.
        -11    1    1    2    0    0  0.84613840355E+02  0.41613252524E+02 -0.13315870148E+02  0.95228552247E+02  0.00000000000E+00 0. -1.
         11    1    1    2    0    0 -0.23870510511E+01  0.70547621482E+02 -0.25412857961E+02  0.75023184811E+02  0.00000000000E+00 0.  1.
</event>
<event>
 7    1  0.2556591E-009  0.8754773E+02  0.7561462E-02  0.1308901E+00
          1   -1    0    0  501    0  0.00000000000E+00  0.00000000000E+00  0.15369599525E+03  0.15369599525E+03  0.00000000000E+00 0. -1.
         -1   -1    0    0    0  501 -0.00000000000E+00 -0.00000000000E+00 -0.97540483368E+02  0.97540483368E+02  0.00000000000E+00 0.  1.
         25    2    1    2    0    0  0.80481682182E+01 -0.43224231717E+02 -0.61368420843E+01  0.13273984313E+03  0.12509635448E+03 0.  0.
          5    1    3    3  502    0 -0.10739908795E+01 -0.57260252125E+02 -0.55858570269E+02  0.80109563738E+02  0.41800000000E+01 0. -1.
         -5    1    3    3    0  502  0.91221590977E+01  0.14036020408E+02  0.49721728185E+02  0.52630279395E+02  0.41800000000E+01 0. -1.
        -11    1    1    2    0    0  0.35383287279E+02  0.44642541168E+02  0.40420801200E+02  0.69848225963E+02  0.00000000000E+00 0.  1.
         11    1    1    2    0    0 -0.43431455497E+02 -0.14183094510E+01  0.21871552762E+02  0.48648409516E+02  0.00000000000E+00 0. -1.
</event>
<event>
 7    1  0.2556591E-009  0.6996483E+02  0.7561462E-02  0.1360213E+00
         -1   -1    0    0    0  501 -0.00000000000E+00  0.00000000000E+00  0.21941058024E+02  0.21941058024E+02  0.00000000000E+00 0.  1.
          1   -1    0    0  501    0  0.00000000000E+00 -0.00000000000E+00 -0.62356576478E+03  0.62356576478E+03  0.00000000000E+00 0. -1.
         25    2    1    2    0    0  0.39142213047E+02  0.13530394056E+02 -0.29149235697E+03  0.31989048616E+03  0.12508774744E+03 0.  0.
          5    1    3    3  502    0  0.19878909971E+02  0.18911687852E+02 -0.71608824317E-01  0.27754288441E+02  0.41800000000E+01 0.  1.
         -5    1    3    3    0  502  0.19263303076E+02 -0.53812937960E+01 -0.29142074814E+03  0.29213619772E+03  0.41800000000E+01 0.  1.
        -11    1    1    2    0    0 -0.47732122710E+02 -0.41023506496E+02 -0.14618886581E+03  0.15916176711E+03  0.00000000000E+00 0.  1.
         11    1    1    2    0    0  0.85899096631E+01  0.27493112440E+02 -0.16394348398E+03  0.16645456953E+03  0.00000000000E+00 0. -1.
</event>
<event>
 7    1  0.2556591E-009  0.1052268E+03  0.7561462E-02  0.1269673E+00
          2   -1    0    0  501    0  0.00000000000E+00  0.00000000000E+00  0.66570388393E+02  0.66570388393E+02  0.00000000000E+00 0. -1.
         -2   -1    0    0    0  501 -0.00000000000E+00 -0.00000000000E+00 -0.20321829646E+03  0.20321829646E+03  0.00000000000E+00 0.  1.
         25    2    1    2    0    0 -0.33165015150E+02 -0.13568341361E+02 -0.47903379339E+02  0.13865577936E+03  0.12508666308E+03 0.  0.
          5    1    3    3  502    0  0.46915886544E+02  0.12791859489E+01 -0.27623178110E+02  0.54619127563E+02  0.41800000000E+01 0. -1.
         -5    1    3    3    0  502 -0.80080901693E+02 -0.14847527310E+02 -0.20280201229E+02  0.84036651796E+02  0.41800000000E+01 0. -1.
        -11    1    1    2    0    0  0.51898313127E+02 -0.87633892644E+01 -0.87312004665E+02  0.10194909541E+03  0.00000000000E+00 0.  1.
         11    1    1    2    0    0 -0.18733297977E+02  0.22331730625E+02 -0.14325240655E+01  0.29183810084E+02  0.00000000000E+00 0. -1.
</event>
<event>
 7    1  0.2556591E-009  0.9385543E+02  0.7561462E-02  0.1293775E+00
         -1   -1    0    0    0  501 -0.00000000000E+00  0.00000000000E+00  0.39679188785E+03  0.39679188785E+03  0.00000000000E+00 0.  1.
          1   -1    0    0  501    0  0.00000000000E+00 -0.00000000000E+00 -0.52293983864E+02  0.52293983864E+02  0.00000000000E+00 0. -1.
         25    2    1    2    0    0  0.69700115029E+02 -0.15426223558E+02  0.28261828694E+03  0.31720338314E+03  0.12509522674E+03 0.  0.
          5    1    3    3  502    0  0.88148955883E+02 -0.18697185030E+02  0.10448103253E+03  0.13803471197E+03  0.41800000000E+01 0. -1.
         -5    1    3    3    0  502 -0.18448840854E+02  0.32709614723E+01  0.17813725441E+03  0.17916867116E+03  0.41800000000E+01 0. -1.
        -11    1    1    2    0    0 -0.25446211500E+02  0.21911555320E+02 -0.19637975428E+02  0.38900848515E+02  0.00000000000E+00 0. -1.
         11    1    1    2    0    0 -0.44253903529E+02 -0.64853317624E+01  0.81517592475E+02  0.92981640062E+02  0.00000000000E+00 0.  1.
</event>
<event>
 7    1  0.2556591E-009  0.1392258E+03  0.7561462E-02  0.1214375E+00
         -1   -1    0    0    0  501 -0.00000000000E+00  0.00000000000E+00  0.18338282869E+03  0.18338282869E+03  0.00000000000E+00 0.  1.
          1   -1    0    0  501    0  0.00000000000E+00 -0.00000000000E+00 -0.20266217798E+03  0.20266217798E+03  0.00000000000E+00 0. -1.
         25    2    1    2    0    0 -0.10770353559E+03  0.57552901708E+02  0.90874301868E+02  0.19702381942E+03  0.12509140100E+03 0.  0.
          5    1    3    3  502    0 -0.42180258777E+02  0.37158020931E+02  0.11175975762E+03  0.12517031826E+03  0.41800000000E+01 0. -1.
         -5    1    3    3    0  502 -0.65523276817E+02  0.20394880777E+02 -0.20885455752E+02  0.71853501158E+02  0.41800000000E+01 0. -1.
        -11    1    1    2    0    0  0.29346126857E+02 -0.68208560698E+02 -0.58999728439E+02  0.94839711460E+02  0.00000000000E+00 0.  1.
         11    1    1    2    0    0  0.78357408737E+02  0.10655658989E+02 -0.51153922725E+02  0.94181475793E+02  0.00000000000E+00 0. -1.
</event>
<event>
 7    1  0.2556591E-009  0.1163884E+03  0.7561462E-02  0.1249177E+00
         -1   -1    0    0    0  501 -0.00000000000E+00  0.00000000000E+00  0.20948569877E+03  0.20948569877E+03  0.00000000000E+00 0.  1.
          1   -1    0    0  501    0  0.00000000000E+00 -0.00000000000E+00 -0.94167757489E+02  0.94167757489E+02  0.00000000000E+00 0. -1.
         25    2    1    2    0    0 -0.27454514185E+02  0.60912515660E+02 -0.11489555759E+01  0.14182000958E+03  0.12509000802E+03 0.  0.
          5    1    3    3  502    0  0.11921115245E+02  0.88016859887E+02  0.16978297217E+02  0.90525220737E+02  0.41800000000E+01 0.  1.
         -5    1    3    3    0  502 -0.39375629430E+02 -0.27104344227E+02 -0.18127252793E+02  0.51294788846E+02  0.41800000000E+01 0. -1.
        -11    1    1    2    0    0 -0.21811377010E+02 -0.32072743937E+02  0.85051706940E+01  0.39708122585E+02  0.00000000000E+00 0. -1.
         11    1    1    2    0    0  0.49265891194E+02 -0.28839771723E+02  0.10796172616E+03  0.12212532409E+03  0.00000000000E+00 0.  1.
</event>
<event>
 7    1  0.2556591E-009  0.1150877E+03  0.7561462E-02  0.1251428E+00
         -1   -1    0    0    0  501 -0.00000000000E+00  0.00000000000E+00  0.24432226580E+03  0.24432226580E+03  0.00000000000E+00 0.  1.
          1   -1    0    0  501    0  0.00000000000E+00 -0.00000000000E+00 -0.81116737329E+02  0.81116737329E+02  0.00000000000E+00 0. -1.
         25    2    1    2    0    0 -0.37899230403E+02  0.62976264632E+02  0.13076815607E+03  0.19532210497E+03  0.12509217591E+03 0.  0.
          5    1    3    3  502    0 -0.81522323737E+02  0.43260167685E+02  0.10807461264E+03  0.14217920267E+03  0.41800000000E+01 0. -1.
         -5    1    3    3    0  502  0.43623093334E+02  0.19716096946E+02  0.22693543429E+02  0.53142902293E+02  0.41800000000E+01 0. -1.
        -11    1    1    2    0    0 -0.71524806485E+01 -0.37100614540E+02 -0.30463033581E+02  0.48534626749E+02  0.00000000000E+00 0. -1.
         11    1    1    2    0    0  0.45051711051E+02 -0.25875650092E+02  0.62900405987E+02  0.81582271417E+02  0.00000000000E+00 0.  1.
</event>
<event>
 7    1  0.2556591E-009  0.1201207E+03  0.7561462E-02  0.1242898E+00
         -3   -1    0    0    0  501 -0.00000000000E+00  0.00000000000E+00  0.17388757932E+02  0.17388757932E+02  0.00000000000E+00 0.  1.
          3   -1    0    0  501    0  0.00000000000E+00 -0.00000000000E+00 -0.95839096135E+03  0.95839096135E+03  0.00000000000E+00 0. -1.
         25    2    1    2    0    0  0.37473280094E+02  0.37747248383E+02 -0.68410216535E+03  0.69747584976E+03  0.12509071460E+03 0.  0.
          5    1    3    3  502    0  0.37683331821E+02 -0.41266639076E+02 -0.32069851688E+03  0.32555795202E+03  0.41800000000E+01 0. -1.
         -5    1    3    3    0  502 -0.21005172691E+00  0.79013887459E+02 -0.36340364848E+03  0.37191789774E+03  0.41800000000E+01 0. -1.
        -11    1    1    2    0    0 -0.12945725911E+02  0.30189623733E+02 -0.57446360513E+02  0.66174689547E+02  0.00000000000E+00 0.  1.
         11    1    1    2    0    0 -0.24527554184E+02 -0.67936872116E+02 -0.19945367755E+03  0.21212917997E+03  0.00000000000E+00 0. -1.
</event>
<event>
 7    1  0.2556591E-009  0.2476811E+03  0.7561462E-02  0.1114779E+00
         -1   -1    0    0    0  501 -0.00000000000E+00  0.00000000000E+00  0.62623175948E+02  0.62623175948E+02  0.00000000000E+00 0.  1.
          1   -1    0    0  501    0  0.00000000000E+00 -0.00000000000E+00 -0.22694943283E+04  0.22694943283E+04  0.00000000000E+00 0. -1.
         25    2    1    2    0    0  0.24727856293E+02 -0.23904516904E+03 -0.19481364187E+04  0.19668850515E+04  0.12508892822E+03 0.  0.
          5    1    3    3  502    0  0.21878530890E+02 -0.15364283564E+02 -0.57531987784E+03  0.57595587120E+03  0.41800000000E+01 0. -1.
         -5    1    3    3    0  502  0.28493254030E+01 -0.22368088547E+03 -0.13728165409E+04  0.13909291803E+04  0.41800000000E+01 0. -1.
        -11    1    1    2    0    0  0.12836098732E+02  0.87337485007E+02 -0.15266193137E+03  0.17634700737E+03  0.00000000000E+00 0. -1.
         11    1    1    2    0    0 -0.37563955025E+02  0.15170768403E+03 -0.10607280224E+03  0.18888544540E+03  0.00000000000E+00 0.  1.
</event>
<event>
 7    1  0.2556591E-009  0.1625088E+03  0.7561462E-02  0.1185893E+00
          4   -1    0    0  501    0  0.00000000000E+00  0.00000000000E+00  0.17802560537E+03  0.17802560537E+03  0.00000000000E+00 0. -1.
         -4   -1    0    0    0  501 -0.00000000000E+00 -0.00000000000E+00 -0.25622494802E+03  0.25622494802E+03  0.00000000000E+00 0.  1.
         25    2    1    2    0    0  0.12040047414E+02  0.15905483454E+03  0.51678519781E+02  0.20919454390E+03  0.12509310396E+03 0.  0.
          5    1    3    3  502    0 -0.12197422611E+02  0.10467453730E+03  0.89680069940E+02  0.13843960135E+03  0.41800000000E+01 0.  1.
         -5    1    3    3    0  502  0.24237470025E+02  0.54380297243E+02 -0.38001550158E+02  0.70754942554E+02  0.41800000000E+01 0.  1.
        -11    1    1    2    0    0  0.19918219719E+01 -0.25741759204E+02  0.13196683701E+02  0.28995826983E+02  0.00000000000E+00 0. -1.
         11    1    1    2    0    0 -0.14031869386E+02 -0.13331307534E+03 -0.14307454613E+03  0.19606018251E+03  0.00000000000E+00 0.  1.
</event>
<event>
 7    1  0.2556591E-009  0.9998981E+02  0.7561462E-02  0.1280317E+00
          1   -1    0    0  501    0  0.00000000000E+00  0.00000000000E+00  0.38675537902E+03  0.38675537902E+03  0.00000000000E+00 0. -1.
         -1   -1    0    0    0  501 -0.00000000000E+00 -0.00000000000E+00 -0.41782440609E+02  0.41782440609E+02  0.00000000000E+00 0.  1.
         25    2    1    2    0    0 -0.10327442697E+02 -0.63710893261E+02  0.22752399222E+03  0.26754418368E+03  0.12508792586E+03 0.  0.
          5    1    3    3  502    0  0.36367444608E+02  0.18246929863E+02  0.10623213777E+03  0.11383444545E+03  0.41800000000E+01 0. -1.
         -5    1    3    3    0  502 -0.46694887305E+02 -0.81957823124E+02  0.12129185445E+03  0.15370973823E+03  0.41800000000E+01 0. -1.
        -11    1    1    2    0    0  0.70940957423E+01  0.31692226017E+02 -0.63403366438E+01  0.33089624553E+02  0.00000000000E+00 0.  1.
         11    1    1    2    0    0  0.32333469546E+01  0.32018667244E+02  0.12378928284E+03  0.12790401140E+03  0.00000000000E+00 0. -1.
</event>
<event>
 7    1  0.2556591E-009  0.1596168E+03  0.7561462E-02  0.1189130E+00
         -2   -1    0    0    0  501 -0.00000000000E+00  0.00000000000E+00  0.97806444119E+02  0.97806444119E+02  0.00000000000E+00 0.  1.
          2   -1    0    0  501    0  0.00000000000E+00 -0.00000000000E+00 -0.32166396167E+03  0.32166396167E+03  0.00000000000E+00 0. -1.
         25    2    1    2    0    0 -0.10654974089E+03  0.86758098960E+02 -0.15188490966E+03  0.23999359432E+03  0.12509230398E+03 0.  0.
          5    1    3    3  502    0 -0.11715815595E+03  0.99504433574E+02 -0.15925167921E+03  0.22137239109E+03  0.41800000000E+01 0. -1.
         -5    1    3    3    0  502  0.10608415060E+02 -0.12746334614E+02  0.73667695500E+01  0.18621203231E+02  0.41800000000E+01 0. -1.
        -11    1    1    2    0    0  0.87063480320E+02 -0.36399388497E+02 -0.64711573912E+01  0.94587742157E+02  0.00000000000E+00 0.  1.
         11    1    1    2    0    0  0.19486260572E+02 -0.50358710462E+02 -0.65501450502E+02  0.84889069310E+02  0.00000000000E+00 0. -1.
</event>
<event>
 7    1  0.2556591E-009  0.1604909E+03  0.7561462E-02  0.1188144E+00
          1   -1    0    0  501    0  0.00000000000E+00  0.00000000000E+00  0.16580841162E+03  0.16580841162E+03  0.00000000000E+00 0. -1.
         -1   -1    0    0    0  501 -0.00000000000E+00 -0.00000000000E+00 -0.21299836282E+03  0.21299836282E+03  0.00000000000E+00 0.  1.
         25    2    1    2    0    0  0.13207233536E+03 -0.44712429505E+01 -0.10214327035E+03  0.20867398283E+03  0.12509392332E+03 0.  0.
          5    1    3    3  502    0  0.14603926823E+03  0.43281964258E+01 -0.51056565064E+02  0.15482392058E+03  0.41800000000E+01 0. -1.
         -5    1    3    3    0  502 -0.13966932863E+02 -0.87994393763E+01 -0.51086705288E+02  0.53850062248E+02  0.41800000000E+01 0. -1.
        -11    1    1    2    0    0 -0.50218083355E+02  0.44112989281E+02  0.40190517489E+02  0.77994162700E+02  0.00000000000E+00 0. -1.
         11    1    1    2    0    0 -0.81854252009E+02 -0.39641746331E+02  0.14762801666E+02  0.92138628909E+02  0.00000000000E+00 0.  1.
</event>
<event>
 7    1  0.2556591E-009  0.5737689E+02  0.7561462E-02  0.1409181E+00
          3   -1    0    0  501    0  0.00000000000E+00  0.00000000000E+00  0.39312044391E+03  0.39312044391E+03  0.00000000000E+00 0. -1.
         -3   -1    0    0    0  501 -0.00000000000E+00 -0.00000000000E+00 -0.54445991338E+02  0.54445991338E+02  0.00000000000E+00 0.  1.
         25    2    1    2    0    0 -0.27127720910E+02 -0.21506937677E+02  0.32298375959E+03  0.34808729573E+03  0.12509114630E+03 0.  0.
          5    1    3    3  502    0 -0.14363233629E+02 -0.29625327473E+02  0.99317007313E+01  0.34642078280E+02  0.41800000000E+01 0.  1.
         -5    1    3    3    0  502 -0.12764487281E+02  0.81183897959E+01  0.31305205885E+03  0.31344521745E+03  0.41800000000E+01 0.  1.
        -11    1    1    2    0    0 -0.10959518465E+02  0.25323753271E+02 -0.29407580291E+02  0.40326285513E+02  0.00000000000E+00 0.  1.
         11    1    1    2    0    0  0.38087239375E+02 -0.38168155946E+01  0.45098273277E+02  0.59152854006E+02  0.00000000000E+00 0. -1.
</event>
<event>
 7    1  0.2556591E-009  0.1376967E+03  0.7561462E-02  0.1216462E+00
          1   -1    0    0  501    0  0.00000000000E+00  0.00000000000E+00  0.72599087555E+03  0.72599087555E+03  0.00000000000E+00 0. -1.
         -1   -1    0    0    0  501 -0.00000000000E+00 -0.00000000000E+00 -0.42888923750E+02  0.42888923750E+02  0.00000000000E+00 0.  1.
         25    2    1    2    0    0 -0.10369173903E+03  0.72088072685E+02  0.23875876322E+03  0.29765930132E+03  0.12508655276E+03 0.  0.
          5    1    3    3  502    0 -0.42812420891E+02  0.25852268782E+02  0.35593927268E+01  0.50312869729E+02  0.41800000000E+01 0.  1.
         -5    1    3    3    0  502 -0.60879318136E+02  0.46235803903E+02  0.23519937050E+03  0.24734643159E+03  0.41800000000E+01 0.  1.
        -11    1    1    2    0    0 -0.11795752722E+02 -0.17003231761E+02  0.23292209899E+02  0.31157289911E+02  0.00000000000E+00 0.  1.
         11    1    1    2    0    0  0.11548749175E+03 -0.55084840924E+02  0.42105097868E+03  0.44006320807E+03  0.00000000000E+00 0. -1.
</event>
<event>
 7    1  0.2556591E-009  0.4469720E+03  0.7561462E-02  0.1028629E+00
         -1   -1    0    0    0  501 -0.00000000000E+00  0.00000000000E+00  0.10174579642E+03  0.10174579642E+03  0.00000000000E+00 0.  1.
          1   -1    0    0  501    0  0.00000000000E+00 -0.00000000000E+00 -0.20255589783E+04  0.20255589783E+04  0.00000000000E+00 0. -1.
         25    2    1    2    0    0  0.97820167678E+02 -0.42808665528E+03 -0.87165526803E+03  0.98400111053E+03  0.12509320370E+03 0.  0.
          5    1    3    3  502    0  0.50862033322E+02 -0.39237449103E+03 -0.78505315642E+03  0.87913060375E+03  0.41800000000E+01 0. -1.
         -5    1    3    3    0  502  0.46958134357E+02 -0.35712164253E+02 -0.86602111606E+02  0.10487050678E+03  0.41800000000E+01 0. -1.
        -11    1    1    2    0    0 -0.69482801300E+02  0.30595471521E+03 -0.64464980352E+03  0.71694457012E+03  0.00000000000E+00 0.  1.
         11    1    1    2    0    0 -0.28337366379E+02  0.12213194007E+03 -0.40750811029E+03  0.42635909404E+03  0.00000000000E+00 0. -1.
</event>
<event>
 7    1  0.2556591E-009  0.1457413E+03  0.7561462E-02  0.1205806E+00
          2   -1    0    0  501    0  0.00000000000E+00  0.00000000000E+00  0.37240542689E+03  0.37240542689E+03  0.00000000000E+00 0. -1.
         -2   -1    0    0    0  501 -0.00000000000E+00 -0.00000000000E+00 -0.14256711031E+03  0.14256711031E+03  0.00000000000E+00 0.  1.
         25    2    1    2    0    0  0.17350555728E+02 -0.13924586314E+03 -0.44728562461E+02  0.19323388553E+03  0.12509291758E+03 0.  0.
          5    1    3    3  502    0  0.19555065815E+02 -0.80508741252E+02 -0.87384072366E+02  0.12048861573E+03  0.41800000000E+01 0. -1.
         -5    1    3    3    0  502 -0.22045100863E+01 -0.58737121889E+02  0.42655509905E+02  0.72745269797E+02  0.41800000000E+01 0. -1.
        -11    1    1    2    0    0  0.14068506936E+02  0.11869800949E+02  0.10875718541E+03  0.11030385506E+03  0.00000000000E+00 0. -1.
         11    1    1    2    0    0 -0.31419062664E+02  0.12737606219E+03  0.16580969363E+03  0.21143479662E+03  0.00000000000E+00 0.  1.
</event>
<event>
 7    1  0.2556591E-009  0.1264032E+03  0.7561462E-02  0.1232892E+00
         -3   -1    0    0    0  501 -0.00000000000E+00  0.00000000000E+00  0.23651994551E+02  0.23651994551E+02  0.00000000000E+00 0.  1.
          3   -1    0    0  501    0  0.00000000000E+00 -0.00000000000E+00 -0.76638662837E+03  0.76638662837E+03  0.00000000000E+00 0. -1.
         25    2    1    2    0    0  0.50259156452E+02  0.57590697091E+02 -0.46759614133E+03  0.49003661787E+03  0.12508822596E+03 0.  0.
          5    1    3    3  502    0  0.41381630720E+02  0.95918270619E+02 -0.37593105941E+03  0.39019788291E+03  0.41800000000E+01 0. -1.
         -5    1    3    3    0  502  0.88775257326E+01 -0.38327573528E+02 -0.91665081918E+02  0.99838734961E+02  0.41800000000E+01 0. -1.
        -11    1    1    2    0    0 -0.68612685590E+02 -0.58716644532E+02 -0.26273437479E+03  0.27782133947E+03  0.00000000000E+00 0. -1.
         11    1    1    2    0    0  0.18353529138E+02  0.11259474413E+01 -0.12404117701E+02  0.22180665576E+02  0.00000000000E+00 0.  1.
</event>
<event>
 7    1  0.2556591E-009  0.8827742E+02  0.7561462E-02  0.1307078E+00
         -2   -1    0    0    0  501 -0.00000000000E+00  0.00000000000E+00  0.65042975208E+02  0.65042975208E+02  0.00000000000E+00 0. -1.
          2   -1    0    0  501    0  0.00000000000E+00 -0.00000000000E+00 -0.19796326109E+03  0.19796326109E+03  0.00000000000E+00 0.  1.
         25    2    1    2    0    0 -0.20453931328E+02  0.47664015140E+01 -0.10136394935E+03  0.16237037890E+03  0.12509359626E+03 0.  0.
          5    1    3    3  502    0 -0.51365526986E+02  0.24271245588E+02 -0.11062793435E+03  0.12443280509E+03  0.41800000000E+01 0. -1.
         -5    1    3    3    0  502  0.30911595658E+02 -0.19504844074E+02  0.92639849915E+01  0.37937573808E+02  0.41800000000E+01 0. -1.
        -11    1    1    2    0    0  0.48043732199E+02  0.13265162632E+02 -0.42917708049E+02  0.65773052289E+02  0.00000000000E+00 0.  1.
         11    1    1    2    0    0 -0.27589800871E+02 -0.18031564146E+02  0.11361371519E+02  0.34862805114E+02  0.00000000000E+00 0. -1.
</event>
<event>
 7    1  0.2556591E-009  0.1373824E+03  0.7561462E-02  0.1216895E+00
         -1   -1    0    0    0  501 -0.00000000000E+00  0.00000000000E+00  0.11721934315E+03  0.11721934315E+03  0.00000000000E+00 0.  1.
          1   -1    0    0  501    0  0.00000000000E+00 -0.00000000000E+00 -0.22545841391E+03  0.22545841391E+03  0.00000000000E+00 0. -1.
         25    2    1    2    0    0  0.35981860048E+02  0.90548760137E+02 -0.13205121031E+03  0.20634110687E+03  0.12508140558E+03 0.  0.
          5    1    3    3  502    0 -0.39277060010E+02 -0.13226328544E+01 -0.37494312559E+02  0.54476900380E+02  0.41800000000E+01 0.  1.
         -5    1    3    3    0  502  0.75258920058E+02  0.91871392992E+02 -0.94556897754E+02  0.15186420649E+03  0.41800000000E+01 0.  1.
        -11    1    1    2    0    0  0.68560956373E+01 -0.67339467208E+02  0.46973739414E+02  0.82390181975E+02  0.00000000000E+00 0.  1.
         11    1    1    2    0    0 -0.42837955685E+02 -0.23209292929E+02 -0.23161599854E+02  0.53946468219E+02  0.00000000000E+00 0. -1.
</event>
<event>
 7    1  0.2556591E-009  0.2148917E+03  0.7561462E-02  0.1137750E+00
          1   -1    0    0  501    0  0.00000000000E+00  0.00000000000E+00  0.97334368392E+03  0.97334368392E+03  0.00000000000E+00 0. -1.
         -1   -1    0    0    0  501 -0.00000000000E+00 -0.00000000000E+00 -0.48505799443E+02  0.48505799443E+02  0.00000000000E+00 0.  1.
         25    2    1    2    0    0 -0.12915332694E+03  0.13521246582E+03  0.49307055449E+03  0.54196878942E+03  0.12509438126E+03 0.  0.
          5    1    3    3  502    0 -0.11133609632E+03  0.28383303599E+02  0.22133766561E+03  0.24941766755E+03  0.41800000000E+01 0. -1.
         -5    1    3    3    0  502 -0.17817230625E+02  0.10682916222E+03  0.27173288888E+03  0.29255112187E+03  0.41800000000E+01 0. -1.
        -11    1    1    2    0    0  0.51212438700E+02 -0.99945719556E+00  0.75063560282E+02  0.90874918842E+02  0.00000000000E+00 0.  1.
         11    1    1    2    0    0  0.77940888241E+02 -0.13421300863E+03  0.35670376970E+03  0.38900577510E+03  0.00000000000E+00 0. -1.
</event>
<event>
 7    1  0.3860091E-009  0.1273228E+03  0.7561462E-02  0.1231483E+00
         -2   -1    0    0    0  501 -0.00000000000E+00  0.00000000000E+00  0.15282743567E+02  0.15282743567E+02  0.00000000000E+00 0.  1.
          2   -1    0    0  501    0  0.00000000000E+00 -0.00000000000E+00 -0.12912976918E+04  0.12912976918E+04  0.00000000000E+00 0. -1.
         25    2    1    2    0    0  0.71114730578E+02  0.39100280141E+02 -0.86752460446E+03  0.88024548730E+03  0.12508813597E+03 0.  0.
          5    1    3    3  502    0 -0.23078566985E+02  0.33143641402E+02 -0.11799673689E+03  0.12478711286E+03  0.41800000000E+01 0. -1.
         -5    1    3    3    0  502  0.94193297562E+02  0.59566387388E+01 -0.74952786757E+03  0.75545837445E+03  0.41800000000E+01 0. -1.
        -11    1    1    2    0    0 -0.58007649732E+02  0.18194295496E+02 -0.16476544493E+03  0.17562338016E+03  0.00000000000E+00 0.  1.
         11    1    1    2    0    0 -0.13107080846E+02 -0.57294575636E+02 -0.24372489889E+03  0.25071156795E+03  0.00000000000E+00 0. -1.
</event>
<event>
 7    1  0.2556591E-009  0.9316766E+02  0.7561462E-02  0.1295357E+00
          1   -1    0    0  501    0  0.00000000000E+00  0.00000000000E+00  0.26348726793E+03  0.26348726793E+03  0.00000000000E+00 0. -1.
         -1   -1    0    0    0  501 -0.00000000000E+00 -0.00000000000E+00 -0.59867951768E+02  0.59867951768E+02  0.00000000000E+00 0.  1.
         25    2    1    2    0    0  0.34514464163E+02 -0.23950665841E+02  0.54605154128E+02  0.14280818672E+03  0.12509025824E+03 0.  0.
          5    1    3    3  502    0 -0.45449045785E+02 -0.21827395058E+02  0.30864071517E+02  0.59263093476E+02  0.41800000000E+01 0.  1.
         -5    1    3    3    0  502  0.79963509948E+02 -0.21232707827E+01  0.23741082611E+02  0.83545093247E+02  0.41800000000E+01 0.  1.
        -11    1    1    2    0    0 -0.18275492783E+00  0.21200270984E+02 -0.57740936827E+01  0.21973280297E+02  0.00000000000E+00 0.  1.
         11    1    1    2    0    0 -0.34331709235E+02  0.27503948570E+01  0.15478825572E+03  0.15857375268E+03  0.00000000000E+00 0. -1.
</event>
<event>
 7    1  0.2556591E-009  0.2831427E+03  0.7561462E-02  0.1093985E+00
         -1   -1    0    0    0  501 -0.00000000000E+00  0.00000000000E+00  0.38856867115E+02  0.38856867115E+02  0.00000000000E+00 0.  1.
          1   -1    0    0  501    0  0.00000000000E+00 -0.00000000000E+00 -0.22047997686E+04  0.22047997686E+04  0.00000000000E+00 0. -1.
         25    2    1    2    0    0 -0.17648213712E+03  0.20621514550E+03 -0.11346700275E+04  0.11733680118E+04  0.12508312715E+03 0.  0.
          5    1    3    3  502    0 -0.55186337812E+02  0.14217885395E+01 -0.31502220425E+03  0.31984998817E+03  0.41800000000E+01 0.  1.
         -5    1    3    3    0  502 -0.12129579931E+03  0.20479335696E+03 -0.81964782328E+03  0.85351802359E+03  0.41800000000E+01 0.  1.
        -11    1    1    2    0    0  0.77200953446E+02 -0.11176432375E+03 -0.67583536038E+03  0.68935091617E+03  0.00000000000E+00 0. -1.
         11    1    1    2    0    0  0.99281183671E+02 -0.94450821752E+02 -0.35543751362E+03  0.38093770783E+03  0.00000000000E+00 0.  1.
</event>
<event>
 7    1  0.2556591E-009  0.1390913E+03  0.7561462E-02  0.1214557E+00
         -1   -1    0    0    0  501 -0.00000000000E+00  0.00000000000E+00  0.29637600204E+03  0.29637600204E+03  0.00000000000E+00 0.  1.
          1   -1    0    0  501    0  0.00000000000E+00 -0.00000000000E+00 -0.72524178239E+02  0.72524178239E+02  0.00000000000E+00 0. -1.
         25    2    1    2    0    0  0.97373204743E+02  0.59415051786E+01  0.10892946889E+03  0.19243334234E+03  0.12509244408E+03 0.  0.
          5    1    3    3  502    0  0.22260700508E+02 -0.47157446739E+02  0.80606799851E+02  0.96095224398E+02  0.41800000000E+01 0. -1.
         -5    1    3    3    0  502  0.75112504235E+02  0.53098951917E+02  0.28322669036E+02  0.96338117942E+02  0.41800000000E+01 0. -1.
        -11    1    1    2    0    0 -0.44234536073E+02  0.42893929399E+02  0.49085067790E+02  0.78777707765E+02  0.00000000000E+00 0.  1.
         11    1    1    2    0    0 -0.53138668670E+02 -0.48835434577E+02  0.65837287124E+02  0.97689130174E+02  0.00000000000E+00 0. -1.
</event>
<event>
 7    1  0.2556591E-009  0.1066660E+03  0.7561462E-02  0.1266871E+00
          2   -1    0    0  501    0  0.00000000000E+00  0.00000000000E+00  0.34483875353E+03  0.34483875353E+03  0.00000000000E+00 0.  1.
         -2   -1    0    0    0  501 -0.00000000000E+00 -0.00000000000E+00 -0.56461741338E+02  0.56461741338E+02  0.00000000000E+00 0. -1.
         25    2    1    2    0    0 -0.62528545586E+01 -0.20383640625E+02  0.28138824770E+03  0.30867854464E+03  0.12509399258E+03 0.  0.
          5    1    3    3  502    0 -0.38097141811E+02 -0.60820526715E+02  0.19742498078E+03  0.21010622104E+03  0.41800000000E+01 0.  1.
         -5    1    3    3    0  502  0.31844287252E+02  0.40436886090E+02  0.83963266925E+02  0.98572323600E+02  0.41800000000E+01 0.  1.
        -11    1    1    2    0    0  0.33505755453E+02  0.42912841524E+02  0.14779724159E+02  0.56414429558E+02  0.00000000000E+00 0.  1.
         11    1    1    2    0    0 -0.27252900895E+02 -0.22529200900E+02 -0.77909596718E+01  0.36207520669E+02  0.00000000000E+00 0. -1.
</event>
<event>
 7    1  0.2556591E-009  0.7586335E+02  0.7561462E-02  0.1341218E+00
          3   -1    0    0  501    0  0.00000000000E+00  0.00000000000E+00  0.69400721451E+02  0.69400721451E+02  0.00000000000E+00 0. -1.
         -3   -1    0    0    0  501 -0.00000000000E+00 -0.00000000000E+00 -0.19256654219E+03  0.19256654219E+03  0.00000000000E+00 0.  1.
         25    2    1    2    0    0 -0.21572115269E+02 -0.19621111463E+02 -0.11109280367E+03  0.16982234411E+03  0.12509066057E+03 0.  0.
          5    1    3    3  502    0  0.11333122431E+02 -0.47332270316E+02  0.18576120701E+01  0.48884625394E+02  0.41800000000E+01 0. -1.
         -5    1    3    3    0  502 -0.32905237700E+02  0.27711158853E+02 -0.11295041574E+03  0.12093771872E+03  0.41800000000E+01 0. -1.
        -11    1    1    2    0    0 -0.75399432970E+01  0.28292039098E+02 -0.40878493985E+02  0.50282616198E+02  0.00000000000E+00 0.  1.
         11    1    1    2    0    0  0.29112058566E+02 -0.86709276347E+01  0.28805476914E+02  0.41862303332E+02  0.00000000000E+00 0. -1.
</event>
<event>
 7    1  0.2556591E-009  0.1010520E+03  0.7561462E-02  0.1278099E+00
         -1   -1    0    0    0  501 -0.00000000000E+00  0.00000000000E+00  0.24660598817E+02  0.24660598817E+02  0.00000000000E+00 0.  1.
          1   -1    0    0  501    0  0.00000000000E+00 -0.00000000000E+00 -0.74148634437E+03  0.74148634437E+03  0.00000000000E+00 0. -1.
         25    2    1    2    0    0  0.16740336057E+02  0.73678916107E+02 -0.33760469726E+03  0.36787705175E+03  0.12509105508E+03 0.  0.
          5    1    3    3  502    0 -0.23446710098E+01 -0.23298879567E+01 -0.25079470630E+03  0.25085131646E+03  0.41800000000E+01 0.  1.
         -5    1    3    3    0  502  0.19085007067E+02  0.76008804064E+02 -0.86809990966E+02  0.11702573530E+03  0.41800000000E+01 0.  1.
        -11    1    1    2    0    0 -0.41940710235E+02 -0.81710801003E+02 -0.24922038984E+03  0.26560587510E+03  0.00000000000E+00 0.  1.
         11    1    1    2    0    0  0.25200374178E+02  0.80318848958E+01 -0.13000065845E+03  0.13266401634E+03  0.00000000000E+00 0. -1.
</event>
<event>
 7    1  0.2556591E-009  0.9593048E+02  0.7561462E-02  0.1289094E+00
          1   -1    0    0  501    0  0.00000000000E+00  0.00000000000E+00  0.48716224027E+02  0.48716224027E+02  0.00000000000E+00 0. -1.
         -1   -1    0    0    0  501 -0.00000000000E+00 -0.00000000000E+00 -0.29971612889E+03  0.29971612889E+03  0.00000000000E+00 0.  1.
         25    2    1    2    0    0  0.30152998550E+02 -0.23103198980E+02 -0.19319384519E+03  0.23326856983E+03  0.12508957881E+03 0.  0.
          5    1    3    3  502    0  0.62703137692E+02 -0.51629612643E+02 -0.90093328847E+02  0.12137372319E+03  0.41800000000E+01 0. -1.
         -5    1    3    3    0  502 -0.32550139142E+02  0.28526413662E+02 -0.10310051634E+03  0.11189484664E+03  0.41800000000E+01 0. -1.
        -11    1    1    2    0    0 -0.14297103769E+02  0.40831709977E+02 -0.74468658215E+02  0.86123264988E+02  0.00000000000E+00 0.  1.
         11    1    1    2    0    0 -0.15855894782E+02 -0.17728510997E+02  0.16662598539E+02  0.29040518101E+02  0.00000000000E+00 0. -1.
</event>
<event>
 7    1  0.2556591E-009  0.1119030E+03  0.7561462E-02  0.1257086E+00
          2   -1    0    0  501    0  0.00000000000E+00  0.00000000000E+00  0.13572594885E+03  0.13572594885E+03  0.00000000000E+00 0. -1.
         -2   -1    0    0    0  501 -0.00000000000E+00 -0.00000000000E+00 -0.10537633923E+03  0.10537633923E+03  0.00000000000E+00 0.  1.
         25    2    1    2    0    0 -0.45050317265E+02  0.34380821247E+01 -0.65473330343E+01  0.13315799177E+03  0.12508729635E+03 0.  0.
          5    1    3    3  502    0 -0.59675645348E+02 -0.47938938213E+02  0.94473095528E+01  0.77240200042E+02  0.41800000000E+01 0. -1.
         -5    1    3    3    0  502  0.14625328083E+02  0.51377020338E+02 -0.15994642587E+02  0.55917791729E+02  0.41800000000E+01 0. -1.
        -11    1    1    2    0    0 -0.19227159483E+02  0.17463073935E+02 -0.75505650252E+01  0.27049096940E+02  0.00000000000E+00 0.  1.
         11    1    1    2    0    0  0.64277476749E+02 -0.20901156059E+02  0.44447507685E+02  0.80895199370E+02  0.00000000000E+00 0. -1.
</event>
<event>
 7    1  0.2556591E-009  0.1279014E+03  0.7561462E-02  0.1230603E+00
         -4   -1    0    0    0  501 -0.00000000000E+00  0.00000000000E+00  0.14143562099E+03  0.14143562099E+03  0.00000000000E+00 0.  1.
          4   -1    0    0  501    0  0.00000000000E+00 -0.00000000000E+00 -0.17477404759E+03  0.17477404759E+03  0.00000000000E+00 0. -1.
         25    2    1    2    0    0 -0.59002886439E+02  0.89642117059E+02 -0.63803538082E+02  0.17673763962E+03  0.12509297353E+03 0.  0.
          5    1    3    3  502    0 -0.59251747917E+01  0.67803095075E+02  0.23541710996E+02  0.72139115289E+02  0.41800000000E+01 0. -1.
         -5    1    3    3    0  502 -0.53077711647E+02  0.21839021984E+02 -0.87345249078E+02  0.10459852433E+03  0.41800000000E+01 0. -1.
        -11    1    1    2    0    0  0.74854785874E+02 -0.58071717335E+02  0.40067109930E+02  0.10286367979E+03  0.00000000000E+00 0.  1.
         11    1    1    2    0    0 -0.15851899436E+02 -0.31570399724E+02 -0.96019984544E+01  0.36608349167E+02  0.00000000000E+00 0. -1.
</event>
<event>
 7    1  0.2556591E-009  0.8672973E+02  0.7561462E-02  0.1310970E+00
         -3   -1    0    0    0  501 -0.00000000000E+00  0.00000000000E+00  0.12584660681E+03  0.12584660681E+03  0.00000000000E+00 0.  1.
          3   -1    0    0  501    0  0.00000000000E+00 -0.00000000000E+00 -0.11605919568E+03  0.11605919568E+03  0.00000000000E+00 0. -1.
         25    2    1    2    0    0  0.13485893408E+02  0.27238369401E+02 -0.17948049860E+02  0.12997811763E+03  0.12509348696E+03 0.  0.
          5    1    3    3  502    0  0.98579600700E+01 -0.20891677740E+02  0.44874734369E+02  0.50644405023E+02  0.41800000000E+01 0.  1.
         -5    1    3    3    0  502  0.36279333378E+01  0.48130047141E+02 -0.62822784229E+02  0.79333712609E+02  0.41800000000E+01 0.  1.
        -11    1    1    2    0    0  0.27512425436E+02 -0.48193121720E+02  0.34569617056E+02  0.65380187808E+02  0.00000000000E+00 0.  1.
         11    1    1    2    0    0 -0.40998318843E+02  0.20954752319E+02 -0.68341560610E+01  0.46547497052E+02  0.00000000000E+00 0. -1.
</event>
<event>
 7    1  0.2556591E-009  0.1234853E+03  0.7561462E-02  0.1237456E+00
          2   -1    0    0  501    0  0.00000000000E+00  0.00000000000E+00  0.42561173688E+03  0.42561173688E+03  0.00000000000E+00 0. -1.
         -2   -1    0    0    0  501 -0.00000000000E+00 -0.00000000000E+00 -0.72149059307E+02  0.72149059307E+02  0.00000000000E+00 0.  1.
         25    2    1    2    0    0  0.68205971376E+02 -0.76925299505E+02  0.31340500295E+03  0.35276080482E+03  0.12509169961E+03 0.  0.
          5    1    3    3  502    0  0.81346264534E+02 -0.38776529933E+02  0.29450000161E+03  0.30800739825E+03  0.41800000000E+01 0. -1.
         -5    1    3    3    0  502 -0.13140293158E+02 -0.38148769572E+02  0.18905001333E+02  0.44753406569E+02  0.41800000000E+01 0. -1.
        -11    1    1    2    0    0 -0.58412319761E+02  0.25314535227E+02  0.61261379877E+02  0.88350333662E+02  0.00000000000E+00 0. -1.
         11    1    1    2    0    0 -0.97936516147E+01  0.51610764279E+02 -0.21203705253E+02  0.56649657702E+02  0.00000000000E+00 0.  1.
</event>
<event>
 7    1  0.2556591E-009  0.1354453E+03  0.7561462E-02  0.1219592E+00
          1   -1    0    0  501    0  0.00000000000E+00  0.00000000000E+00  0.21279472866E+03  0.21279472866E+03  0.00000000000E+00 0. -1.
         -1   -1    0    0    0  501 -0.00000000000E+00 -0.00000000000E+00 -0.97877497098E+02  0.97877497098E+02  0.00000000000E+00 0.  1.
         25    2    1    2    0    0  0.22965750555E+02 -0.87842189994E+02  0.92326403742E+02  0.18004231708E+03  0.12508954820E+03 0.  0.
          5    1    3    3  502    0  0.68141177150E+02 -0.33886536770E+02  0.76099992773E+02  0.10770421857E+03  0.41800000000E+01 0. -1.
         -5    1    3    3    0  502 -0.45175426594E+02 -0.53955653225E+02  0.16226410969E+02  0.72338098509E+02  0.41800000000E+01 0. -1.
        -11    1    1    2    0    0  0.30781250517E+02  0.16709520510E+02  0.22212973458E+02  0.41474204620E+02  0.00000000000E+00 0.  1.
         11    1    1    2    0    0 -0.53747001072E+02  0.71132669484E+02  0.37785436081E+00  0.89155704058E+02  0.00000000000E+00 0. -1.
</event>
<event>
 7    1  0.3007090E-009  0.1541921E+03  0.7561462E-02  0.1195414E+00
         -1   -1    0    0    0  501 -0.00000000000E+00  0.00000000000E+00  0.18560491549E+02  0.18560491549E+02  0.00000000000E+00 0.  1.
          1   -1    0    0  501    0  0.00000000000E+00 -0.00000000000E+00 -0.14767388651E+04  0.14767388651E+04  0.00000000000E+00 0. -1.
         25    2    1    2    0    0  0.95600312811E+02  0.79182358737E+02 -0.83562876335E+03  0.85400937478E+03  0.12508923344E+03 0.  0.
          5    1    3    3  502    0  0.82344331458E+02  0.10513809575E+03 -0.51565811724E+03  0.53268693843E+03  0.41800000000E+01 0. -1.
         -5    1    3    3    0  502  0.13255981353E+02 -0.25955737013E+02 -0.31997064612E+03  0.32132243635E+03  0.41800000000E+01 0. -1.
        -11    1    1    2    0    0 -0.21807920654E+02 -0.67099318698E+02 -0.19774971780E+03  0.20995917427E+03  0.00000000000E+00 0.  1.
         11    1    1    2    0    0 -0.73792392157E+02 -0.12083040039E+02 -0.42479989237E+03  0.43133080756E+03  0.00000000000E+00 0. -1.
</event>
<event>
 7    1  0.2556591E-009  0.1749163E+03  0.7561462E-02  0.1172816E+00
          1   -1    0    0  501    0  0.00000000000E+00  0.00000000000E+00  0.36508642372E+03  0.36508642372E+03  0.00000000000E+00 0. -1.
         -1   -1    0    0    0  501 -0.00000000000E+00 -0.00000000000E+00 -0.10916848464E+03  0.10916848464E+03  0.00000000000E+00 0.  1.
         25    2    1    2    0    0  0.12468824287E+03  0.86488573166E+02  0.21856364040E+03  0.29401752508E+03  0.12509519954E+03 0.  0.
          5    1    3    3  502    0 -0.19228633021E+02  0.40937048876E+02  0.56677000652E+02  0.72631515897E+02  0.41800000000E+01 0. -1.
         -5    1    3    3    0  502  0.14391687589E+03  0.45551524290E+02  0.16188663975E+03  0.22138600918E+03  0.41800000000E+01 0. -1.
        -11    1    1    2    0    0 -0.16139419525E+02 -0.29024221788E+01 -0.24851823718E+02  0.29774453130E+02  0.00000000000E+00 0.  1.
         11    1    1    2    0    0 -0.10854882335E+03 -0.83586150987E+02  0.62206122398E+02  0.15046293015E+03  0.00000000000E+00 0. -1.
</event>
<event>
 7    1  0.2556591E-009  0.5735035E+02  0.7561462E-02  0.1409300E+00
          3   -1    0    0  501    0  0.00000000000E+00  0.00000000000E+00  0.35288046715E+02  0.35288046715E+02  0.00000000000E+00 0. -1.
         -3   -1    0    0    0  501 -0.00000000000E+00 -0.00000000000E+00 -0.34205018600E+03  0.34205018600E+03  0.00000000000E+00 0.  1.
         25    2    1    2    0    0  0.66878236289E+01 -0.67580836179E+01 -0.20573579621E+03  0.24096612312E+03  0.12508819279E+03 0.  0.
          5    1    3    3  502    0 -0.40010498325E+01 -0.97520660799E+01  0.15614881228E+02  0.19297878338E+02  0.41800000000E+01 0.  1.
         -5    1    3    3    0  502  0.10688873461E+02  0.29939824620E+01 -0.22135067743E+03  0.22166824479E+03  0.41800000000E+01 0.  1.
        -11    1    1    2    0    0 -0.12334545487E+02  0.48160176184E+02 -0.58094298768E+02  0.76462351074E+02  0.00000000000E+00 0.  1.
         11    1    1    2    0    0  0.56467218576E+01 -0.41402092566E+02 -0.42932044309E+02  0.59909758513E+02  0.00000000000E+00 0. -1.
</event>
<event>
 7    1  0.2556591E-009  0.1332937E+03  0.7561462E-02  0.1222649E+00
          2   -1    0    0  501    0  0.00000000000E+00  0.00000000000E+00  0.67808842362E+03  0.67808842362E+03  0.00000000000E+00 0. -1.
         -2   -1    0    0    0  501 -0.00000000000E+00 -0.00000000000E+00 -0.37396720452E+02  0.37396720452E+02  0.00000000000E+00 0.  1.
         25    2    1    2    0    0  0.31640000843E+02 -0.11201029840E+03  0.32792956138E+03  0.36977247092E+03  0.12508591618E+03 0.  0.
          5    1    3    3  502    0  0.12783956566E+02 -0.35927567247E+01  0.20201722838E+03  0.20249634665E+03  0.41800000000E+01 0.  1.
         -5    1    3    3    0  502  0.18856044276E+02 -0.10841754168E+03  0.12591233300E+03  0.16727612427E+03  0.41800000000E+01 0.  1.
        -11    1    1    2    0    0  0.11483415846E+02  0.95778368509E+02  0.16719761433E+03  0.19302954943E+03  0.00000000000E+00 0.  1.
         11    1    1    2    0    0 -0.43123416689E+02  0.16231929894E+02  0.14556452746E+03  0.15268312372E+03  0.00000000000E+00 0. -1.
</event>
<event>
 7    1  0.2556591E-009  0.9869792E+02  0.7561462E-02  0.1283058E+00
          2   -1    0    0  501    0  0.00000000000E+00  0.00000000000E+00  0.32988025356E+03  0.32988025356E+03  0.00000000000E+00 0. -1.
         -2   -1    0    0    0  501 -0.00000000000E+00 -0.00000000000E+00 -0.62524903683E+02  0.62524903683E+02  0.00000000000E+00 0.  1.
         25    2    1    2    0    0 -0.52517362760E+00  0.60061618529E+02  0.45564142430E+02  0.14605038846E+03  0.12508777345E+03 0.  0.
          5    1    3    3  502    0  0.23236623797E+01 -0.14583281421E+02 -0.33714435915E+02  0.37043313741E+02  0.41800000000E+01 0.  1.
         -5    1    3    3    0  502 -0.28488360073E+01  0.74644899950E+02  0.79278578346E+02  0.10900707472E+03  0.41800000000E+01 0.  1.
        -11    1    1    2    0    0 -0.42715107634E+02 -0.16322349215E+02  0.95436565962E+02  0.10582597803E+03  0.00000000000E+00 0. -1.
         11    1    1    2    0    0  0.43240281262E+02 -0.43739269314E+02  0.12635464149E+03  0.14052879075E+03  0.00000000000E+00 0.  1.
</event>
<event>
 7    1  0.2556591E-009  0.1771019E+03  0.7561462E-02  0.1170638E+00
          1   -1    0    0  501    0  0.00000000000E+00  0.00000000000E+00  0.64422823909E+03  0.64422823909E+03  0.00000000000E+00 0. -1.
         -1   -1    0    0    0  501 -0.00000000000E+00 -0.00000000000E+00 -0.66881572331E+02  0.66881572331E+02  0.00000000000E+00 0.  1.
         25    2    1    2    0    0  0.15265784544E+03  0.89089550754E+02  0.28433448683E+03  0.35740152270E+03  0.12509349385E+03 0.  0.
          5    1    3    3  502    0  0.13548021953E+03  0.76218224851E+02  0.13337681658E+03  0.20486814121E+03  0.41800000000E+01 0.  1.
         -5    1    3    3    0  502  0.17177625911E+02  0.12871325903E+02  0.15095767025E+03  0.15253338149E+03  0.41800000000E+01 0.  1.
        -11    1    1    2    0    0 -0.47048324467E+02 -0.30305883773E+02  0.17903018001E+03  0.18757344370E+03  0.00000000000E+00 0. -1.
         11    1    1    2    0    0 -0.10560952097E+03 -0.58783666981E+02  0.11398199993E+03  0.16613484502E+03  0.00000000000E+00 0.  1.
</event>
<event>
 7    1  0.2556591E-009  0.1716128E+03  0.7561462E-02  0.1176176E+00
          2   -1    0    0  501    0  0.00000000000E+00  0.00000000000E+00  0.18159130094E+03  0.18159130094E+03  0.00000000000E+00 0.  1.
         -2   -1    0    0    0  501 -0.00000000000E+00 -0.00000000000E+00 -0.24435426155E+03  0.24435426155E+03  0.00000000000E+00 0. -1.
         25    2    1    2    0    0  0.13790975238E+03 -0.36465673858E+02 -0.14422981632E+03  0.23832400625E+03  0.12508895582E+03 0.  0.
          5    1    3    3  502    0  0.13282946405E+03 -0.69216835139E+02 -0.13923998962E+03  0.20454799900E+03  0.41800000000E+01 0. -1.
         -5    1    3    3    0  502  0.50802883252E+01  0.32751161281E+02 -0.49898266948E+01  0.33776007241E+02  0.41800000000E+01 0. -1.
        -11    1    1    2    0    0 -0.60123389382E+02  0.53351743337E+02  0.10656015674E+02  0.81085024129E+02  0.00000000000E+00 0. -1.
         11    1    1    2    0    0 -0.77786362995E+02 -0.16886069479E+02  0.70810840025E+02  0.10653653212E+03  0.00000000000E+00 0.  1.
</event>
<event>
 7    1  0.2556591E-009  0.1068265E+03  0.7561462E-02  0.1266562E+00
          2   -1    0    0  501    0  0.00000000000E+00  0.00000000000E+00  0.16147826501E+03  0.16147826501E+03  0.00000000000E+00 0. -1.
         -2   -1    0    0    0  501 -0.00000000000E+00 -0.00000000000E+00 -0.12080623706E+03  0.12080623706E+03  0.00000000000E+00 0.  1.
         25    2    1    2    0    0  0.15391423276E+02  0.84390163610E+02  0.41071628748E+02  0.15714047633E+03  0.12509058713E+03 0.  0.
          5    1    3    3  502    0 -0.36981956812E+02  0.20559730375E+02  0.58825579686E+02  0.72582979190E+02  0.41800000000E+01 0. -1.
         -5    1    3    3    0  502  0.52373380088E+02  0.63830433235E+02 -0.17753950938E+02  0.84557497141E+02  0.41800000000E+01 0. -1.
        -11    1    1    2    0    0 -0.15066025961E+02 -0.25845298497E+02  0.42917814110E+02  0.52315421824E+02  0.00000000000E+00 0. -1.
         11    1    1    2    0    0 -0.32539731570E+00 -0.58544865113E+02 -0.43317414910E+02  0.72828603921E+02  0.00000000000E+00 0.  1.
</event>
<event>
 7    1  0.2556591E-009  0.1143808E+03  0.7561462E-02  0.1252666E+00
         -2   -1    0    0    0  501 -0.00000000000E+00  0.00000000000E+00  0.15226955529E+03  0.15226955529E+03  0.00000000000E+00 0.  1.
          2   -1    0    0  501    0  0.00000000000E+00 -0.00000000000E+00 -0.10060877639E+03  0.10060877639E+03  0.00000000000E+00 0. -1.
         25    2    1    2    0    0 -0.56739666720E+02  0.95327365144E+01  0.18994814599E+02  0.13899383472E+03  0.12509284657E+03 0.  0.
          5    1    3    3  502    0  0.27654966239E+02 -0.32687521908E+02  0.23900145670E+01  0.43086608312E+02  0.41800000000E+01 0.  1.
         -5    1    3    3    0  502 -0.84394632960E+02  0.42220258422E+02  0.16604800032E+02  0.95907226410E+02  0.41800000000E+01 0.  1.
        -11    1    1    2    0    0 -0.16653506949E+02  0.27178437356E+01 -0.17370448176E+02  0.24216903974E+02  0.00000000000E+00 0. -1.
         11    1    1    2    0    0  0.73393173669E+02 -0.12250580250E+02  0.50036412484E+02  0.89667592986E+02  0.00000000000E+00 0.  1.
</event>
<event>
 7    1  0.2599402E-009  0.7742612E+02  0.7561462E-02  0.1336519E+00
         -1   -1    0    0    0  501 -0.00000000000E+00  0.00000000000E+00  0.26758557353E+02  0.26758557353E+02  0.00000000000E+00 0. -1.
          1   -1    0    0  501    0  0.00000000000E+00 -0.00000000000E+00 -0.56723477247E+03  0.56723477247E+03  0.00000000000E+00 0.  1.
         25    2    1    2    0    0  0.90703537277E+01  0.11574800610E+02 -0.43953495145E+03  0.45722466538E+03  0.12508866360E+03 0.  0.
          5    1    3    3  502    0 -0.30044115906E+02  0.33538212535E+02 -0.60558122913E+02  0.75579224999E+02  0.41800000000E+01 0.  1.
         -5    1    3    3    0  502  0.39114469634E+02 -0.21963411926E+02 -0.37897682854E+03  0.38164544038E+03  0.41800000000E+01 0.  1.
        -11    1    1    2    0    0 -0.35529611113E+02 -0.13594742176E+02 -0.64030732512E+01  0.38576801679E+02  0.00000000000E+00 0. -1.
         11    1    1    2    0    0  0.26459257386E+02  0.20199415663E+01 -0.94538190414E+02  0.98191862759E+02  0.00000000000E+00 0.  1.
</event>
<event>
 7    1  0.2556591E-009  0.1501475E+03  0.7561462E-02  0.1200292E+00
          2   -1    0    0  501    0  0.00000000000E+00  0.00000000000E+00  0.99568842311E+03  0.99568842311E+03  0.00000000000E+00 0. -1.
         -2   -1    0    0    0  501 -0.00000000000E+00 -0.00000000000E+00 -0.28944714480E+02  0.28944714480E+02  0.00000000000E+00 0.  1.
         25    2    1    2    0    0 -0.10048799779E+03  0.29761335566E+02  0.74620323718E+03  0.76383916372E+03  0.12508965609E+03 0.  0.
          5    1    3    3  502    0 -0.54818496352E+02  0.77595477672E+02  0.49435021148E+03  0.50341407378E+03  0.41800000000E+01 0.  1.
         -5    1    3    3    0  502 -0.45669501435E+02 -0.47834142106E+02  0.25185302570E+03  0.26042508993E+03  0.41800000000E+01 0.  1.
        -11    1    1    2    0    0  0.38423023091E+02 -0.58932622246E+02  0.10362932025E+03  0.12525341785E+03  0.00000000000E+00 0.  1.
         11    1    1    2    0    0  0.62064974696E+02  0.29171286680E+02  0.11691115121E+03  0.13554055602E+03  0.00000000000E+00 0. -1.
</event>
<event>
 7    1  0.2556591E-009  0.2701096E+03  0.7561462E-02  0.1101217E+00
          2   -1    0    0  501    0  0.00000000000E+00  0.00000000000E+00  0.14464120131E+04  0.14464120131E+04  0.00000000000E+00 0.  1.
         -2   -1    0    0    0  501 -0.00000000000E+00 -0.00000000000E+00 -0.61194587333E+02  0.61194587333E+02  0.00000000000E+00 0. -1.
         25    2    1    2    0    0  0.22756976290E+03  0.12403946957E+03  0.95257476594E+03  0.99509740859E+03  0.12508549428E+03 0.  0.
          5    1    3    3  502    0  0.12885320124E+02  0.53150474477E+02  0.28601015941E+03  0.29122205977E+03  0.41800000000E+01 0.  1.
         -5    1    3    3    0  502  0.21468444278E+03  0.70888995091E+02  0.66656460653E+03  0.70387534882E+03  0.41800000000E+01 0.  1.
        -11    1    1    2    0    0 -0.14584596229E+03 -0.82686577812E+02  0.35437305984E+03  0.39203109623E+03  0.00000000000E+00 0.  1.
         11    1    1    2    0    0 -0.81723800606E+02 -0.41352891756E+02  0.78269599989E+02  0.12047809562E+03  0.00000000000E+00 0. -1.
</event>
<event>
 7    1  0.2556591E-009  0.9592289E+02  0.7561462E-02  0.1289111E+00
          1   -1    0    0  501    0  0.00000000000E+00  0.00000000000E+00  0.20051898033E+04  0.20051898033E+04  0.00000000000E+00 0. -1.
         -1   -1    0    0    0  501 -0.00000000000E+00 -0.00000000000E+00 -0.14757910842E+02  0.14757910842E+02  0.00000000000E+00 0.  1.
         25    2    1    2    0    0 -0.25268390487E+02 -0.36933794390E+02  0.17901966784E+04  0.17951196387E+04  0.12509106039E+03 0.  0.
          5    1    3    3  502    0 -0.28809987945E+02  0.24551029847E+02  0.19248738475E+03  0.19621833288E+03  0.41800000000E+01 0.  1.
         -5    1    3    3    0  502  0.35415974579E+01 -0.61484824237E+02  0.15977092936E+04  0.15989013058E+04  0.41800000000E+01 0.  1.
        -11    1    1    2    0    0 -0.18066376749E+02  0.44515891116E+02  0.54763922375E+02  0.72850159400E+02  0.00000000000E+00 0.  1.
         11    1    1    2    0    0  0.43334767235E+02 -0.75820967257E+01  0.14547129174E+03  0.15197791603E+03  0.00000000000E+00 0. -1.
</event>
<event>
 7    1  0.2556591E-009  0.1110431E+03  0.7561462E-02  0.1258650E+00
          2   -1    0    0  501    0  0.00000000000E+00  0.00000000000E+00  0.71070072742E+02  0.71070072742E+02  0.00000000000E+00 0. -1.
         -2   -1    0    0    0  501 -0.00000000000E+00 -0.00000000000E+00 -0.32597930567E+03  0.32597930567E+03  0.00000000000E+00 0.  1.
         25    2    1    2    0    0  0.82889001710E+02  0.64688877770E+02 -0.15383613875E+03  0.22443045296E+03  0.12509289796E+03 0.  0.
          5    1    3    3  502    0  0.44937859586E+02  0.45681991757E+01 -0.14587700410E+03  0.15276731454E+03  0.41800000000E+01 0.  1.
         -5    1    3    3    0  502  0.37951142124E+02  0.60120678595E+02 -0.79591346457E+01  0.71663138415E+02  0.41800000000E+01 0.  1.
        -11    1    1    2    0    0 -0.18039050878E+02 -0.18837775817E+02  0.16405513386E+02  0.30812497850E+02  0.00000000000E+00 0. -1.
         11    1    1    2    0    0 -0.64849950832E+02 -0.45851101954E+02 -0.11747860757E+03  0.14180642760E+03  0.00000000000E+00 0.  1.
</event>
<event>
 7    1  0.2556591E-009  0.1089353E+03  0.7561462E-02  0.1262554E+00
          1   -1    0    0  501    0  0.00000000000E+00  0.00000000000E+00  0.40751484013E+03  0.40751484013E+03  0.00000000000E+00 0. -1.
         -1   -1    0    0    0  501 -0.00000000000E+00 -0.00000000000E+00 -0.48603018899E+02  0.48603018899E+02  0.00000000000E+00 0.  1.
         25    2    1    2    0    0  0.54969225105E+02 -0.68249117817E+02  0.23015590275E+03  0.27622280105E+03  0.12509092076E+03 0.  0.
          5    1    3    3  502    0  0.38042563104E+02  0.17800449791E+02  0.15502044100E+03  0.16066394165E+03  0.41800000000E+01 0. -1.
         -5    1    3    3    0  502  0.16926662001E+02 -0.86049567608E+02  0.75135461746E+02  0.11555885939E+03  0.41800000000E+01 0. -1.
        -11    1    1    2    0    0 -0.18516281512E+02  0.18357946217E+02  0.11321823338E+03  0.11618190582E+03  0.00000000000E+00 0. -1.
         11    1    1    2    0    0 -0.36452943593E+02  0.49891171600E+02  0.15537685107E+02  0.63713152164E+02  0.00000000000E+00 0.  1.
</event>
<event>
 7    1  0.2556591E-009  0.1728845E+03  0.7561462E-02  0.1174873E+00
         -2   -1    0    0    0  501 -0.00000000000E+00  0.00000000000E+00  0.76015390867E+02  0.76015390867E+02  0.00000000000E+00 0.  1.
          2   -1    0    0  501    0  0.00000000000E+00 -0.00000000000E+00 -0.56996091881E+03  0.56996091881E+03  0.00000000000E+00 0. -1.
         25    2    1    2    0    0  0.22558226120E+02  0.15457811922E+03 -0.38795211042E+03  0.43652889107E+03  0.12508942504E+03 0.  0.
          5    1    3    3  502    0 -0.17189334981E+02  0.10986381934E+03 -0.34569581636E+03  0.36316470352E+03  0.41800000000E+01 0.  1.
         -5    1    3    3    0  502  0.39747561100E+02  0.44714299881E+02 -0.42256294060E+02  0.73364187551E+02  0.41800000000E+01 0.  1.
        -11    1    1    2    0    0  0.24083467039E+02 -0.99358834779E+02 -0.88161851314E+02  0.13499890170E+03  0.00000000000E+00 0. -1.
         11    1    1    2    0    0 -0.46641693158E+02 -0.55219284443E+02 -0.17831566208E+02  0.74448516899E+02  0.00000000000E+00 0.  1.
</event>
<event>
 7    1  0.2556591E-009  0.1977092E+03  0.7561462E-02  0.1151686E+00
         -4   -1    0    0    0  501 -0.00000000000E+00  0.00000000000E+00  0.10704869426E+03  0.10704869426E+03  0.00000000000E+00 0.  1.
          4   -1    0    0  501    0  0.00000000000E+00 -0.00000000000E+00 -0.45426276130E+03  0.45426276130E+03  0.00000000000E+00 0. -1.
         25    2    1    2    0    0  0.71306317416E+02 -0.17704818873E+03 -0.19379756611E+03  0.29939362007E+03  0.12509352929E+03 0.  0.
          5    1    3    3  502    0  0.36649661872E+02 -0.15317926189E+03 -0.20213938397E+03  0.25629062983E+03  0.41800000000E+01 0. -1.
         -5    1    3    3    0  502  0.34656655545E+02 -0.23868926846E+02  0.83418178568E+01  0.43102990238E+02  0.41800000000E+01 0. -1.
        -11    1    1    2    0    0 -0.32383627836E+02  0.32516870709E+02 -0.86584924196E+02  0.97994874002E+02  0.00000000000E+00 0. -1.
         11    1    1    2    0    0 -0.38922689581E+02  0.14453131803E+03 -0.66831576737E+02  0.16392296149E+03  0.00000000000E+00 0.  1.
</event>
<event>
 7    1  0.2556591E-009  0.1047145E+03  0.7561462E-02  0.1270683E+00
         -2   -1    0    0    0  501 -0.00000000000E+00  0.00000000000E+00  0.22599671594E+02  0.22599671594E+02  0.00000000000E+00 0. -1.
          2   -1    0    0  501    0  0.00000000000E+00 -0.00000000000E+00 -0.75831669105E+03  0.75831669105E+03  0.00000000000E+00 0.  1.
         25    2    1    2    0    0 -0.57718444440E+02  0.30173575797E+02 -0.50307035476E+03  0.52246079827E+03  0.12507453931E+03 0.  0.
          5    1    3    3  502    0  0.18364944014E+02  0.34712837444E+02 -0.53731311111E+02  0.66684169379E+02  0.41800000000E+01 0. -1.
         -5    1    3    3    0  502 -0.76083388454E+02 -0.45392616467E+01 -0.44933904365E+03  0.45577662889E+03  0.41800000000E+01 0. -1.
        -11    1    1    2    0    0  0.24286566515E+02  0.21247341694E+02 -0.16072771448E+03  0.16393500250E+03  0.00000000000E+00 0.  1.
         11    1    1    2    0    0  0.33431877924E+02 -0.51420917492E+02 -0.71918950213E+02  0.94520561874E+02  0.00000000000E+00 0. -1.
</event>
<event>
 7    1  0.2556591E-009  0.1127799E+03  0.7561462E-02  0.1255507E+00
         -2   -1    0    0    0  501 -0.00000000000E+00  0.00000000000E+00  0.29751390481E+02  0.29751390481E+02  0.00000000000E+00 0.  1.
          2   -1    0    0  501    0  0.00000000000E+00 -0.00000000000E+00 -0.86966368662E+03  0.86966368662E+03  0.00000000000E+00 0. -1.
         25    2    1    2    0    0 -0.70446501791E+02  0.46093597866E+02 -0.67928492175E+03  0.69581830865E+03  0.12509110427E+03 0.  0.
          5    1    3    3  502    0 -0.31068644675E+02  0.81999860276E+02 -0.29350229850E+03  0.30634997861E+03  0.41800000000E+01 0. -1.
         -5    1    3    3    0  502 -0.39377857115E+02 -0.35906262409E+02 -0.38578262325E+03  0.38946833005E+03  0.41800000000E+01 0. -1.
        -11    1    1    2    0    0  0.27946321623E+02 -0.15555957370E+02  0.26921803040E+01  0.32097235656E+02  0.00000000000E+00 0.  1.
         11    1    1    2    0    0  0.42500180168E+02 -0.30537640496E+02 -0.16331955470E+03  0.17149953279E+03  0.00000000000E+00 0. -1.
</event>
<event>
 7    1  0.2556591E-009  0.1163637E+03  0.7561462E-02  0.1249219E+00
          1   -1    0    0  501    0  0.00000000000E+00  0.00000000000E+00  0.12961738235E+03  0.12961738235E+03  0.00000000000E+00 0. -1.
         -1   -1    0    0    0  501 -0.00000000000E+00 -0.00000000000E+00 -0.17439317049E+03  0.17439317049E+03  0.00000000000E+00 0.  1.
         25    2    1    2    0    0 -0.57096861281E+02  0.76814204415E+02  0.14875659423E+02  0.15820042128E+03  0.12508243075E+03 0.  0.
          5    1    3    3  502    0 -0.20957503066E+02  0.55060994551E+02  0.68109862978E+02  0.90151849069E+02  0.41800000000E+01 0.  1.
         -5    1    3    3    0  502 -0.36139358215E+02  0.21753209864E+02 -0.53234203555E+02  0.68048572209E+02  0.41800000000E+01 0.  1.
        -11    1    1    2    0    0  0.38383923007E+02  0.12231866565E+02 -0.76431667688E+01  0.41004415656E+02  0.00000000000E+00 0. -1.
         11    1    1    2    0    0  0.18712938274E+02 -0.89046070980E+02 -0.52008280789E+02  0.10480571591E+03  0.00000000000E+00 0.  1.
</event>
<event>
 7    1  0.2556591E-009  0.2267574E+03  0.7561462E-02  0.1128943E+00
          2   -1    0    0  501    0  0.00000000000E+00  0.00000000000E+00  0.14580297183E+03  0.14580297183E+03  0.00000000000E+00 0. -1.
         -2   -1    0    0    0  501 -0.00000000000E+00 -0.00000000000E+00 -0.37564288289E+03  0.37564288289E+03  0.00000000000E+00 0.  1.
         25    2    1    2    0    0 -0.11102460601E+03 -0.17482624304E+03 -0.12447790732E+03  0.27209208884E+03  0.12509467216E+03 0.  0.
          5    1    3    3  502    0 -0.56696256936E+02  0.84717674839E+00 -0.18371170172E+02  0.59750778677E+02  0.41800000000E+01 0. -1.
         -5    1    3    3    0  502 -0.54328349077E+02 -0.17567341979E+03 -0.10610673714E+03  0.21234131016E+03  0.41800000000E+01 0. -1.
        -11    1    1    2    0    0  0.10841612152E+03  0.13651397010E+03 -0.11613599417E+03  0.20947001833E+03  0.00000000000E+00 0.  1.
         11    1    1    2    0    0  0.26084844905E+01  0.38312272940E+02  0.10773990428E+02  0.39883747554E+02  0.00000000000E+00 0. -1.
</event>
<event>
 7    1  0.2556591E-009  0.1419120E+03  0.7561462E-02  0.1210779E+00
         -2   -1    0    0    0  501 -0.00000000000E+00  0.00000000000E+00  0.73689834970E+02  0.73689834970E+02  0.00000000000E+00 0.  1.
          2   -1    0    0  501    0  0.00000000000E+00 -0.00000000000E+00 -0.28491741043E+03  0.28491741043E+03  0.00000000000E+00 0. -1.
         25    2    1    2    0    0  0.52152648008E+02 -0.77427624364E+02 -0.91033036608E+02  0.18069644942E+03  0.12509699184E+03 0.  0.
          5    1    3    3  502    0 -0.84688533066E+01 -0.90298946007E+02 -0.35858783544E+02  0.97616319760E+02  0.41800000000E+01 0.  1.
         -5    1    3    3    0  502  0.60621501314E+02  0.12871321643E+02 -0.55174253064E+02  0.83080129656E+02  0.41800000000E+01 0.  1.
        -11    1    1    2    0    0  0.93769505032E+01  0.68032880848E+02 -0.57544377350E+02  0.89597742393E+02  0.00000000000E+00 0.  1.
         11    1    1    2    0    0 -0.61529598511E+02  0.93947435157E+01 -0.62650161505E+02  0.88313053595E+02  0.00000000000E+00 0. -1.
</event>
<event>
 7    1  0.2556591E-009  0.2414492E+03  0.7561462E-02  0.1118831E+00
         -2   -1    0    0    0  501 -0.00000000000E+00  0.00000000000E+00  0.54493694422E+03  0.54493694422E+03  0.00000000000E+00 0.  1.
          2   -1    0    0  501    0  0.00000000000E+00 -0.00000000000E+00 -0.11575192237E+03  0.11575192237E+03  0.00000000000E+00 0. -1.
         25    2    1    2    0    0  0.19260326809E+03  0.11435101316E+03  0.17370039475E+03  0.30982693986E+03  0.12509489374E+03 0.  0.
          5    1    3    3  502    0  0.12136904540E+02 -0.25124435081E+02  0.15200783800E+02  0.32048056385E+02  0.41800000000E+01 0. -1.
         -5    1    3    3    0  502  0.18046636355E+03  0.13947544824E+03  0.15849961095E+03  0.27777888347E+03  0.41800000000E+01 0. -1.
        -11    1    1    2    0    0 -0.10160898434E+03 -0.79920932148E+02  0.20204166943E+03  0.23985949487E+03  0.00000000000E+00 0.  1.
         11    1    1    2    0    0 -0.90994283749E+02 -0.34430081008E+02  0.53442957669E+02  0.11100243185E+03  0.00000000000E+00 0. -1.
</event>
<event>
 7    1  0.2556591E-009  0.1469799E+03  0.7561462E-02  0.1204234E+00
         -2   -1    0    0    0  501 -0.00000000000E+00  0.00000000000E+00  0.32167507394E+02  0.32167507394E+02  0.00000000000E+00 0.  1.
          2   -1    0    0  501    0  0.00000000000E+00 -0.00000000000E+00 -0.98854297780E+03  0.98854297780E+03  0.00000000000E+00 0. -1.
         25    2    1    2    0    0  0.13700843868E+03 -0.96359607819E+01 -0.40817866659E+03  0.44846573034E+03  0.12509006123E+03 0.  0.
          5    1    3    3  502    0  0.57579893194E+02  0.11732752937E+02 -0.32895355087E+03  0.33418709224E+03  0.41800000000E+01 0.  1.
         -5    1    3    3    0  502  0.79428545489E+02 -0.21368713718E+02 -0.79225115720E+02  0.11427863810E+03  0.41800000000E+01 0.  1.
        -11    1    1    2    0    0 -0.40150736604E+02  0.34226029321E+02 -0.10023407234E+03  0.11327123196E+03  0.00000000000E+00 0. -1.
         11    1    1    2    0    0 -0.96857702079E+02 -0.24590068539E+02 -0.44796273148E+03  0.45897352289E+03  0.00000000000E+00 0.  1.
</event>
<event>
 7    1  0.2556591E-009  0.9895853E+02  0.7561462E-02  0.1282501E+00
          1   -1    0    0  501    0  0.00000000000E+00  0.00000000000E+00  0.48628807569E+03  0.48628807569E+03  0.00000000000E+00 0. -1.
         -1   -1    0    0    0  501 -0.00000000000E+00 -0.00000000000E+00 -0.43849868418E+02  0.43849868418E+02  0.00000000000E+00 0.  1.
         25    2    1    2    0    0  0.51101218067E+02  0.46346204573E+02  0.36828962990E+03  0.39502432251E+03  0.12509060204E+03 0.  0.
          5    1    3    3  502    0  0.60935921541E+02  0.57494027535E+02  0.12088016471E+03  0.14713339647E+03  0.41800000000E+01 0. -1.
         -5    1    3    3    0  502 -0.98347034740E+01 -0.11147822961E+02  0.24740946518E+03  0.24789092604E+03  0.41800000000E+01 0. -1.
        -11    1    1    2    0    0 -0.66764808201E+02 -0.23273016245E+02  0.18839679612E+02  0.73171759765E+02  0.00000000000E+00 0.  1.
         11    1    1    2    0    0  0.15663590134E+02 -0.23073188328E+02  0.55308897762E+02  0.61941861832E+02  0.00000000000E+00 0. -1.
</event>
<event>
 7    1  0.2556591E-009  0.1568998E+03  0.7561462E-02  0.1192242E+00
          1   -1    0    0  501    0  0.00000000000E+00  0.00000000000E+00  0.80692209721E+03  0.80692209721E+03  0.00000000000E+00 0. -1.
         -1   -1    0    0    0  501 -0.00000000000E+00 -0.00000000000E+00 -0.35762611034E+02  0.35762611034E+02  0.00000000000E+00 0.  1.
         25    2    1    2    0    0  0.12655116773E+03 -0.27024458610E+02  0.40667615008E+03  0.44472311259E+03  0.12509051285E+03 0.  0.
          5    1    3    3  502    0  0.75372707960E+02 -0.58380962901E+02  0.12818515834E+03  0.15980703725E+03  0.41800000000E+01 0. -1.
         -5    1    3    3    0  502  0.51178459773E+02  0.31356504291E+02  0.27849099174E+03  0.28491607534E+03  0.41800000000E+01 0. -1.
        -11    1    1    2    0    0 -0.14069942769E+03  0.29712674456E+02  0.31212048384E+03  0.34365443167E+03  0.00000000000E+00 0.  1.
         11    1    1    2    0    0  0.14148259953E+02 -0.26882158461E+01  0.52362852251E+02  0.54307163984E+02  0.00000000000E+00 0. -1.
</event>
<event>
 7    1  0.2556591E-009  0.8945795E+02  0.7561462E-02  0.1304170E+00
          2   -1    0    0  501    0  0.00000000000E+00  0.00000000000E+00  0.25549276271E+03  0.25549276271E+03  0.00000000000E+00 0.  1.
         -2   -1    0    0    0  501 -0.00000000000E+00 -0.00000000000E+00 -0.10827404402E+03  0.10827404402E+03  0.00000000000E+00 0. -1.
         25    2    1    2    0    0  0.15210666522E+01 -0.39462201747E+02 -0.51836585920E+02  0.14104743738E+03  0.12509104261E+03 0.  0.
          5    1    3    3  502    0 -0.36017589222E+02 -0.13722466100E+02 -0.78913036673E+02  0.87922196095E+02  0.41800000000E+01 0.  1.
         -5    1    3    3    0  502  0.37538655874E+02 -0.25739735647E+02  0.27076450753E+02  0.53125241283E+02  0.41800000000E+01 0.  1.
        -11    1    1    2    0    0  0.42067553891E+02  0.16654458324E+02  0.13210515730E+03  0.13963818481E+03  0.00000000000E+00 0.  1.
         11    1    1    2    0    0 -0.43588620543E+02  0.22807743423E+02  0.66950147310E+02  0.83081184547E+02  0.00000000000E+00 0. -1.
</event>
<event>
 7    1  0.2556591E-009  0.1795769E+03  0.7561462E-02  0.1168213E+00
         -2   -1    0    0    0  501 -0.00000000000E+00  0.00000000000E+00  0.29743058340E+02  0.29743058340E+02  0.00000000000E+00 0.  1.
          2   -1    0    0  501    0  0.00000000000E+00 -0.00000000000E+00 -0.17642080204E+04  0.17642080204E+04  0.00000000000E+00 0. -1.
         25    2    1    2    0    0  0.11342652687E+03 -0.10831864136E+03 -0.13942588406E+04  0.14086177348E+04  0.12509077935E+03 0.  0.
          5    1    3    3  502    0  0.10472499568E+03 -0.13021535576E+03 -0.13213797763E+04  0.13319104134E+04  0.41800000000E+01 0.  1.
         -5    1    3    3    0  502  0.87015311952E+01  0.21896714395E+02 -0.72879064288E+02  0.76707321410E+02  0.41800000000E+01 0.  1.
        -11    1    1    2    0    0 -0.77966073117E+02  0.10724686541E+03 -0.19466962885E+03  0.23553526932E+03  0.00000000000E+00 0.  1.
         11    1    1    2    0    0 -0.35460453755E+02  0.10717759517E+01 -0.14553649261E+03  0.14979807463E+03  0.00000000000E+00 0. -1.
</event>
<event>
 7    1  0.2556591E-009  0.1594808E+03  0.7561462E-02  0.1189284E+00
         -1   -1    0    0    0  501 -0.00000000000E+00  0.00000000000E+00  0.73148997181E+02  0.73148997181E+02  0.00000000000E+00 0.  1.
          1   -1    0    0  501    0  0.00000000000E+00 -0.00000000000E+00 -0.37001038174E+03  0.37001038174E+03  0.00000000000E+00 0. -1.
         25    2    1    2    0    0  0.18287579593E+02 -0.11866857025E+03 -0.19664514160E+03  0.26217380699E+03  0.12509647568E+03 0.  0.
          5    1    3    3  502    0  0.72726267452E+01 -0.14216950987E+03 -0.13990514159E+03  0.19963962953E+03  0.41800000000E+01 0. -1.
         -5    1    3    3    0  502  0.11014952848E+02  0.23500939624E+02 -0.56740000008E+02  0.62534177458E+02  0.41800000000E+01 0. -1.
        -11    1    1    2    0    0 -0.25874692682E+02 -0.50014095445E+01 -0.12441858563E+02  0.29142986520E+02  0.00000000000E+00 0. -1.
         11    1    1    2    0    0  0.75871130890E+01  0.12366997979E+03 -0.87774384400E+02  0.15184258541E+03  0.00000000000E+00 0.  1.
</event>
<event>
 7    1  0.2556591E-009  0.1219726E+03  0.7561462E-02  0.1239878E+00
         -2   -1    0    0    0  501 -0.00000000000E+00  0.00000000000E+00  0.17893925063E+02  0.17893925063E+02  0.00000000000E+00 0.  1.
          2   -1    0    0  501    0  0.00000000000E+00 -0.00000000000E+00 -0.12590424819E+04  0.12590424819E+04  0.00000000000E+00 0. -1.
         25    2    1    2    0    0  0.35273191713E+02  0.90907958928E+02 -0.80567074648E+03  0.82113463455E+03  0.12509309039E+03 0.  0.
          5    1    3    3  502    0 -0.34582642504E+02  0.28492721967E+02 -0.48363958910E+03  0.48572885329E+03  0.41800000000E+01 0. -1.
         -5    1    3    3    0  502  0.69855834217E+02  0.62415236961E+02 -0.32203115738E+03  0.33540578126E+03  0.41800000000E+01 0. -1.
        -11    1    1    2    0    0  0.87780440463E+01 -0.16955969118E+02 -0.97114259314E+01  0.21421268394E+02  0.00000000000E+00 0.  1.
         11    1    1    2    0    0 -0.44051235759E+02 -0.73951989811E+02 -0.42576638440E+03  0.43438050400E+03  0.00000000000E+00 0. -1.
</event>
<event>
 7    1  0.2556591E-009  0.8618967E+02  0.7561462E-02  0.1312350E+00
         -2   -1    0    0    0  501 -0.00000000000E+00  0.00000000000E+00  0.14666018634E+02  0.14666018634E+02  0.00000000000E+00 0.  1.
          2   -1    0    0  501    0  0.00000000000E+00 -0.00000000000E+00 -0.84595690161E+03  0.84595690161E+03  0.00000000000E+00 0. -1.
         25    2    1    2    0    0  0.90704048583E+01 -0.27116038571E+02 -0.43481582438E+03  0.45335403439E+03  0.12509007782E+03 0.  0.
          5    1    3    3  502    0  0.22119159522E+02  0.21943572841E+02 -0.36798126275E+03  0.36932162101E+03  0.41800000000E+01 0. -1.
         -5    1    3    3    0  502 -0.13048754663E+02 -0.49059611411E+02 -0.66834561631E+02  0.84032413380E+02  0.41800000000E+01 0. -1.
        -11    1    1    2    0    0  0.33946074077E+02 -0.75310164945E+01 -0.10503333559E+03  0.11063929564E+03  0.00000000000E+00 0.  1.
         11    1    1    2    0    0 -0.43016478935E+02  0.34647055065E+02 -0.29144172301E+03  0.29662959022E+03  0.00000000000E+00 0. -1.
</event>
<event>
 7    1  0.2556591E-009  0.1098351E+03  0.7561462E-02  0.1260876E+00
         -2   -1    0    0    0  501 -0.00000000000E+00  0.00000000000E+00  0.43151267391E+02  0.43151267391E+02  0.00000000000E+00 0.  1.
          2   -1    0    0  501    0  0.00000000000E+00 -0.00000000000E+00 -0.40523244271E+03  0.40523244271E+03  0.00000000000E+00 0. -1.
         25    2    1    2    0    0 -0.50685641317E+02  0.47758342875E+02 -0.14823535824E+03  0.20608616750E+03  0.12509154030E+03 0.  0.
          5    1    3    3  502    0  0.29548167720E+02  0.10509759304E+02  0.19899345950E+01  0.31701443121E+02  0.41800000000E+01 0. -1.
         -5    1    3    3    0  502 -0.80233809037E+02  0.37248583571E+02 -0.15022529283E+03  0.17438472438E+03  0.41800000000E+01 0. -1.
        -11    1    1    2    0    0  0.40809194593E+01 -0.52472859334E+02 -0.17063824217E+03  0.17857061505E+03  0.00000000000E+00 0. -1.
         11    1    1    2    0    0  0.46604721858E+02  0.47145164591E+01 -0.43207574917E+02  0.63726927551E+02  0.00000000000E+00 0.  1.
</event>
<event>
 7    1  0.2556591E-009  0.1051061E+03  0.7561462E-02  0.1269911E+00
         -2   -1    0    0    0  501 -0.00000000000E+00  0.00000000000E+00  0.53388343490E+02  0.53388343490E+02  0.00000000000E+00 0.  1.
          2   -1    0    0  501    0  0.00000000000E+00 -0.00000000000E+00 -0.55540341746E+03  0.55540341746E+03  0.00000000000E+00 0. -1.
         25    2    1    2    0    0 -0.66669226945E+00 -0.41707280036E+02 -0.49122809738E+03  0.50861718395E+03  0.12508578845E+03 0.  0.
          5    1    3    3  502    0  0.37828806085E+02  0.30199726667E+02 -0.14647396389E+03  0.15432153628E+03  0.41800000000E+01 0.  1.
         -5    1    3    3    0  502 -0.38495498354E+02 -0.71907006703E+02 -0.34475413348E+03  0.35429564767E+03  0.41800000000E+01 0.  1.
        -11    1    1    2    0    0  0.33528511192E+02  0.30242743010E+02  0.23856267687E+02  0.51067661739E+02  0.00000000000E+00 0.  1.
         11    1    1    2    0    0 -0.32861818922E+02  0.11464537026E+02 -0.34643244277E+02  0.49106915258E+02  0.00000000000E+00 0. -1.
</event>
<event>
 7    1  0.2556591E-009  0.1078224E+03  0.7561462E-02  0.1264656E+00
         -1   -1    0    0    0  501 -0.00000000000E+00  0.00000000000E+00  0.23651470401E+03  0.23651470401E+03  0.00000000000E+00 0.  1.
          1   -1    0    0  501    0  0.00000000000E+00 -0.00000000000E+00 -0.10183403227E+03  0.10183403227E+03  0.00000000000E+00 0. -1.
         25    2    1    2    0    0  0.13161970452E+02 -0.51265863732E+02 -0.34036038737E+02  0.14002778097E+03  0.12509157149E+03 0.  0.
          5    1    3    3  502    0  0.39138214594E+02  0.24683652591E+02 -0.37304967055E+02  0.59583684963E+02  0.41800000000E+01 0.  1.
         -5    1    3    3    0  502 -0.25976244142E+02 -0.75949516323E+02  0.32689283183E+01  0.80444096003E+02  0.41800000000E+01 0.  1.
        -11    1    1    2    0    0 -0.38844547626E+02  0.49696537509E+02  0.15858279408E+03  0.17066677269E+03  0.00000000000E+00 0.  1.
         11    1    1    2    0    0  0.25682577174E+02  0.15693262228E+01  0.10133916393E+02  0.27654182623E+02  0.00000000000E+00 0. -1.
</event>
<event>
 7    1  0.2556591E-009  0.7016729E+02  0.7561462E-02  0.1359525E+00
          1   -1    0    0  501    0  0.00000000000E+00  0.00000000000E+00  0.37732140111E+03  0.37732140111E+03  0.00000000000E+00 0. -1.
         -1   -1    0    0    0  501 -0.00000000000E+00 -0.00000000000E+00 -0.32344553018E+02  0.32344553018E+02  0.00000000000E+00 0.  1.
         25    2    1    2    0    0  0.17384547601E+02  0.71526435440E+01  0.23935522402E+03  0.27072637611E+03  0.12509382338E+03 0.  0.
          5    1    3    3  502    0  0.81459258229E+01  0.46141392520E+02  0.26295940996E+02  0.53891865101E+02  0.41800000000E+01 0.  1.
         -5    1    3    3    0  502  0.92386217783E+01 -0.38988748976E+02  0.21305928303E+03  0.21683451101E+03  0.41800000000E+01 0.  1.
        -11    1    1    2    0    0  0.97674803492E+00 -0.26393600320E+02 -0.34827953452E+01  0.26640308519E+02  0.00000000000E+00 0.  1.
         11    1    1    2    0    0 -0.18361295636E+02  0.19240956776E+02  0.10910441941E+03  0.11229926950E+03  0.00000000000E+00 0. -1.
</event>
<event>
 7    1  0.2556591E-009  0.6789805E+02  0.7561462E-02  0.1367390E+00
         -1   -1    0    0    0  501 -0.00000000000E+00  0.00000000000E+00  0.51643825322E+02  0.51643825322E+02  0.00000000000E+00 0.  1.
          1   -1    0    0  501    0  0.00000000000E+00 -0.00000000000E+00 -0.31387480119E+03  0.31387480119E+03  0.00000000000E+00 0. -1.
         25    2    1    2    0    0 -0.75442038275E+01 -0.36412143023E+02 -0.21961835493E+03  0.25546396317E+03  0.12508739140E+03 0.  0.
          5    1    3    3  502    0  0.20341821187E+02 -0.41011143247E+02 -0.14263648154E+02  0.48131357952E+02  0.41800000000E+01 0.  1.
         -5    1    3    3    0  502 -0.27886025015E+02  0.45990002236E+01 -0.20535470677E+03  0.20733260522E+03  0.41800000000E+01 0.  1.
        -11    1    1    2    0    0  0.25460926213E+02  0.35004391406E+02  0.17966903003E+02  0.46865507410E+02  0.00000000000E+00 0.  1.
         11    1    1    2    0    0 -0.17916722385E+02  0.14077516170E+01 -0.60579523948E+02  0.63189155932E+02  0.00000000000E+00 0. -1.
</event>
<event>
 7    1  0.2556591E-009  0.6049398E+02  0.7561462E-02  0.1395770E+00
         -2   -1    0    0    0  501 -0.00000000000E+00  0.00000000000E+00  0.13101345913E+03  0.13101345913E+03  0.00000000000E+00 0.  1.
          2   -1    0    0  501    0  0.00000000000E+00 -0.00000000000E+00 -0.98831236753E+02  0.98831236753E+02  0.00000000000E+00 0. -1.
         25    2    1    2    0    0  0.25769001804E+02  0.11441052776E+02 -0.13452325603E+02  0.12893267470E+03  0.12509088855E+03 0.  0.
          5    1    3    3  502    0  0.11438061505E+02  0.40687146112E+02  0.45007582413E+02  0.61882372162E+02  0.41800000000E+01 0.  1.
         -5    1    3    3    0  502  0.14330940298E+02 -0.29246093336E+02 -0.58459908016E+02  0.67050302538E+02  0.41800000000E+01 0.  1.
        -11    1    1    2    0    0 -0.10501441192E+02 -0.23816211501E+02  0.67002380627E+02  0.71880534271E+02  0.00000000000E+00 0.  1.
         11    1    1    2    0    0 -0.15267560611E+02  0.12375158725E+02 -0.21367832645E+02  0.29031486914E+02  0.00000000000E+00 0. -1.
</event>
<event>
 7    1  0.2556591E-009  0.8231999E+02  0.7561462E-02  0.1322594E+00
          2   -1    0    0  501    0  0.00000000000E+00  0.00000000000E+00  0.48124488838E+03  0.48124488838E+03  0.00000000000E+00 0.  1.
         -2   -1    0    0    0  501 -0.00000000000E+00 -0.00000000000E+00 -0.27637888077E+02  0.27637888077E+02  0.00000000000E+00 0. -1.
         25    2    1    2    0    0 -0.29850707265E+02  0.14681736682E+02  0.30229720573E+03  0.32884389255E+03  0.12509231375E+03 0.  0.
          5    1    3    3  502    0 -0.27570420169E+02 -0.18565205757E+02  0.10481402781E+02  0.35101668584E+02  0.41800000000E+01 0.  1.
         -5    1    3    3    0  502 -0.22802870964E+01  0.33246942439E+02  0.29181580295E+03  0.29374222397E+03  0.41800000000E+01 0.  1.
        -11    1    1    2    0    0  0.41293484393E+02  0.30249736962E+02  0.80894749698E+02  0.95729613852E+02  0.00000000000E+00 0. -1.
         11    1    1    2    0    0 -0.11442777127E+02 -0.44931473644E+02  0.70415044878E+02  0.84309270056E+02  0.00000000000E+00 0.  1.
</event>
<event>
 7    1  0.2556591E-009  0.1110464E+03  0.7561462E-02  0.1258644E+00
          3   -1    0    0  501    0  0.00000000000E+00  0.00000000000E+00  0.51344168909E+02  0.51344168909E+02  0.00000000000E+00 0. -1.
         -3   -1    0    0    0  501 -0.00000000000E+00 -0.00000000000E+00 -0.28165891739E+03  0.28165891739E+03  0.00000000000E+00 0.  1.
         25    2    1    2    0    0 -0.57810714524E+00  0.27965445003E+02 -0.71359078098E+02  0.14670296238E+03  0.12508893166E+03 0.  0.
          5    1    3    3  502    0  0.33471808062E+02  0.67473429398E+02 -0.47922662171E+02  0.89370462454E+02  0.41800000000E+01 0. -1.
         -5    1    3    3    0  502 -0.34049915207E+02 -0.39507984395E+02 -0.23436415927E+02  0.57332499929E+02  0.41800000000E+01 0. -1.
        -11    1    1    2    0    0 -0.34366001250E+02 -0.44046700257E+02 -0.11525338811E+03  0.12807996453E+03  0.00000000000E+00 0.  1.
         11    1    1    2    0    0  0.34944108395E+02  0.16081255254E+02 -0.43702282277E+02  0.58220159381E+02  0.00000000000E+00 0. -1.
</event>
<event>
 7    1  0.2556591E-009  0.2149495E+03  0.7561462E-02  0.1137705E+00
          1   -1    0    0  501    0  0.00000000000E+00  0.00000000000E+00  0.89565464051E+03  0.89565464051E+03  0.00000000000E+00 0. -1.
         -1   -1    0    0    0  501 -0.00000000000E+00 -0.00000000000E+00 -0.59348656835E+02  0.59348656835E+02  0.00000000000E+00 0.  1.
         25    2    1    2    0    0 -0.13738929549E+02 -0.20235307518E+03  0.41030529361E+03  0.47448188438E+03  0.12508836644E+03 0.  0.
          5    1    3    3  502    0 -0.31348720939E+02 -0.19034335233E+03  0.26634867506E+03  0.32889576341E+03  0.41800000000E+01 0. -1.
         -5    1    3    3    0  502  0.17609791389E+02 -0.12009722854E+02  0.14395661855E+03  0.14558612098E+03  0.41800000000E+01 0. -1.
        -11    1    1    2    0    0 -0.26268435119E+02  0.38843180423E+02  0.15077977695E+03  0.15790302241E+03  0.00000000000E+00 0. -1.
         11    1    1    2    0    0  0.40007364668E+02  0.16350989476E+03  0.27522091311E+03  0.32261839056E+03  0.00000000000E+00 0.  1.
</event>
<event>
 7    1  0.2556591E-009  0.1196245E+03  0.7561462E-02  0.1243718E+00
         -2   -1    0    0    0  501 -0.00000000000E+00  0.00000000000E+00  0.13023311240E+02  0.13023311240E+02  0.00000000000E+00 0.  1.
          2   -1    0    0  501    0  0.00000000000E+00 -0.00000000000E+00 -0.17946486536E+04  0.17946486536E+04  0.00000000000E+00 0. -1.
         25    2    1    2    0    0  0.91591293434E+02  0.38377431623E+02 -0.12227612446E+04  0.12331480433E+04  0.12508894004E+03 0.  0.
          5    1    3    3  502    0  0.76044656794E+02  0.46332528174E+02 -0.12035657849E+04  0.12068626948E+04  0.41800000000E+01 0.  1.
         -5    1    3    3    0  502  0.15546636640E+02 -0.79550965505E+01 -0.19195459740E+02  0.26285348515E+02  0.41800000000E+01 0.  1.
        -11    1    1    2    0    0 -0.58357580912E+02 -0.66596721456E+02 -0.40727919067E+03  0.41679379759E+03  0.00000000000E+00 0. -1.
         11    1    1    2    0    0 -0.33233712523E+02  0.28219289833E+02 -0.15158490706E+03  0.15773012399E+03  0.00000000000E+00 0.  1.
</event>
<event>
 7    1  0.2556591E-009  0.8916893E+02  0.7561462E-02  0.1304877E+00
          4   -1    0    0  501    0  0.00000000000E+00  0.00000000000E+00  0.44646111393E+03  0.44646111393E+03  0.00000000000E+00 0. -1.
         -4   -1    0    0    0  501 -0.00000000000E+00 -0.00000000000E+00 -0.41068378562E+02  0.41068378562E+02  0.00000000000E+00 0.  1.
         25    2    1    2    0    0  0.56608305487E+02 -0.49036268343E+01  0.11912776794E+03  0.18184406550E+03  0.12508914124E+03 0.  0.
          5    1    3    3  502    0 -0.25544545836E+01  0.12770378259E+02 -0.23037738723E+02  0.26792118329E+02  0.41800000000E+01 0. -1.
         -5    1    3    3    0  502  0.59162760071E+02 -0.17674005094E+02  0.14216550666E+03  0.15505194717E+03  0.41800000000E+01 0. -1.
        -11    1    1    2    0    0 -0.65140380238E+02 -0.26430010703E+02  0.15077145998E+03  0.16635458439E+03  0.00000000000E+00 0.  1.
         11    1    1    2    0    0  0.85320747506E+01  0.31333637537E+02  0.13549350745E+03  0.13933084261E+03  0.00000000000E+00 0. -1.
</event>
<event>
 7    1  0.2556591E-009  0.9359533E+02  0.7561462E-02  0.1294371E+00
          2   -1    0    0  501    0  0.00000000000E+00  0.00000000000E+00  0.69106341876E+03  0.69106341876E+03  0.00000000000E+00 0. -1.
         -2   -1    0    0    0  501 -0.00000000000E+00 -0.00000000000E+00 -0.20095840106E+02  0.20095840106E+02  0.00000000000E+00 0.  1.
         25    2    1    2    0    0 -0.32379946602E+02  0.54216359356E+01  0.48120784018E+03  0.49828316098E+03  0.12508904024E+03 0.  0.
          5    1    3    3  502    0 -0.66115741149E+02  0.16602034439E+02  0.43241021001E+03  0.43777046599E+03  0.41800000000E+01 0. -1.
         -5    1    3    3    0  502  0.33735794547E+02 -0.11180398503E+02  0.48797630165E+02  0.60512694983E+02  0.41800000000E+01 0. -1.
        -11    1    1    2    0    0  0.57591284254E+02 -0.16304283599E+01  0.17306097137E+03  0.18239932601E+03  0.00000000000E+00 0. -1.
         11    1    1    2    0    0 -0.25211337652E+02 -0.37912075757E+01  0.16698767114E+02  0.30476771880E+02  0.00000000000E+00 0.  1.
</event>
<event>
 7    1  0.2556591E-009  0.1290713E+03  0.7561462E-02  0.1228840E+00
         -1   -1    0    0    0  501 -0.00000000000E+00  0.00000000000E+00  0.36742747388E+02  0.36742747388E+02  0.00000000000E+00 0.  1.
          1   -1    0    0  501    0  0.00000000000E+00 -0.00000000000E+00 -0.57010555801E+03  0.57010555801E+03  0.00000000000E+00 0. -1.
         25    2    1    2    0    0  0.77025799096E+02  0.14804768159E+02 -0.17720275505E+03  0.23065313263E+03  0.12509155171E+03 0.  0.
          5    1    3    3  502    0 -0.21785706086E+02 -0.22240839420E+02 -0.84420610707E+02  0.90075434165E+02  0.41800000000E+01 0.  1.
         -5    1    3    3    0  502  0.98811505182E+02  0.37045607579E+02 -0.92782144340E+02  0.14057769846E+03  0.41800000000E+01 0.  1.
        -11    1    1    2    0    0  0.21548110875E+02 -0.87056545012E+00 -0.65450441161E+02  0.68911822024E+02  0.00000000000E+00 0.  1.
         11    1    1    2    0    0 -0.98573909971E+02 -0.13934202709E+02 -0.29070961441E+03  0.30728335074E+03  0.00000000000E+00 0. -1.
</event>
<event>
 7    1  0.2556591E-009  0.1048414E+03  0.7561462E-02  0.1270432E+00
          1   -1    0    0  501    0  0.00000000000E+00  0.00000000000E+00  0.10944504868E+04  0.10944504868E+04  0.00000000000E+00 0. -1.
         -1   -1    0    0    0  501 -0.00000000000E+00 -0.00000000000E+00 -0.21734720363E+02  0.21734720363E+02  0.00000000000E+00 0.  1.
         25    2    1    2    0    0  0.98873455213E+01 -0.20601022640E+02  0.96717331853E+03  0.97549756528E+03  0.12509640297E+03 0.  0.
          5    1    3    3  502    0 -0.43151000049E+02  0.30719354168E+02  0.38442664867E+03  0.38808118755E+03  0.41800000000E+01 0. -1.
         -5    1    3    3    0  502  0.53038345570E+02 -0.51320376808E+02  0.58274666987E+03  0.58741637772E+03  0.41800000000E+01 0. -1.
        -11    1    1    2    0    0 -0.27149920450E+02 -0.23096212381E+02  0.79133040656E+02  0.86790502535E+02  0.00000000000E+00 0. -1.
         11    1    1    2    0    0  0.17262574928E+02  0.43697235021E+02  0.26409407288E+02  0.53897139395E+02  0.00000000000E+00 0.  1.
</event>
<event>
 7    1  0.2556591E-009  0.2627023E+03  0.7561462E-02  0.1105530E+00
          1   -1    0    0  501    0  0.00000000000E+00  0.00000000000E+00  0.94993254799E+02  0.94993254799E+02  0.00000000000E+00 0. -1.
         -1   -1    0    0    0  501 -0.00000000000E+00 -0.00000000000E+00 -0.81548863710E+03  0.81548863710E+03  0.00000000000E+00 0.  1.
         25    2    1    2    0    0  0.24996188221E+03  0.49891210598E+02 -0.41022095983E+03  0.49889717753E+03  0.12508829848E+03 0.  0.
          5    1    3    3  502    0  0.11222070570E+03  0.19173751964E+02 -0.29641447320E+03  0.31755335280E+03  0.41800000000E+01 0.  1.
         -5    1    3    3    0  502  0.13774117650E+03  0.30717458634E+02 -0.11380648663E+03  0.18134382473E+03  0.41800000000E+01 0.  1.
        -11    1    1    2    0    0 -0.35578755244E+02 -0.42985995060E+02 -0.58889241722E+02  0.81126976935E+02  0.00000000000E+00 0.  1.
         11    1    1    2    0    0 -0.21438312696E+03 -0.69052155380E+01 -0.25138518075E+03  0.33045773743E+03  0.00000000000E+00 0. -1.
</event>
<event>
 7    1  0.2556591E-009  0.1237979E+03  0.7561462E-02  0.1236960E+00
          1   -1    0    0  501    0  0.00000000000E+00  0.00000000000E+00  0.16922176388E+04  0.16922176388E+04  0.00000000000E+00 0. -1.
         -1   -1    0    0    0  501 -0.00000000000E+00 -0.00000000000E+00 -0.13642911937E+02  0.13642911937E+02  0.00000000000E+00 0.  1.
         25    2    1    2    0    0  0.99483374378E+02 -0.87464968262E+01  0.11281924138E+04  0.11394911847E+04  0.12509434251E+03 0.  0.
          5    1    3    3  502    0  0.40168303433E+02  0.31314107271E+02  0.14599891315E+03  0.15468426215E+03  0.41800000000E+01 0. -1.
         -5    1    3    3    0  502  0.59315070945E+02 -0.40060604098E+02  0.98219350060E+03  0.98480692253E+03  0.41800000000E+01 0. -1.
        -11    1    1    2    0    0 -0.18755477925E+02 -0.29897946074E+02  0.78426800332E+02  0.86002431024E+02  0.00000000000E+00 0.  1.
         11    1    1    2    0    0 -0.80727896453E+02  0.38644442901E+02  0.47195551277E+03  0.48036693502E+03  0.00000000000E+00 0. -1.
</event>
<event>
 7    1  0.2556591E-009  0.1286975E+03  0.7561462E-02  0.1229401E+00
          1   -1    0    0  501    0  0.00000000000E+00  0.00000000000E+00  0.75581109373E+03  0.75581109373E+03  0.00000000000E+00 0. -1.
         -1   -1    0    0    0  501 -0.00000000000E+00 -0.00000000000E+00 -0.34736865572E+02  0.34736865572E+02  0.00000000000E+00 0.  1.
         25    2    1    2    0    0 -0.85915370532E+02  0.29103313755E+02  0.55942239335E+03  0.58036932308E+03  0.12508670283E+03 0.  0.
          5    1    3    3  502    0 -0.10918418709E+03  0.29148091211E+02  0.31275762496E+03  0.33257420571E+03  0.41800000000E+01 0. -1.
         -5    1    3    3    0  502  0.23268816555E+02 -0.44777456609E-01  0.24666476839E+03  0.24779511737E+03  0.41800000000E+01 0. -1.
        -11    1    1    2    0    0  0.75275182973E+02 -0.54632167326E+02  0.15648887813E+03  0.18204339004E+03  0.00000000000E+00 0. -1.
         11    1    1    2    0    0  0.10640187559E+02  0.25528853571E+02  0.51629566730E+01  0.28135246179E+02  0.00000000000E+00 0.  1.
</event>
<event>
 7    1  0.2556591E-009  0.2458225E+03  0.7561462E-02  0.1115974E+00
          2   -1    0    0  501    0  0.00000000000E+00  0.00000000000E+00  0.32279256934E+03  0.32279256934E+03  0.00000000000E+00 0.  1.
         -2   -1    0    0    0  501 -0.00000000000E+00 -0.00000000000E+00 -0.21398887406E+03  0.21398887406E+03  0.00000000000E+00 0. -1.
         25    2    1    2    0    0  0.20469124416E+03  0.91560781284E+02 -0.28229572367E+02  0.25831478777E+03  0.12509092181E+03 0.  0.
          5    1    3    3  502    0  0.21925387926E+03  0.81133072503E+02 -0.38924610948E+02  0.23703889293E+03  0.41800000000E+01 0.  1.
         -5    1    3    3    0  502 -0.14562635092E+02  0.10427708780E+02  0.10695038581E+02  0.21275894846E+02  0.41800000000E+01 0.  1.
        -11    1    1    2    0    0 -0.14690453930E+03 -0.21269920392E+02  0.10571287779E+03  0.18223217530E+03  0.00000000000E+00 0.  1.
         11    1    1    2    0    0 -0.57786704861E+02 -0.70290860892E+02  0.31320389854E+02  0.96234480329E+02  0.00000000000E+00 0. -1.
</event>
<event>
 7    1  0.2635324E-009  0.1513937E+03  0.7561462E-02  0.1198771E+00
         -4   -1    0    0    0  501 -0.00000000000E+00  0.00000000000E+00  0.89230330481E+02  0.89230330481E+02  0.00000000000E+00 0. -1.
          4   -1    0    0  501    0  0.00000000000E+00 -0.00000000000E+00 -0.40676510469E+03  0.40676510469E+03  0.00000000000E+00 0.  1.
         25    2    1    2    0    0 -0.11087040731E+03 -0.95027371117E+02 -0.23902855593E+03  0.30677162479E+03  0.12510687730E+03 0.  0.
          5    1    3    3  502    0 -0.92920294135E+02 -0.10051096997E+03 -0.10818452686E+03  0.17452220603E+03  0.41800000000E+01 0.  1.
         -5    1    3    3    0  502 -0.17950113173E+02  0.54835988492E+01 -0.13084402906E+03  0.13224941876E+03  0.41800000000E+01 0.  1.
        -11    1    1    2    0    0  0.36966824652E+02  0.23757230283E+02  0.18774972092E+02  0.47785475749E+02  0.00000000000E+00 0. -1.
         11    1    1    2    0    0  0.73903582656E+02  0.71270140834E+02 -0.97281190376E+02  0.14143833464E+03  0.00000000000E+00 0.  1.
</event>
<event>
 7    1  0.2556591E-009  0.8338638E+02  0.7561462E-02  0.1319707E+00
         -1   -1    0    0    0  501 -0.00000000000E+00  0.00000000000E+00  0.17071670654E+03  0.17071670654E+03  0.00000000000E+00 0.  1.
          1   -1    0    0  501    0  0.00000000000E+00 -0.00000000000E+00 -0.81889490416E+02  0.81889490416E+02  0.00000000000E+00 0. -1.
         25    2    1    2    0    0 -0.41141677786E+02 -0.31882576073E+02  0.54095754394E+02  0.14588691364E+03  0.12508998609E+03 0.  0.
          5    1    3    3  502    0  0.79723407762E+01 -0.58103393767E+02  0.66425855623E+02  0.88709803742E+02  0.41800000000E+01 0.  1.
         -5    1    3    3    0  502 -0.49114018562E+02  0.26220817694E+02 -0.12330101229E+02  0.57177109897E+02  0.41800000000E+01 0.  1.
        -11    1    1    2    0    0  0.20391272172E+02  0.17791255988E+02  0.63216240738E+02  0.68765004643E+02  0.00000000000E+00 0.  1.
         11    1    1    2    0    0  0.20750405614E+02  0.14091320085E+02 -0.28484779006E+02  0.37954278677E+02  0.00000000000E+00 0. -1.
</event>
<event>
 7    1  0.2556591E-009  0.1308131E+03  0.7561462E-02  0.1226254E+00
         -1   -1    0    0    0  501 -0.00000000000E+00  0.00000000000E+00  0.41870511627E+02  0.41870511627E+02  0.00000000000E+00 0.  1.
          1   -1    0    0  501    0  0.00000000000E+00 -0.00000000000E+00 -0.50005844490E+03  0.50005844490E+03  0.00000000000E+00 0. -1.
         25    2    1    2    0    0 -0.61240847522E+02 -0.63440045825E+02 -0.28981745045E+03  0.32774569134E+03  0.12509197730E+03 0.  0.
          5    1    3    3  502    0 -0.70736057078E+02 -0.83529030051E+02 -0.14793556508E+03  0.18407360606E+03  0.41800000000E+01 0. -1.
         -5    1    3    3    0  502  0.94952095561E+01  0.20088984226E+02 -0.14188188537E+03  0.14367208528E+03  0.41800000000E+01 0. -1.
        -11    1    1    2    0    0  0.53858221209E+02 -0.10752763870E+02 -0.94035442487E+02  0.10889900994E+03  0.00000000000E+00 0. -1.
         11    1    1    2    0    0  0.73826263132E+01  0.74192809695E+02 -0.74335040337E+02  0.10528425525E+03  0.00000000000E+00 0.  1.
</event>
<event>
 7    1  0.2556591E-009  0.1623685E+03  0.7561462E-02  0.1186048E+00
         -2   -1    0    0    0  501 -0.00000000000E+00  0.00000000000E+00  0.73458701321E+02  0.73458701321E+02  0.00000000000E+00 0. -1.
          2   -1    0    0  501    0  0.00000000000E+00 -0.00000000000E+00 -0.43771405112E+03  0.43771405112E+03  0.00000000000E+00 0.  1.
         25    2    1    2    0    0 -0.11275233860E+03  0.80617730472E+02 -0.23805393993E+03  0.30253218849E+03  0.12507493127E+03 0.  0.
          5    1    3    3  502    0 -0.29585652185E+01  0.73908356311E+02 -0.12076465882E+03  0.14167841565E+03  0.41800000000E+01 0. -1.
         -5    1    3    3    0  502 -0.10979377338E+03  0.67093741615E+01 -0.11728928111E+03  0.16085377284E+03  0.41800000000E+01 0. -1.
        -11    1    1    2    0    0  0.63150077263E+02 -0.30755346308E+02 -0.11867817823E+03  0.13790697434E+03  0.00000000000E+00 0.  1.
         11    1    1    2    0    0  0.49602261336E+02 -0.49862384164E+02 -0.75232316397E+01  0.70733589605E+02  0.00000000000E+00 0. -1.
</event>
<event>
 7    1  0.3572171E-009  0.1702057E+03  0.7561462E-02  0.1177634E+00
         -1   -1    0    0    0  501 -0.00000000000E+00  0.00000000000E+00  0.32426940907E+02  0.32426940907E+02  0.00000000000E+00 0.  1.
          1   -1    0    0  501    0  0.00000000000E+00 -0.00000000000E+00 -0.12326568729E+04  0.12326568729E+04  0.00000000000E+00 0. -1.
         25    2    1    2    0    0  0.92954790495E+02 -0.13497442438E+03 -0.51816800550E+03  0.55767993430E+03  0.12510051513E+03 0.  0.
          5    1    3    3  502    0  0.41203062041E+02 -0.66368803962E+02 -0.41965851280E+03  0.42688786611E+03  0.41800000000E+01 0. -1.
         -5    1    3    3    0  502  0.51751728454E+02 -0.68605620421E+02 -0.98509492693E+02  0.13079206819E+03  0.41800000000E+01 0. -1.
        -11    1    1    2    0    0 -0.53600302362E+02  0.24624624020E+02 -0.12585763306E+03  0.13899463414E+03  0.00000000000E+00 0.  1.
         11    1    1    2    0    0 -0.39354488133E+02  0.11034980036E+03 -0.55620429341E+03  0.56840924533E+03  0.00000000000E+00 0. -1.
</event>
<event>
 7    1  0.2556591E-009  0.1044050E+03  0.7561462E-02  0.1271296E+00
          2   -1    0    0  501    0  0.00000000000E+00  0.00000000000E+00  0.71697693734E+02  0.71697693734E+02  0.00000000000E+00 0. -1.
         -2   -1    0    0    0  501 -0.00000000000E+00 -0.00000000000E+00 -0.17791600476E+03  0.17791600476E+03  0.00000000000E+00 0.  1.
         25    2    1    2    0    0 -0.22914019299E+02  0.48267442285E+01 -0.77042811649E+02  0.14876522856E+03  0.12508856327E+03 0.  0.
          5    1    3    3  502    0 -0.13224289095E+02 -0.59631802064E+02 -0.45194405672E+02  0.76097571206E+02  0.41800000000E+01 0. -1.
         -5    1    3    3    0  502 -0.96897302045E+01  0.64458546292E+02 -0.31848405977E+02  0.72667657351E+02  0.41800000000E+01 0. -1.
        -11    1    1    2    0    0  0.44401325558E+02  0.20627552882E+02  0.94293544533E+01  0.49858663987E+02  0.00000000000E+00 0.  1.
         11    1    1    2    0    0 -0.21487306258E+02 -0.25454297110E+02 -0.38604853836E+02  0.50989805954E+02  0.00000000000E+00 0. -1.
</event>
<event>
 7    1  0.2556591E-009  0.1731512E+03  0.7561462E-02  0.1174601E+00
          2   -1    0    0  501    0  0.00000000000E+00  0.00000000000E+00  0.83073536722E+03  0.83073536722E+03  0.00000000000E+00 0. -1.
         -2   -1    0    0    0  501 -0.00000000000E+00 -0.00000000000E+00 -0.39571471261E+02  0.39571471261E+02  0.00000000000E+00 0.  1.
         25    2    1    2    0    0 -0.74788773348E+02 -0.12177846361E+03  0.36561742239E+03  0.41200277259E+03  0.12508729052E+03 0.  0.
          5    1    3    3  502    0 -0.10130987379E+03 -0.10226713814E+03  0.22214563618E+03  0.26474216541E+03  0.41800000000E+01 0.  1.
         -5    1    3    3    0  502  0.26521100443E+02 -0.19511325475E+02  0.14347178621E+03  0.14726060718E+03  0.41800000000E+01 0.  1.
        -11    1    1    2    0    0 -0.21014540291E+02  0.28286057838E+02  0.69448991357E+02  0.77877303319E+02  0.00000000000E+00 0.  1.
         11    1    1    2    0    0  0.95803313638E+02  0.93492405774E+02  0.35609748221E+03  0.38042676257E+03  0.00000000000E+00 0. -1.
</event>
<event>
 7    1  0.2556591E-009  0.1553637E+03  0.7561462E-02  0.1194033E+00
         -2   -1    0    0    0  501 -0.00000000000E+00  0.00000000000E+00  0.90090841208E+02  0.90090841208E+02  0.00000000000E+00 0.  1.
          2   -1    0    0  501    0  0.00000000000E+00 -0.00000000000E+00 -0.32914150062E+03  0.32914150062E+03  0.00000000000E+00 0. -1.
         25    2    1    2    0    0 -0.11436265932E+03 -0.48929454602E+02 -0.68669576072E+02  0.18930129664E+03  0.12508621369E+03 0.  0.
          5    1    3    3  502    0  0.19885488577E+02  0.16535193459E+02 -0.16869605242E+02  0.31159288498E+02  0.41800000000E+01 0.  1.
         -5    1    3    3    0  502 -0.13424814790E+03 -0.65464648061E+02 -0.51799970830E+02  0.15814200814E+03  0.41800000000E+01 0.  1.
        -11    1    1    2    0    0  0.73531056871E+02  0.29087572519E+01 -0.35547884403E+02  0.81724716450E+02  0.00000000000E+00 0. -1.
         11    1    1    2    0    0  0.40831602453E+02  0.46020697350E+02 -0.13483319893E+03  0.14820632874E+03  0.00000000000E+00 0.  1.
</event>
<event>
 7    1  0.2556591E-009  0.6040452E+02  0.7561462E-02  0.1396142E+00
         -1   -1    0    0    0  501 -0.00000000000E+00  0.00000000000E+00  0.21074586703E+03  0.21074586703E+03  0.00000000000E+00 0.  1.
          1   -1    0    0  501    0  0.00000000000E+00 -0.00000000000E+00 -0.56474414011E+02  0.56474414011E+02  0.00000000000E+00 0. -1.
         25    2    1    2    0    0 -0.16917938875E+02 -0.55417829104E+01  0.99738445341E+02  0.16097325672E+03  0.12509078257E+03 0.  0.
          5    1    3    3  502    0 -0.35977247752E+02  0.19002795780E+02 -0.13813866277E+02  0.43171331978E+02  0.41800000000E+01 0.  1.
         -5    1    3    3    0  502  0.19059308877E+02 -0.24544578690E+02  0.11355231162E+03  0.11780192474E+03  0.41800000000E+01 0.  1.
        -11    1    1    2    0    0 -0.11491202492E+02 -0.10806888856E+02  0.68737349322E+02  0.70524178643E+02  0.00000000000E+00 0.  1.
         11    1    1    2    0    0  0.28409141367E+02  0.16348671766E+02 -0.14204341648E+02  0.35722845678E+02  0.00000000000E+00 0. -1.
</event>
<event>
 7    1  0.2556591E-009  0.1265224E+03  0.7561462E-02  0.1232709E+00
          2   -1    0    0  501    0  0.00000000000E+00  0.00000000000E+00  0.64664318512E+03  0.64664318512E+03  0.00000000000E+00 0. -1.
         -2   -1    0    0    0  501 -0.00000000000E+00 -0.00000000000E+00 -0.36010809119E+02  0.36010809119E+02  0.00000000000E+00 0.  1.
         25    2    1    2    0    0  0.74594752029E+02 -0.13188868266E+02  0.15922556579E+03  0.21619627952E+03  0.12509886971E+03 0.  0.
          5    1    3    3  502    0  0.71285227005E+02  0.40796369219E+02  0.55726189765E+02  0.99341874134E+02  0.41800000000E+01 0. -1.
         -5    1    3    3    0  502  0.33095250233E+01 -0.53985237485E+02  0.10349937602E+03  0.11685440539E+03  0.41800000000E+01 0. -1.
        -11    1    1    2    0    0  0.19615392706E+02  0.10633401903E+02  0.11247863751E+03  0.11467029591E+03  0.00000000000E+00 0. -1.
         11    1    1    2    0    0 -0.94210144735E+02  0.25554663631E+01  0.33892817270E+03  0.35178741881E+03  0.00000000000E+00 0.  1.
</event>
<event>
 7    1  0.2556591E-009  0.1443897E+03  0.7561462E-02  0.1207541E+00
          1   -1    0    0  501    0  0.00000000000E+00  0.00000000000E+00  0.13260510572E+03  0.13260510572E+03  0.00000000000E+00 0. -1.
         -1   -1    0    0    0  501 -0.00000000000E+00 -0.00000000000E+00 -0.20429393089E+03  0.20429393089E+03  0.00000000000E+00 0.  1.
         25    2    1    2    0    0 -0.77711603724E+02 -0.78308485689E+02 -0.21556683666E+02  0.16817658173E+03  0.12508940702E+03 0.  0.
          5    1    3    3  502    0 -0.33409847744E+02 -0.96749481860E+02  0.20217681406E+02  0.10441698716E+03  0.41800000000E+01 0. -1.
         -5    1    3    3    0  502 -0.44301755980E+02  0.18440996171E+02 -0.41774365072E+02  0.63759594571E+02  0.41800000000E+01 0. -1.
        -11    1    1    2    0    0  0.61906135245E+02  0.38206750799E+01  0.20032387901E+02  0.65178705909E+02  0.00000000000E+00 0.  1.
         11    1    1    2    0    0  0.15805468480E+02  0.74487810610E+02 -0.70164529402E+02  0.10354374896E+03  0.00000000000E+00 0. -1.
</event>
<event>
 7    1  0.2556591E-009  0.1449414E+03  0.7561462E-02  0.1206830E+00
          1   -1    0    0  501    0  0.00000000000E+00  0.00000000000E+00  0.28901609817E+03  0.28901609817E+03  0.00000000000E+00 0. -1.
         -1   -1    0    0    0  501 -0.00000000000E+00 -0.00000000000E+00 -0.90838521389E+02  0.90838521389E+02  0.00000000000E+00 0.  1.
         25    2    1    2    0    0 -0.10241378579E+03  0.52622562232E+02  0.68218923706E+02  0.18319052889E+03  0.12508889139E+03 0.  0.
          5    1    3    3  502    0 -0.82161152713E+02 -0.47138054555E+01 -0.11111841406E+02  0.83148183363E+02  0.41800000000E+01 0.  1.
         -5    1    3    3    0  502 -0.20252633072E+02  0.57336367687E+02  0.79330765112E+02  0.10004234553E+03  0.41800000000E+01 0.  1.
        -11    1    1    2    0    0  0.92890922886E+01  0.24126642180E+02  0.14453946759E+02  0.29619228136E+02  0.00000000000E+00 0.  1.
         11    1    1    2    0    0  0.93124693497E+02 -0.76749204412E+02  0.11550470632E+03  0.16704486253E+03  0.00000000000E+00 0. -1.
</event>
<event>
 7    1  0.2556591E-009  0.1789031E+03  0.7561462E-02  0.1168869E+00
          2   -1    0    0  501    0  0.00000000000E+00  0.00000000000E+00  0.26628454457E+03  0.26628454457E+03  0.00000000000E+00 0. -1.
         -2   -1    0    0    0  501 -0.00000000000E+00 -0.00000000000E+00 -0.15568290315E+03  0.15568290315E+03  0.00000000000E+00 0.  1.
         25    2    1    2    0    0  0.70038929365E+02  0.15437322797E+03  0.26679063886E+02  0.21235629021E+03  0.12508747501E+03 0.  0.
          5    1    3    3  502    0  0.12017315325E+02  0.42191981896E+02 -0.48329048101E+02  0.65404499037E+02  0.41800000000E+01 0. -1.
         -5    1    3    3    0  502  0.58021614040E+02  0.11218124607E+03  0.75008111987E+02  0.14695179118E+03  0.41800000000E+01 0. -1.
        -11    1    1    2    0    0  0.12655801404E+02 -0.62471789237E+02  0.72878808568E+01  0.64156114027E+02  0.00000000000E+00 0.  1.
         11    1    1    2    0    0 -0.82694730769E+02 -0.91901438732E+02  0.76634696673E+02  0.14545504347E+03  0.00000000000E+00 0. -1.
</event>
<event>
 7    1  0.2556591E-009  0.1281194E+03  0.7561462E-02  0.1230273E+00
         -2   -1    0    0    0  501 -0.00000000000E+00  0.00000000000E+00  0.52023075710E+02  0.52023075710E+02  0.00000000000E+00 0. -1.
          2   -1    0    0  501    0  0.00000000000E+00 -0.00000000000E+00 -0.48139501345E+03  0.48139501345E+03  0.00000000000E+00 0.  1.
         25    2    1    2    0    0 -0.33583494565E+02 -0.73870475539E+02 -0.36714187103E+03  0.39626198146E+03  0.12508279748E+03 0.  0.
          5    1    3    3  502    0 -0.69577819505E+02 -0.72638027186E+02 -0.18569885754E+03  0.21123184905E+03  0.41800000000E+01 0. -1.
         -5    1    3    3    0  502  0.35994324939E+02 -0.12324483531E+01 -0.18144301349E+03  0.18503013241E+03  0.41800000000E+01 0. -1.
        -11    1    1    2    0    0  0.21361494693E+02  0.93651870347E+02 -0.37245411720E+02  0.10302527345E+03  0.00000000000E+00 0. -1.
         11    1    1    2    0    0  0.12221999873E+02 -0.19781394808E+02 -0.24984654986E+02  0.34130834244E+02  0.00000000000E+00 0.  1.
</event>
<event>
 7    1  0.2556591E-009  0.1483500E+03  0.7561462E-02  0.1202515E+00
         -1   -1    0    0    0  501 -0.00000000000E+00  0.00000000000E+00  0.54649267339E+02  0.54649267339E+02  0.00000000000E+00 0.  1.
          1   -1    0    0  501    0  0.00000000000E+00 -0.00000000000E+00 -0.51935451618E+03  0.51935451618E+03  0.00000000000E+00 0. -1.
         25    2    1    2    0    0  0.21012529582E+02 -0.12464591820E+03 -0.23575213907E+03  0.29530594215E+03  0.12509355329E+03 0.  0.
          5    1    3    3  502    0  0.74201624347E+01 -0.12491846690E+03 -0.24716505764E+03  0.27706988343E+03  0.41800000000E+01 0.  1.
         -5    1    3    3    0  502  0.13592367148E+02  0.27254869994E+00  0.11412918576E+02  0.18236058727E+02  0.41800000000E+01 0.  1.
        -11    1    1    2    0    0  0.50049034240E+01  0.13050370465E+03 -0.20369313043E+03  0.24196519868E+03  0.00000000000E+00 0.  1.
         11    1    1    2    0    0 -0.26017433006E+02 -0.58577864523E+01 -0.25259979341E+02  0.36732642686E+02  0.00000000000E+00 0. -1.
</event>
<event>
 7    1  0.2556591E-009  0.2948869E+03  0.7561462E-02  0.1087825E+00
         -2   -1    0    0    0  501 -0.00000000000E+00  0.00000000000E+00  0.79441180639E+02  0.79441180639E+02  0.00000000000E+00 0.  1.
          2   -1    0    0  501    0  0.00000000000E+00 -0.00000000000E+00 -0.11420505244E+04  0.11420505244E+04  0.00000000000E+00 0. -1.
         25    2    1    2    0    0 -0.12004824275E+03 -0.24771671847E+03 -0.66262866902E+03  0.72835422014E+03  0.12509182145E+03 0.  0.
          5    1    3    3  502    0 -0.29055482998E+02 -0.19304078839E+03 -0.45487528347E+03  0.49501309376E+03  0.41800000000E+01 0. -1.
         -5    1    3    3    0  502 -0.90992759747E+02 -0.54675930082E+02 -0.20775338554E+03  0.23334112638E+03  0.41800000000E+01 0. -1.
        -11    1    1    2    0    0  0.77119808458E+02  0.22864594176E+03 -0.34087902013E+03  0.41764211701E+03  0.00000000000E+00 0. -1.
         11    1    1    2    0    0  0.42928434287E+02  0.19070776709E+02 -0.59101654645E+02  0.75495367914E+02  0.00000000000E+00 0.  1.
</event>
<event>
 7    1  0.2556591E-009  0.1880733E+03  0.7561462E-02  0.1160211E+00
         -1   -1    0    0    0  501 -0.00000000000E+00  0.00000000000E+00  0.48650833430E+02  0.48650833430E+02  0.00000000000E+00 0.  1.
          1   -1    0    0  501    0  0.00000000000E+00 -0.00000000000E+00 -0.99457437721E+03  0.99457437721E+03  0.00000000000E+00 0. -1.
         25    2    1    2    0    0 -0.13154851534E+03 -0.12250124151E+03 -0.33335690560E+03  0.39885562354E+03  0.12508963128E+03 0.  0.
          5    1    3    3  502    0 -0.74575034931E+02 -0.11390928937E+03 -0.13315231064E+03  0.19048299733E+03  0.41800000000E+01 0. -1.
         -5    1    3    3    0  502 -0.56973480407E+02 -0.85919521423E+01 -0.20020459496E+03  0.20837262621E+03  0.41800000000E+01 0. -1.
        -11    1    1    2    0    0  0.62275372519E+02  0.78071053833E+02 -0.46308409855E+03  0.47373008539E+03  0.00000000000E+00 0. -1.
         11    1    1    2    0    0  0.69273142819E+02  0.44430187681E+02 -0.14948253962E+03  0.17063950172E+03  0.00000000000E+00 0.  1.
</event>
<event>
 7    1  0.2556591E-009  0.1426306E+03  0.7561462E-02  0.1209832E+00
          2   -1    0    0  501    0  0.00000000000E+00  0.00000000000E+00  0.48067033513E+03  0.48067033513E+03  0.00000000000E+00 0. -1.
         -2   -1    0    0    0  501 -0.00000000000E+00 -0.00000000000E+00 -0.44154943438E+02  0.44154943438E+02  0.00000000000E+00 0.  1.
         25    2    1    2    0    0  0.63027719826E+02  0.72532171378E+02  0.19492644423E+03  0.25075368343E+03  0.12509069406E+03 0.  0.
          5    1    3    3  502    0  0.10095280923E+03  0.51304959327E+02  0.15130061550E+03  0.18903178885E+03  0.41800000000E+01 0. -1.
         -5    1    3    3    0  502 -0.37925089408E+02  0.21227212052E+02  0.43625828726E+02  0.61721894577E+02  0.41800000000E+01 0. -1.
        -11    1    1    2    0    0  0.18014108137E+02  0.20658076012E+01  0.48440039371E+02  0.51722461922E+02  0.00000000000E+00 0.  1.
         11    1    1    2    0    0 -0.81041827962E+02 -0.74597978980E+02  0.19314890809E+03  0.22234913322E+03  0.00000000000E+00 0. -1.
</event>
<event>
 7    1  0.2556591E-009  0.1036749E+03  0.7561462E-02  0.1272753E+00
         -2   -1    0    0    0  501 -0.00000000000E+00  0.00000000000E+00  0.40259123705E+02  0.40259123705E+02  0.00000000000E+00 0. -1.
          2   -1    0    0  501    0  0.00000000000E+00 -0.00000000000E+00 -0.36300167181E+03  0.36300167181E+03  0.00000000000E+00 0.  1.
         25    2    1    2    0    0 -0.39516393998E+01 -0.32318336510E+02 -0.25124918515E+03  0.28255147206E+03  0.12509632685E+03 0.  0.
          5    1    3    3  502    0 -0.18533172005E+02 -0.69952859854E+02 -0.86390364266E+02  0.11277255209E+03  0.41800000000E+01 0.  1.
         -5    1    3    3    0  502  0.14581532606E+02  0.37634523344E+02 -0.16485882089E+03  0.16977891997E+03  0.41800000000E+01 0.  1.
        -11    1    1    2    0    0 -0.41297528213E+02  0.25474421864E+02 -0.51533056518E+02  0.70781974541E+02  0.00000000000E+00 0.  1.
         11    1    1    2    0    0  0.45249167613E+02  0.68439146460E+01 -0.19960306435E+02  0.49927348922E+02  0.00000000000E+00 0. -1.
</event>
<event>
 7    1  0.2556591E-009  0.9028568E+02  0.7561462E-02  0.1302161E+00
          1   -1    0    0  501    0  0.00000000000E+00  0.00000000000E+00  0.24776245682E+04  0.24776245682E+04  0.00000000000E+00 0. -1.
         -1   -1    0    0    0  501 -0.00000000000E+00 -0.00000000000E+00 -0.11755642649E+02  0.11755642649E+02  0.00000000000E+00 0.  1.
         25    2    1    2    0    0  0.41661059309E+02 -0.35362960689E+02  0.21887548904E+04  0.21930074037E+04  0.12508924597E+03 0.  0.
          5    1    3    3  502    0  0.16838477023E+02 -0.54835215118E+02  0.20434064975E+04  0.20442157473E+04  0.41800000000E+01 0. -1.
         -5    1    3    3    0  502  0.24822582285E+02  0.19472254429E+02  0.14534839286E+03  0.14879165632E+03  0.41800000000E+01 0. -1.
        -11    1    1    2    0    0 -0.52991360833E+02 -0.11479979277E+01  0.82641738067E+02  0.98178709978E+02  0.00000000000E+00 0.  1.
         11    1    1    2    0    0  0.11330301524E+02  0.36510958617E+02  0.19447229712E+03  0.19819409724E+03  0.00000000000E+00 0. -1.
</event>
<event>
 7    1  0.2556591E-009  0.1493430E+03  0.7561462E-02  0.1201283E+00
         -1   -1    0    0    0  501 -0.00000000000E+00  0.00000000000E+00  0.28669621517E+02  0.28669621517E+02  0.00000000000E+00 0.  1.
          1   -1    0    0  501    0  0.00000000000E+00 -0.00000000000E+00 -0.10318833669E+04  0.10318833669E+04  0.00000000000E+00 0. -1.
         25    2    1    2    0    0  0.58783435320E+02 -0.11839439919E+03 -0.57742755296E+03  0.60542679019E+03  0.12508514435E+03 0.  0.
          5    1    3    3  502    0  0.12579804975E+02 -0.10134945782E+03 -0.19831371859E+03  0.22310483517E+03  0.41800000000E+01 0.  1.
         -5    1    3    3    0  502  0.46203630345E+02 -0.17044941369E+02 -0.37911383437E+03  0.38232195502E+03  0.41800000000E+01 0.  1.
        -11    1    1    2    0    0 -0.70139549605E+02  0.11582326586E+03 -0.42150577226E+03  0.44272079393E+03  0.00000000000E+00 0. -1.
         11    1    1    2    0    0  0.11356114284E+02  0.25711333352E+01 -0.42804201278E+01  0.12405404255E+02  0.00000000000E+00 0.  1.
</event>
<event>
 7    1  0.2556591E-009  0.1587224E+03  0.7561462E-02  0.1190147E+00
         -2   -1    0    0    0  501 -0.00000000000E+00  0.00000000000E+00  0.80889791618E+02  0.80889791618E+02  0.00000000000E+00 0.  1.
          2   -1    0    0  501    0  0.00000000000E+00 -0.00000000000E+00 -0.56781560649E+03  0.56781560649E+03  0.00000000000E+00 0. -1.
         25    2    1    2    0    0  0.56022179265E+02 -0.11226644329E+03 -0.45766201970E+03  0.49075825533E+03  0.12508757747E+03 0.  0.
          5    1    3    3  502    0 -0.33812059146E+02 -0.33453516422E+02 -0.67485412819E+02  0.82668896497E+02  0.41800000000E+01 0.  1.
         -5    1    3    3    0  502  0.89834238411E+02 -0.78812926872E+02 -0.39017660688E+03  0.40808935883E+03  0.41800000000E+01 0.  1.
        -11    1    1    2    0    0 -0.35875781399E+02  0.12241219597E+03 -0.94274492080E+01  0.12790892936E+03  0.00000000000E+00 0.  1.
         11    1    1    2    0    0 -0.20146397866E+02 -0.10145752672E+02 -0.19836345970E+02  0.30038213423E+02  0.00000000000E+00 0. -1.
</event>
<event>
 7    1  0.2556591E-009  0.9297637E+02  0.7561462E-02  0.1295800E+00
         -3   -1    0    0    0  501 -0.00000000000E+00  0.00000000000E+00  0.12204152315E+03  0.12204152315E+03  0.00000000000E+00 0.  1.
          3   -1    0    0  501    0  0.00000000000E+00 -0.00000000000E+00 -0.17575948535E+03  0.17575948535E+03  0.00000000000E+00 0. -1.
         25    2    1    2    0    0  0.21041968993E+02  0.48242797680E+02  0.56842330534E+02  0.14713324799E+03  0.12508800956E+03 0.  0.
          5    1    3    3  502    0  0.10838862374E+02  0.66256721116E+02 -0.17781681233E+02  0.69577975093E+02  0.41800000000E+01 0. -1.
         -5    1    3    3    0  502  0.10203106619E+02 -0.18013923435E+02  0.74624011767E+02  0.77555272899E+02  0.41800000000E+01 0. -1.
        -11    1    1    2    0    0 -0.36704344712E+02  0.93530825992E+01 -0.21792494218E+02  0.43698991740E+02  0.00000000000E+00 0.  1.
         11    1    1    2    0    0  0.15662375719E+02 -0.57595880280E+02 -0.88767798516E+02  0.10696876877E+03  0.00000000000E+00 0. -1.
</event>
<event>
 7    1  0.2556591E-009  0.9153145E+02  0.7561462E-02  0.1299185E+00
         -1   -1    0    0    0  501 -0.00000000000E+00  0.00000000000E+00  0.54388319733E+02  0.54388319733E+02  0.00000000000E+00 0.  1.
          1   -1    0    0  501    0  0.00000000000E+00 -0.00000000000E+00 -0.28759447674E+03  0.28759447674E+03  0.00000000000E+00 0. -1.
         25    2    1    2    0    0 -0.59247275962E+02 -0.15382869114E+02 -0.11877533826E+03  0.18303550684E+03  0.12509014115E+03 0.  0.
          5    1    3    3  502    0  0.22409746025E+02  0.26932862434E+01  0.13390512978E+02  0.26574964638E+02  0.41800000000E+01 0. -1.
         -5    1    3    3    0  502 -0.81657021987E+02 -0.18076155357E+02 -0.13216585124E+03  0.15646054220E+03  0.41800000000E+01 0. -1.
        -11    1    1    2    0    0  0.46680527538E+02 -0.10276626910E+02 -0.12059168621E+03  0.12971906373E+03  0.00000000000E+00 0. -1.
         11    1    1    2    0    0  0.12566748424E+02  0.25659496023E+02  0.61608674561E+01  0.29228225912E+02  0.00000000000E+00 0.  1.
</event>
<event>
 7    1  0.2556591E-009  0.1674283E+03  0.7561462E-02  0.1180557E+00
         -2   -1    0    0    0  501 -0.00000000000E+00  0.00000000000E+00  0.47943486378E+03  0.47943486378E+03  0.00000000000E+00 0.  1.
          2   -1    0    0  501    0  0.00000000000E+00 -0.00000000000E+00 -0.66662862693E+02  0.66662862693E+02  0.00000000000E+00 0. -1.
         25    2    1    2    0    0  0.11517270368E+03  0.56748842657E+02  0.12589457838E+03  0.21904633998E+03  0.12508665547E+03 0.  0.
          5    1    3    3  502    0 -0.21728802253E+02 -0.11495776096E+02  0.27476350267E+02  0.37104122943E+02  0.41800000000E+01 0. -1.
         -5    1    3    3    0  502  0.13690150594E+03  0.68244618753E+02  0.98418228111E+02  0.18194221704E+03  0.41800000000E+01 0. -1.
        -11    1    1    2    0    0 -0.11123966932E+03 -0.11899578958E+02  0.19793282960E+03  0.22736153818E+03  0.00000000000E+00 0. -1.
         11    1    1    2    0    0 -0.39330343653E+01 -0.44849263698E+02  0.88944593107E+02  0.99689848312E+02  0.00000000000E+00 0.  1.
</event>
<event>
 7    1  0.2556591E-009  0.1007490E+03  0.7561462E-02  0.1278729E+00
          1   -1    0    0  501    0  0.00000000000E+00  0.00000000000E+00  0.31728523792E+03  0.31728523792E+03  0.00000000000E+00 0. -1.
         -1   -1    0    0    0  501 -0.00000000000E+00 -0.00000000000E+00 -0.39734260975E+02  0.39734260975E+02  0.00000000000E+00 0.  1.
         25    2    1    2    0    0 -0.21809100314E+02 -0.31374084130E+01  0.12736215014E+03  0.17987087176E+03  0.12508770136E+03 0.  0.
          5    1    3    3  502    0  0.52403705370E+02  0.61053515430E+00  0.54082855445E+02  0.75425120104E+02  0.41800000000E+01 0. -1.
         -5    1    3    3    0  502 -0.74212805684E+02 -0.37479435673E+01  0.73279294696E+02  0.10444575166E+03  0.41800000000E+01 0. -1.
        -11    1    1    2    0    0 -0.26305515010E+02  0.17794542571E+01  0.11378260274E+03  0.11679737695E+03  0.00000000000E+00 0. -1.
         11    1    1    2    0    0  0.48114615324E+02  0.13579541559E+01  0.36406224063E+02  0.60351250175E+02  0.00000000000E+00 0.  1.
</event>
<event>
 7    1  0.2556591E-009  0.1511755E+03  0.7561462E-02  0.1199036E+00
         -1   -1    0    0    0  501 -0.00000000000E+00  0.00000000000E+00  0.65850456243E+03  0.65850456243E+03  0.00000000000E+00 0.  1.
          1   -1    0    0  501    0  0.00000000000E+00 -0.00000000000E+00 -0.38728471733E+02  0.38728471733E+02  0.00000000000E+00 0. -1.
         25    2    1    2    0    0  0.67135561791E+02  0.82831338628E+02  0.23207890995E+03  0.28438914432E+03  0.12509336774E+03 0.  0.
          5    1    3    3  502    0  0.10229215187E+03  0.49384465019E+02  0.14104800498E+03  0.18114779002E+03  0.41800000000E+01 0. -1.
         -5    1    3    3    0  502 -0.35156590079E+02  0.33446873609E+02  0.91030904965E+02  0.10324135431E+03  0.41800000000E+01 0. -1.
        -11    1    1    2    0    0  0.20962823409E+02 -0.32042063460E+02  0.78243215771E+02  0.87109899611E+02  0.00000000000E+00 0. -1.
         11    1    1    2    0    0 -0.88098385200E+02 -0.50789275168E+02  0.30945396498E+03  0.32573399023E+03  0.00000000000E+00 0.  1.
</event>
<event>
 7    1  0.2556591E-009  0.1254493E+03  0.7561462E-02  0.1234369E+00
         -2   -1    0    0    0  501 -0.00000000000E+00  0.00000000000E+00  0.99898141171E+02  0.99898141171E+02  0.00000000000E+00 0.  1.
          2   -1    0    0  501    0  0.00000000000E+00 -0.00000000000E+00 -0.29068663127E+03  0.29068663127E+03  0.00000000000E+00 0. -1.
         25    2    1    2    0    0 -0.48273845207E+02  0.10816315468E+03 -0.16471608745E+03  0.23835049651E+03  0.12509971047E+03 0.  0.
          5    1    3    3  502    0 -0.93079477306E+01  0.66237817924E+02 -0.33721782721E+01  0.67103877686E+02  0.41800000000E+01 0. -1.
         -5    1    3    3    0  502 -0.38965897477E+02  0.41925336753E+02 -0.16134390918E+03  0.17124661882E+03  0.41800000000E+01 0. -1.
        -11    1    1    2    0    0  0.53062559722E+02 -0.69043124396E+02 -0.55312111854E+02  0.10316015698E+03  0.00000000000E+00 0. -1.
         11    1    1    2    0    0 -0.47887145141E+01 -0.39120030281E+02  0.29239709211E+02  0.49074118949E+02  0.00000000000E+00 0.  1.
</event>
<event>
 7    1  0.2556591E-009  0.1249304E+03  0.7561462E-02  0.1235178E+00
          1   -1    0    0  501    0  0.00000000000E+00  0.00000000000E+00  0.59327069623E+03  0.59327069623E+03  0.00000000000E+00 0. -1.
         -1   -1    0    0    0  501 -0.00000000000E+00 -0.00000000000E+00 -0.31802882495E+02  0.31802882495E+02  0.00000000000E+00 0.  1.
         25    2    1    2    0    0 -0.46391486547E+02 -0.41546076469E+02  0.18125594724E+03  0.22886591173E+03  0.12509052981E+03 0.  0.
          5    1    3    3  502    0  0.39000310422E+02  0.73836439413E+01  0.38755507040E+02  0.55632761363E+02  0.41800000000E+01 0.  1.
         -5    1    3    3    0  502 -0.85391796969E+02 -0.48929720410E+02  0.14250044020E+03  0.17323315037E+03  0.41800000000E+01 0.  1.
        -11    1    1    2    0    0 -0.16345370357E+01  0.59978524266E+02  0.20489052706E+03  0.21349525326E+03  0.00000000000E+00 0.  1.
         11    1    1    2    0    0  0.48026023583E+02 -0.18432447798E+02  0.17532133943E+03  0.18271241374E+03  0.00000000000E+00 0. -1.
</event>
<event>
 7    1  0.2556591E-009  0.1349903E+03  0.7561462E-02  0.1220233E+00
          2   -1    0    0  501    0  0.00000000000E+00  0.00000000000E+00  0.56696561461E+03  0.56696561461E+03  0.00000000000E+00 0. -1.
         -2   -1    0    0    0  501 -0.00000000000E+00 -0.00000000000E+00 -0.54821134986E+02  0.54821134986E+02  0.00000000000E+00 0.  1.
         25    2    1    2    0    0  0.18011828699E+01 -0.86050108853E+02  0.46324241916E+03  0.48749324715E+03  0.12509301185E+03 0.  0.
          5    1    3    3  502    0 -0.55456599354E+02 -0.74305698698E+02  0.26579608838E+03  0.28153473013E+03  0.41800000000E+01 0. -1.
         -5    1    3    3    0  502  0.57257782223E+02 -0.11744410155E+02  0.19744633078E+03  0.20595851702E+03  0.41800000000E+01 0. -1.
        -11    1    1    2    0    0  0.36037813718E+02  0.17035625391E+02 -0.30636234507E+01  0.39979023734E+02  0.00000000000E+00 0.  1.
         11    1    1    2    0    0 -0.37838996588E+02  0.69014483461E+02  0.51965683917E+02  0.94314478714E+02  0.00000000000E+00 0. -1.
</event>
<event>
 7    1  0.2556591E-009  0.1262574E+03  0.7561462E-02  0.1233117E+00
         -3   -1    0    0    0  501 -0.00000000000E+00  0.00000000000E+00  0.48984181455E+03  0.48984181455E+03  0.00000000000E+00 0.  1.
          3   -1    0    0  501    0  0.00000000000E+00 -0.00000000000E+00 -0.37477434276E+02  0.37477434276E+02  0.00000000000E+00 0. -1.
         25    2    1    2    0    0  0.14661517515E+02 -0.77744173800E+02  0.21633004525E+03  0.26211944440E+03  0.12509515578E+03 0.  0.
          5    1    3    3  502    0  0.36516420038E+02 -0.98959113304E+02  0.20259255521E+03  0.22844599113E+03  0.41800000000E+01 0. -1.
         -5    1    3    3    0  502 -0.21854902524E+02  0.21214939504E+02  0.13737490039E+02  0.33673453269E+02  0.41800000000E+01 0. -1.
        -11    1    1    2    0    0 -0.36005127422E+02  0.86069381034E+02  0.15427801406E+03  0.18029424055E+03  0.00000000000E+00 0.  1.
         11    1    1    2    0    0  0.21343609908E+02 -0.83252072346E+01  0.81756320963E+02  0.84905563874E+02  0.00000000000E+00 0. -1.
</event>
<event>
 7    1  0.2556591E-009  0.1357496E+03  0.7561462E-02  0.1219165E+00
         -2   -1    0    0    0  501 -0.00000000000E+00  0.00000000000E+00  0.20378152831E+03  0.20378152831E+03  0.00000000000E+00 0.  1.
          2   -1    0    0  501    0  0.00000000000E+00 -0.00000000000E+00 -0.13222180279E+03  0.13222180279E+03  0.00000000000E+00 0. -1.
         25    2    1    2    0    0  0.10527478064E+03  0.58415322567E+02  0.13929694577E+02  0.17417383513E+03  0.12508940445E+03 0.  0.
          5    1    3    3  502    0 -0.34985426934E+01  0.23401744091E+02  0.48996716092E+02  0.54571347934E+02  0.41800000000E+01 0. -1.
         -5    1    3    3    0  502  0.10877332333E+03  0.35013578475E+02 -0.35067021515E+02  0.11960248720E+03  0.41800000000E+01 0. -1.
        -11    1    1    2    0    0 -0.10416058219E+03 -0.35295495833E+02  0.11957272932E+02  0.11062628659E+03  0.00000000000E+00 0. -1.
         11    1    1    2    0    0 -0.11141984437E+01 -0.23119826733E+02  0.45672758010E+02  0.51203209378E+02  0.00000000000E+00 0.  1.
</event>
<event>
 7    1  0.2556591E-009  0.1959745E+03  0.7561462E-02  0.1153180E+00
         -3   -1    0    0    0  501 -0.00000000000E+00  0.00000000000E+00  0.78648601485E+03  0.78648601485E+03  0.00000000000E+00 0.  1.
          3   -1    0    0  501    0  0.00000000000E+00 -0.00000000000E+00 -0.57138816561E+02  0.57138816561E+02  0.00000000000E+00 0. -1.
         25    2    1    2    0    0  0.97455065267E+02 -0.15741541303E+03  0.38596757498E+03  0.44597706349E+03  0.12508984859E+03 0.  0.
          5    1    3    3  502    0 -0.10533569313E+02 -0.12939082963E+02 -0.27593064444E+01  0.17420164248E+02  0.41800000000E+01 0. -1.
         -5    1    3    3    0  502  0.10798863458E+03 -0.14447633006E+03  0.38872688142E+03  0.42855689924E+03  0.41800000000E+01 0. -1.
        -11    1    1    2    0    0 -0.10043220377E+03  0.11866270302E+03  0.22847865183E+03  0.27635115159E+03  0.00000000000E+00 0. -1.
         11    1    1    2    0    0  0.29771385045E+01  0.38752710001E+02  0.11490097148E+03  0.12129661633E+03  0.00000000000E+00 0.  1.
</event>
<event>
 7    1  0.2556591E-009  0.1054539E+03  0.7561462E-02  0.1269228E+00
          1   -1    0    0  501    0  0.00000000000E+00  0.00000000000E+00  0.56647826901E+03  0.56647826901E+03  0.00000000000E+00 0. -1.
         -1   -1    0    0    0  501 -0.00000000000E+00 -0.00000000000E+00 -0.26694843445E+02  0.26694843445E+02  0.00000000000E+00 0.  1.
         25    2    1    2    0    0 -0.13388296803E+02  0.56425776089E+02  0.32842422231E+03  0.35619784439E+03  0.12510523510E+03 0.  0.
          5    1    3    3  502    0  0.30345095241E+02  0.78437859944E+02  0.16072813526E+03  0.18145062287E+03  0.41800000000E+01 0.  1.
         -5    1    3    3    0  502 -0.43733392044E+02 -0.22012083855E+02  0.16769608706E+03  0.17474722152E+03  0.41800000000E+01 0.  1.
        -11    1    1    2    0    0  0.67710352654E+01  0.93001782163E+01 -0.36325820965E+01  0.12063825517E+02  0.00000000000E+00 0.  1.
         11    1    1    2    0    0  0.66172615373E+01 -0.65725954306E+02  0.21499178535E+03  0.22491144254E+03  0.00000000000E+00 0. -1.
</event>
<event>
 7    1  0.2556591E-009  0.1044870E+03  0.7561462E-02  0.1271134E+00
         -3   -1    0    0    0  501 -0.00000000000E+00  0.00000000000E+00  0.34860243938E+02  0.34860243938E+02  0.00000000000E+00 0.  1.
          3   -1    0    0  501    0  0.00000000000E+00 -0.00000000000E+00 -0.53155941352E+03  0.53155941352E+03  0.00000000000E+00 0. -1.
         25    2    1    2    0    0  0.62103052363E+02  0.29367575425E+02 -0.36489830845E+03  0.39181301243E+03  0.12508963825E+03 0.  0.
          5    1    3    3  502    0  0.30317872518E+02 -0.30105862837E+02 -0.28019148039E+03  0.28346123978E+03  0.41800000000E+01 0. -1.
         -5    1    3    3    0  502  0.31785179846E+02  0.59473438263E+02 -0.84706828059E+02  0.10835177265E+03  0.41800000000E+01 0. -1.
        -11    1    1    2    0    0 -0.76105191693E+02 -0.34509081868E+02 -0.64195324173E+02  0.10537512315E+03  0.00000000000E+00 0.  1.
         11    1    1    2    0    0  0.14002139329E+02  0.51415064420E+01 -0.67605536961E+02  0.69231521881E+02  0.00000000000E+00 0. -1.
</event>
<event>
 7    1  0.2556591E-009  0.1369842E+03  0.7561462E-02  0.1217446E+00
         -4   -1    0    0    0  501 -0.00000000000E+00  0.00000000000E+00  0.48487041273E+02  0.48487041273E+02  0.00000000000E+00 0.  1.
          4   -1    0    0  501    0  0.00000000000E+00 -0.00000000000E+00 -0.52103960190E+03  0.52103960190E+03  0.00000000000E+00 0. -1.
         25    2    1    2    0    0  0.46887552897E+02  0.89881268555E+02 -0.15233062713E+03  0.22166177842E+03  0.12510890854E+03 0.  0.
          5    1    3    3  502    0 -0.30814093904E+02 -0.41827824409E+01 -0.75300474810E+01  0.32267290979E+02  0.41800000000E+01 0.  1.
         -5    1    3    3    0  502  0.77701646801E+02  0.94064050996E+02 -0.14480057965E+03  0.18939448744E+03  0.41800000000E+01 0.  1.
        -11    1    1    2    0    0 -0.37023993714E+02 -0.77931688606E+01 -0.37378689888E+02  0.53185299183E+02  0.00000000000E+00 0.  1.
         11    1    1    2    0    0 -0.98635591830E+01 -0.82088099695E+02 -0.28284324361E+03  0.29467956558E+03  0.00000000000E+00 0. -1.
</event>
<event>
 7    1  0.2556591E-009  0.1082859E+03  0.7561462E-02  0.1263778E+00
         -2   -1    0    0    0  501 -0.00000000000E+00  0.00000000000E+00  0.29364384110E+02  0.29364384110E+02  0.00000000000E+00 0.  1.
          2   -1    0    0  501    0  0.00000000000E+00 -0.00000000000E+00 -0.42429545103E+03  0.42429545103E+03  0.00000000000E+00 0. -1.
         25    2    1    2    0    0 -0.18030021597E+02 -0.28756026317E+02 -0.25815962769E+03  0.28886900225E+03  0.12508763474E+03 0.  0.
          5    1    3    3  502    0 -0.62413579682E+02 -0.45800007896E+02 -0.12162678029E+03  0.14423467591E+03  0.41800000000E+01 0.  1.
         -5    1    3    3    0  502  0.44383558084E+02  0.17043981579E+02 -0.13653284740E+03  0.14463432634E+03  0.41800000000E+01 0.  1.
        -11    1    1    2    0    0 -0.32468599763E+02  0.24430639570E+02 -0.70337862739E+02  0.81231035049E+02  0.00000000000E+00 0. -1.
         11    1    1    2    0    0  0.50498621361E+02  0.43253867476E+01 -0.66433576497E+02  0.83559797845E+02  0.00000000000E+00 0.  1.
</event>
<event>
 7    1  0.2556591E-009  0.1718719E+03  0.7561462E-02  0.1175910E+00
         -2   -1    0    0    0  501 -0.00000000000E+00  0.00000000000E+00  0.11441637080E+03  0.11441637080E+03  0.00000000000E+00 0.  1.
          2   -1    0    0  501    0  0.00000000000E+00 -0.00000000000E+00 -0.34572980279E+03  0.34572980279E+03  0.00000000000E+00 0. -1.
         25    2    1    2    0    0 -0.14597652411E+03 -0.78903475709E+02 -0.99925891360E+02  0.23057743189E+03  0.12508342921E+03 0.  0.
          5    1    3    3  502    0 -0.17894344304E+01  0.69819083565E+01  0.21716428869E+02  0.23259939869E+02  0.41800000000E+01 0.  1.
         -5    1    3    3    0  502 -0.14418708968E+03 -0.85885384066E+02 -0.12164232023E+03  0.20731749202E+03  0.41800000000E+01 0.  1.
        -11    1    1    2    0    0  0.48984585975E+02  0.39157936716E+02 -0.10364348161E+03  0.12113960935E+03  0.00000000000E+00 0. -1.
         11    1    1    2    0    0  0.96991938136E+02  0.39745538993E+02 -0.27744059008E+02  0.10842913236E+03  0.00000000000E+00 0.  1.
</event>
<event>
 7    1  0.2556591E-009  0.1373988E+03  0.7561462E-02  0.1216872E+00
          2   -1    0    0  501    0  0.00000000000E+00  0.00000000000E+00  0.88799736425E+03  0.88799736425E+03  0.00000000000E+00 0. -1.
         -2   -1    0    0    0  501 -0.00000000000E+00 -0.00000000000E+00 -0.32551119311E+02  0.32551119311E+02  0.00000000000E+00 0.  1.
         25    2    1    2    0    0  0.90262134081E+02  0.76923580274E+02  0.60408029398E+03  0.62819210085E+03  0.12509126246E+03 0.  0.
          5    1    3    3  502    0  0.91775004231E+02  0.61725038347E+02  0.24588627572E+03  0.26964822407E+03  0.41800000000E+01 0. -1.
         -5    1    3    3    0  502 -0.15128701504E+01  0.15198541928E+02  0.35819401827E+03  0.35854387678E+03  0.41800000000E+01 0. -1.
        -11    1    1    2    0    0 -0.81876275521E+02 -0.96756104302E+02  0.20163711324E+03  0.23816589522E+03  0.00000000000E+00 0.  1.
         11    1    1    2    0    0 -0.83858585594E+01  0.19832524027E+02  0.49728837721E+02  0.54190487488E+02  0.00000000000E+00 0. -1.
</event>
<event>
 7    1  0.2556591E-009  0.2832846E+03  0.7561462E-02  0.1093908E+00
         -2   -1    0    0    0  501 -0.00000000000E+00  0.00000000000E+00  0.25257864098E+03  0.25257864098E+03  0.00000000000E+00 0.  1.
          2   -1    0    0  501    0  0.00000000000E+00 -0.00000000000E+00 -0.36050410081E+03  0.36050410081E+03  0.00000000000E+00 0. -1.
         25    2    1    2    0    0  0.26109225340E+03  0.19381048277E+02 -0.15959602565E+03  0.33115372512E+03  0.12508840250E+03 0.  0.
          5    1    3    3  502    0  0.13831640120E+03  0.72605566088E+02 -0.87060096877E+02  0.17888523678E+03  0.41800000000E+01 0.  1.
         -5    1    3    3    0  502  0.12277585220E+03 -0.53224517811E+02 -0.72535928772E+02  0.15226848834E+03  0.41800000000E+01 0.  1.
        -11    1    1    2    0    0 -0.54385737188E+02  0.32424434113E+02  0.20549726549E+02  0.66569088909E+02  0.00000000000E+00 0. -1.
         11    1    1    2    0    0 -0.20670651621E+03 -0.51805482389E+02  0.31120839266E+02  0.21535992777E+03  0.00000000000E+00 0.  1.
</event>
<event>
 7    1  0.2556591E-009  0.1303314E+03  0.7561462E-02  0.1226965E+00
         -2   -1    0    0    0  501 -0.00000000000E+00  0.00000000000E+00  0.14621819508E+02  0.14621819508E+02  0.00000000000E+00 0. -1.
          2   -1    0    0  501    0  0.00000000000E+00 -0.00000000000E+00 -0.13156247496E+04  0.13156247496E+04  0.00000000000E+00 0.  1.
         25    2    1    2    0    0  0.64409207002E+02 -0.61568942410E+02 -0.67159353691E+03  0.68893000636E+03  0.12508954488E+03 0.  0.
          5    1    3    3  502    0  0.22718627309E+02  0.31493646396E+02 -0.85259403201E+02  0.93779656773E+02  0.41800000000E+01 0.  1.
         -5    1    3    3    0  502  0.41690579693E+02 -0.93062588807E+02 -0.58633413371E+03  0.59515034959E+03  0.41800000000E+01 0.  1.
        -11    1    1    2    0    0 -0.80746758676E+02  0.63992366608E+02 -0.58350873639E+03  0.59253481540E+03  0.00000000000E+00 0.  1.
         11    1    1    2    0    0  0.16337551674E+02 -0.24234241976E+01 -0.45900656805E+02  0.48781747352E+02  0.00000000000E+00 0. -1.
</event>
<event>
 7    1  0.2556591E-009  0.1507564E+03  0.7561462E-02  0.1199547E+00
         -1   -1    0    0    0  501 -0.00000000000E+00  0.00000000000E+00  0.19312812535E+02  0.19312812535E+02  0.00000000000E+00 0.  1.
          1   -1    0    0  501    0  0.00000000000E+00 -0.00000000000E+00 -0.25078696777E+04  0.25078696777E+04  0.00000000000E+00 0. -1.
         25    2    1    2    0    0  0.10256659373E+03 -0.48805469834E+02 -0.21757794526E+04  0.21823304753E+04  0.12509275381E+03 0.  0.
          5    1    3    3  502    0  0.55321769466E+02 -0.86650043769E+02 -0.16159807609E+04  0.16192529204E+04  0.41800000000E+01 0.  1.
         -5    1    3    3    0  502  0.47244824269E+02  0.37844573935E+02 -0.55979869171E+03  0.56307755490E+03  0.41800000000E+01 0.  1.
        -11    1    1    2    0    0 -0.63054327819E+02  0.69084701278E+02 -0.15586853017E+03  0.18177882964E+03  0.00000000000E+00 0.  1.
         11    1    1    2    0    0 -0.39512265915E+02 -0.20279231444E+02 -0.15690888233E+03  0.16307318523E+03  0.00000000000E+00 0. -1.
</event>
<event>
 7    1  0.2556591E-009  0.1208785E+03  0.7561462E-02  0.1241655E+00
          2   -1    0    0  501    0  0.00000000000E+00  0.00000000000E+00  0.26881074553E+03  0.26881074553E+03  0.00000000000E+00 0. -1.
         -2   -1    0    0    0  501 -0.00000000000E+00 -0.00000000000E+00 -0.80694362555E+02  0.80694362555E+02  0.00000000000E+00 0.  1.
         25    2    1    2    0    0  0.11396280590E+02  0.56948397439E+02  0.55646040294E+01  0.13802647343E+03  0.12508935753E+03 0.  0.
          5    1    3    3  502    0 -0.53663576498E+02  0.99550182569E+01  0.15893933196E+02  0.56999748627E+02  0.41800000000E+01 0. -1.
         -5    1    3    3    0  502  0.65059857088E+02  0.46993379182E+02 -0.10329329167E+02  0.81026724803E+02  0.41800000000E+01 0. -1.
        -11    1    1    2    0    0 -0.12414754200E+02  0.23298115983E+02  0.41150160674E+02  0.48890326791E+02  0.00000000000E+00 0.  1.
         11    1    1    2    0    0  0.10184736100E+01 -0.80246513422E+02  0.14140161828E+03  0.16258830787E+03  0.00000000000E+00 0. -1.
</event>
<event>
 7    1  0.2556591E-009  0.1642047E+03  0.7561462E-02  0.1184030E+00
         -1   -1    0    0    0  501 -0.00000000000E+00  0.00000000000E+00  0.26777389416E+02  0.26777389416E+02  0.00000000000E+00 0.  1.
          1   -1    0    0  501    0  0.00000000000E+00 -0.00000000000E+00 -0.21113072276E+04  0.21113072276E+04  0.00000000000E+00 0. -1.
         25    2    1    2    0    0 -0.81162667871E+02 -0.10665218443E+03 -0.18115716918E+04  0.18208239432E+04  0.12508305381E+03 0.  0.
          5    1    3    3  502    0 -0.87460407737E+02 -0.31863629431E+02 -0.13461632331E+04  0.13493841322E+04  0.41800000000E+01 0.  1.
         -5    1    3    3    0  502  0.62977398663E+01 -0.74788555003E+02 -0.46540845875E+03  0.47143981097E+03  0.41800000000E+01 0.  1.
        -11    1    1    2    0    0  0.56942766339E+02  0.68384388093E+01 -0.12022778074E+03  0.13320646435E+03  0.00000000000E+00 0.  1.
         11    1    1    2    0    0  0.24219901532E+02  0.99813745625E+02 -0.15273036564E+03  0.18405420950E+03  0.00000000000E+00 0. -1.
</event>
<event>
 7    1  0.4985860E-009  0.1175924E+03  0.7561462E-02  0.1247123E+00
          1   -1    0    0  501    0  0.00000000000E+00  0.00000000000E+00  0.16913481401E+04  0.16913481401E+04  0.00000000000E+00 0. -1.
         -1   -1    0    0    0  501 -0.00000000000E+00 -0.00000000000E+00 -0.11130625591E+02  0.11130625591E+02  0.00000000000E+00 0.  1.
         25    2    1    2    0    0 -0.48797973177E+02  0.17493058303E+02  0.13313394899E+04  0.13382076309E+04  0.12509027438E+03 0.  0.
          5    1    3    3  502    0 -0.52131517476E+02 -0.44207363040E+02  0.87651927774E+03  0.87919025399E+03  0.41800000000E+01 0.  1.
         -5    1    3    3    0  502  0.33335442989E+01  0.61700421343E+02  0.45482021218E+03  0.45901737693E+03  0.41800000000E+01 0.  1.
        -11    1    1    2    0    0  0.79083178702E+01  0.36329531782E+02  0.12433397071E+03  0.12977408309E+03  0.00000000000E+00 0. -1.
         11    1    1    2    0    0  0.40889655307E+02 -0.53822590085E+02  0.22454405390E+03  0.23449705170E+03  0.00000000000E+00 0.  1.
</event>
<event>
 7    1  0.2556591E-009  0.1360286E+03  0.7561462E-02  0.1218775E+00
          1   -1    0    0  501    0  0.00000000000E+00  0.00000000000E+00  0.81200382675E+03  0.81200382675E+03  0.00000000000E+00 0. -1.
         -1   -1    0    0    0  501 -0.00000000000E+00 -0.00000000000E+00 -0.29034069132E+02  0.29034069132E+02  0.00000000000E+00 0.  1.
         25    2    1    2    0    0  0.85556076997E+02  0.61048853469E+02  0.35023690199E+03  0.38647060825E+03  0.12508732431E+03 0.  0.
          5    1    3    3  502    0  0.36319750831E+02 -0.21424259049E+02  0.29494798637E+02  0.51628855525E+02  0.41800000000E+01 0. -1.
         -5    1    3    3    0  502  0.49236326165E+02  0.82473112518E+02  0.32074210336E+03  0.33484175272E+03  0.41800000000E+01 0. -1.
        -11    1    1    2    0    0  0.13021135151E+02 -0.25710297943E+02  0.15689973930E+03  0.15952459864E+03  0.00000000000E+00 0. -1.
         11    1    1    2    0    0 -0.98577212148E+02 -0.35338555526E+02  0.27583311633E+03  0.29504268899E+03  0.00000000000E+00 0.  1.
</event>
<event>
 7    1  0.2556591E-009  0.1350184E+03  0.7561462E-02  0.1220194E+00
          3   -1    0    0  501    0  0.00000000000E+00  0.00000000000E+00  0.61166647332E+02  0.61166647332E+02  0.00000000000E+00 0. -1.
         -3   -1    0    0    0  501 -0.00000000000E+00 -0.00000000000E+00 -0.38586248875E+03  0.38586248875E+03  0.00000000000E+00 0.  1.
         25    2    1    2    0    0 -0.39969760962E+02  0.86712169823E+02 -0.24674882364E+03  0.29265754948E+03  0.12508747783E+03 0.  0.
          5    1    3    3  502    0  0.37848454026E+02  0.24721363626E+01 -0.95188654097E+02  0.10255227545E+03  0.41800000000E+01 0. -1.
         -5    1    3    3    0  502 -0.77818214988E+02  0.84240033460E+02 -0.15156016955E+03  0.19010527403E+03  0.41800000000E+01 0. -1.
        -11    1    1    2    0    0 -0.13806428345E+02 -0.50337462520E+02 -0.72342455852E+02  0.89207110228E+02  0.00000000000E+00 0.  1.
         11    1    1    2    0    0  0.53776189307E+02 -0.36374707302E+02 -0.56045619282E+01  0.65164476382E+02  0.00000000000E+00 0. -1.
</event>
<event>
 7    1  0.2556591E-009  0.1579055E+03  0.7561462E-02  0.1191082E+00
          1   -1    0    0  501    0  0.00000000000E+00  0.00000000000E+00  0.81638787413E+03  0.81638787413E+03  0.00000000000E+00 0. -1.
         -1   -1    0    0    0  501 -0.00000000000E+00 -0.00000000000E+00 -0.51732975422E+02  0.51732975422E+02  0.00000000000E+00 0.  1.
         25    2    1    2    0    0  0.13659040254E+03 -0.19476349279E+02  0.17537272450E+03  0.25581153271E+03  0.12509069318E+03 0.  0.
          5    1    3    3  502    0  0.11788814054E+03  0.70037496951E+01  0.53653885076E+02  0.12978011394E+03  0.41800000000E+01 0. -1.
         -5    1    3    3    0  502  0.18702261999E+02 -0.26480098974E+02  0.12171883943E+03  0.12603141877E+03  0.41800000000E+01 0.  1.
        -11    1    1    2    0    0 -0.10243075834E+03 -0.28257043739E+02  0.41598355770E+03  0.42934000635E+03  0.00000000000E+00 0. -1.
         11    1    1    2    0    0 -0.34159644201E+02  0.47733393017E+02  0.17329861650E+03  0.18296931050E+03  0.00000000000E+00 0.  1.
</event>
<event>
 7    1  0.2556591E-009  0.1227189E+03  0.7561462E-02  0.1238678E+00
          2   -1    0    0  501    0  0.00000000000E+00  0.00000000000E+00  0.11854288278E+03  0.11854288278E+03  0.00000000000E+00 0. -1.
         -2   -1    0    0    0  501 -0.00000000000E+00 -0.00000000000E+00 -0.25969585220E+03  0.25969585220E+03  0.00000000000E+00 0.  1.
         25    2    1    2    0    0  0.55393620407E+02  0.92456929834E+02  0.15535687562E+02  0.16585098103E+03  0.12509377787E+03 0.  0.
          5    1    3    3  502    0 -0.19583383354E+02  0.24394286757E+01  0.41176690069E+02  0.45852501796E+02  0.41800000000E+01 0. -1.
         -5    1    3    3    0  502  0.74977003761E+02  0.90017501159E+02 -0.25641002508E+02  0.11999847923E+03  0.41800000000E+01 0. -1.
        -11    1    1    2    0    0 -0.16622741707E+02 -0.21462179717E+02 -0.12093961830E+03  0.12394890873E+03  0.00000000000E+00 0.  1.
         11    1    1    2    0    0 -0.38770878701E+02 -0.70994750117E+02 -0.35749038678E+02  0.88438845231E+02  0.00000000000E+00 0. -1.
</event>
<event>
 7    1  0.2556591E-009  0.8876120E+02  0.7561462E-02  0.1305880E+00
          2   -1    0    0  501    0  0.00000000000E+00  0.00000000000E+00  0.65612907234E+03  0.65612907234E+03  0.00000000000E+00 0. -1.
         -2   -1    0    0    0  501 -0.00000000000E+00 -0.00000000000E+00 -0.29845580068E+02  0.29845580068E+02  0.00000000000E+00 0.  1.
         25    2    1    2    0    0  0.24660503388E+02  0.26472911238E+02  0.53957050499E+03  0.55506052521E+03  0.12508757466E+03 0.  0.
          5    1    3    3  502    0  0.14274414548E+00  0.51875663051E+02  0.49646705521E+03  0.49918745387E+03  0.41800000000E+01 0.  1.
         -5    1    3    3    0  502  0.24517759243E+02 -0.25402751813E+02  0.43103449784E+02  0.55873071343E+02  0.41800000000E+01 0.  1.
        -11    1    1    2    0    0 -0.42335694254E+02 -0.46721524554E+02  0.33732760999E+02  0.71506020930E+02  0.00000000000E+00 0.  1.
         11    1    1    2    0    0  0.17675190866E+02  0.20248613316E+02  0.52980226276E+02  0.59408106262E+02  0.00000000000E+00 0. -1.
</event>
<event>
 7    1  0.2556591E-009  0.9923504E+02  0.7561462E-02  0.1281913E+00
         -2   -1    0    0    0  501 -0.00000000000E+00  0.00000000000E+00  0.14991964220E+02  0.14991964220E+02  0.00000000000E+00 0. -1.
          2   -1    0    0  501    0  0.00000000000E+00 -0.00000000000E+00 -0.14152600292E+04  0.14152600292E+04  0.00000000000E+00 0.  1.
         25    2    1    2    0    0  0.73789279425E+02  0.91835565262E+01 -0.10883915566E+04  0.10980771434E+04  0.12509211370E+03 0.  0.
          5    1    3    3  502    0  0.39656721931E+02 -0.42349114693E+02 -0.84233855030E+03  0.84434460312E+03  0.41800000000E+01 0.  1.
         -5    1    3    3    0  502  0.34132557495E+02  0.51532671219E+02 -0.24605300632E+03  0.25373254030E+03  0.41800000000E+01 0.  1.
        -11    1    1    2    0    0 -0.49722922791E+02  0.57056600365E+01 -0.29501994476E+03  0.29923517743E+03  0.00000000000E+00 0.  1.
         11    1    1    2    0    0 -0.24066356635E+02 -0.14889216563E+02 -0.16856563572E+02  0.32939672539E+02  0.00000000000E+00 0. -1.
</event>
<event>
 7    1  0.2556591E-009  0.1469449E+03  0.7561462E-02  0.1204278E+00
          2   -1    0    0  501    0  0.00000000000E+00  0.00000000000E+00  0.10054826350E+03  0.10054826350E+03  0.00000000000E+00 0. -1.
         -2   -1    0    0    0  501 -0.00000000000E+00 -0.00000000000E+00 -0.30003225645E+03  0.30003225645E+03  0.00000000000E+00 0.  1.
         25    2    1    2    0    0  0.42312963551E+02 -0.10285373033E+03 -0.20566233258E+02  0.16864082112E+03  0.12508988716E+03 0.  0.
          5    1    3    3  502    0 -0.20546470407E+02 -0.74352103428E+02 -0.51548278616E+02  0.92871363501E+02  0.41800000000E+01 0.  1.
         -5    1    3    3    0  502  0.62859433957E+02 -0.28501626907E+02  0.30982045358E+02  0.75769457622E+02  0.41800000000E+01 0.  1.
        -11    1    1    2    0    0 -0.72531064967E+02  0.87322760274E+02 -0.14129046387E+03  0.18124297235E+03  0.00000000000E+00 0. -1.
         11    1    1    2    0    0  0.30218101416E+02  0.15530970061E+02 -0.37627295827E+02  0.50696726477E+02  0.00000000000E+00 0.  1.
</event>
<event>
 7    1  0.2556591E-009  0.6231853E+02  0.7561462E-02  0.1388352E+00
         -2   -1    0    0    0  501 -0.00000000000E+00  0.00000000000E+00  0.17365488273E+02  0.17365488273E+02  0.00000000000E+00 0.  1.
          2   -1    0    0  501    0  0.00000000000E+00 -0.00000000000E+00 -0.87340249009E+03  0.87340249009E+03  0.00000000000E+00 0. -1.
         25    2    1    2    0    0 -0.18352511103E+02  0.35967641807E+02 -0.61665510745E+03  0.63050674566E+03  0.12507897050E+03 0.  0.
          5    1    3    3  502    0 -0.15554131893E+02  0.20264795464E+02 -0.17777774384E+02  0.31402461945E+02  0.41800000000E+01 0. -1.
         -5    1    3    3    0  502 -0.27983792101E+01  0.15702846343E+02 -0.59887733306E+03  0.59910428372E+03  0.41800000000E+01 0. -1.
        -11    1    1    2    0    0  0.30531954121E+02  0.11975534813E+02 -0.27860439943E+02  0.43032752297E+02  0.00000000000E+00 0.  1.
         11    1    1    2    0    0 -0.12179443017E+02 -0.47943176620E+02 -0.21152145442E+03  0.21722848040E+03  0.00000000000E+00 0. -1.
</event>
<event>
 7    1  0.2556591E-009  0.1396026E+03  0.7561462E-02  0.1213865E+00
         -2   -1    0    0    0  501 -0.00000000000E+00  0.00000000000E+00  0.25917267739E+03  0.25917267739E+03  0.00000000000E+00 0.  1.
          2   -1    0    0  501    0  0.00000000000E+00 -0.00000000000E+00 -0.11793038055E+03  0.11793038055E+03  0.00000000000E+00 0. -1.
         25    2    1    2    0    0 -0.46654504912E+01 -0.98108291751E+02 -0.27375816883E+02  0.16137969954E+03  0.12508784407E+03 0.  0.
          5    1    3    3  502    0 -0.48154552806E+02 -0.91301654295E+02  0.95838231445E+01  0.10375054264E+03  0.41800000000E+01 0.  1.
         -5    1    3    3    0  502  0.43489102315E+02 -0.68066374558E+01 -0.36959640027E+02  0.57629156896E+02  0.41800000000E+01 0.  1.
        -11    1    1    2    0    0 -0.41576495819E+02  0.47692385247E+02  0.10330427313E+03  0.12114017279E+03  0.00000000000E+00 0.  1.
         11    1    1    2    0    0  0.46241946311E+02  0.50415906504E+02  0.65313840591E+02  0.94583185609E+02  0.00000000000E+00 0. -1.
</event>
<event>
 7    1  0.2556591E-009  0.1305413E+03  0.7561462E-02  0.1226655E+00
          2   -1    0    0  501    0  0.00000000000E+00  0.00000000000E+00  0.25718410320E+03  0.25718410320E+03  0.00000000000E+00 0. -1.
         -2   -1    0    0    0  501 -0.00000000000E+00 -0.00000000000E+00 -0.82196477109E+02  0.82196477109E+02  0.00000000000E+00 0.  1.
         25    2    1    2    0    0  0.95908898993E+02 -0.19658474698E+02  0.90961077221E+02  0.18304900111E+03  0.12509215285E+03 0.  0.
          5    1    3    3  502    0  0.70545072123E+02 -0.71754108654E+02  0.55573632646E+02  0.11502678103E+03  0.41800000000E+01 0. -1.
         -5    1    3    3    0  502  0.25363826870E+02  0.52095633956E+02  0.35387444575E+02  0.68022220078E+02  0.41800000000E+01 0. -1.
        -11    1    1    2    0    0 -0.44583916394E+02  0.24244298606E+02  0.91136615542E+02  0.10431392193E+03  0.00000000000E+00 0. -1.
         11    1    1    2    0    0 -0.51324982599E+02 -0.45858239078E+01 -0.71100666700E+01  0.52017657269E+02  0.00000000000E+00 0.  1.
</event>
<event>
 7    1  0.2556591E-009  0.1023095E+03  0.7561462E-02  0.1275513E+00
          1   -1    0    0  501    0  0.00000000000E+00  0.00000000000E+00  0.21428348899E+03  0.21428348899E+03  0.00000000000E+00 0. -1.
         -1   -1    0    0    0  501 -0.00000000000E+00 -0.00000000000E+00 -0.10348320589E+03  0.10348320589E+03  0.00000000000E+00 0.  1.
         25    2    1    2    0    0 -0.33794545486E+02  0.81797735840E+02  0.90684187294E+01  0.15350207436E+03  0.12509080590E+03 0.  0.
          5    1    3    3  502    0 -0.17040115286E+02  0.18948374551E+02 -0.55836509029E+02  0.61519058572E+02  0.41800000000E+01 0. -1.
         -5    1    3    3    0  502 -0.16754430200E+02  0.62849361289E+02  0.64904927758E+02  0.91983015786E+02  0.41800000000E+01 0. -1.
        -11    1    1    2    0    0  0.52180623832E+02 -0.79489407413E+02  0.46186578570E+02  0.10570990225E+03  0.00000000000E+00 0.  1.
         11    1    1    2    0    0 -0.18386078347E+02 -0.23083284270E+01  0.55545285804E+02  0.58554718274E+02  0.00000000000E+00 0. -1.
</event>
<event>
 7    1  0.2556591E-009  0.1178555E+03  0.7561462E-02  0.1246677E+00
         -2   -1    0    0    0  501 -0.00000000000E+00  0.00000000000E+00  0.37933147774E+03  0.37933147774E+03  0.00000000000E+00 0. -1.
          2   -1    0    0  501    0  0.00000000000E+00 -0.00000000000E+00 -0.47327964193E+02  0.47327964193E+02  0.00000000000E+00 0.  1.
         25    2    1    2    0    0 -0.69262177120E+02 -0.32918722704E+02  0.19542503560E+03  0.24437182222E+03  0.12508297836E+03 0.  0.
          5    1    3    3  502    0 -0.53056115839E+02  0.24178764144E+02  0.16981500955E+03  0.17959447077E+03  0.41800000000E+01 0. -1.
         -5    1    3    3    0  502 -0.16206061282E+02 -0.57097486848E+02  0.25610026044E+02  0.64777351448E+02  0.41800000000E+01 0. -1.
        -11    1    1    2    0    0  0.13289109281E+02 -0.30439805440E+02  0.21779903958E+02  0.39718338297E+02  0.00000000000E+00 0.  1.
         11    1    1    2    0    0  0.55973067840E+02  0.63358528144E+02  0.11479857399E+03  0.14256928141E+03  0.00000000000E+00 0. -1.
</event>
<event>
 7    1  0.2556591E-009  0.8322618E+02  0.7561462E-02  0.1320138E+00
          2   -1    0    0  501    0  0.00000000000E+00  0.00000000000E+00  0.45793966010E+03  0.45793966010E+03  0.00000000000E+00 0. -1.
         -2   -1    0    0    0  501 -0.00000000000E+00 -0.00000000000E+00 -0.46346146608E+02  0.46346146608E+02  0.00000000000E+00 0.  1.
         25    2    1    2    0    0 -0.72766091874E+02  0.16994277898E+02  0.33198255353E+03  0.36255155267E+03  0.12508997919E+03 0.  0.
          5    1    3    3  502    0 -0.56316254453E+02 -0.40735255769E+01  0.40009615827E+02  0.69327886776E+02  0.41800000000E+01 0.  1.
         -5    1    3    3    0  502 -0.16449837421E+02  0.21067803475E+02  0.29197293770E+03  0.29322366590E+03  0.41800000000E+01 0.  1.
        -11    1    1    2    0    0  0.30029188901E+02 -0.25273152057E+02  0.88939267339E+02  0.97214596001E+02  0.00000000000E+00 0. -1.
         11    1    1    2    0    0  0.42736902973E+02  0.82788741584E+01 -0.93283073703E+01  0.44519658034E+02  0.00000000000E+00 0.  1.
</event>
<event>
 7    1  0.2556591E-009  0.1001521E+03  0.7561462E-02  0.1279977E+00
          2   -1    0    0  501    0  0.00000000000E+00  0.00000000000E+00  0.28900879173E+03  0.28900879173E+03  0.00000000000E+00 0. -1.
         -2   -1    0    0    0  501 -0.00000000000E+00 -0.00000000000E+00 -0.43859065791E+02  0.43859065791E+02  0.00000000000E+00 0.  1.
         25    2    1    2    0    0  0.38311160272E+01  0.24147652380E+02  0.12862818060E+03  0.18109443769E+03  0.12510875250E+03 0.  0.
          5    1    3    3  502    0  0.29669059263E+02 -0.43562655989E+02  0.38695978269E+02  0.65519533031E+02  0.41800000000E+01 0. -1.
         -5    1    3    3    0  502 -0.25837943236E+02  0.67710308369E+02  0.89932202336E+02  0.11557490466E+03  0.41800000000E+01 0. -1.
        -11    1    1    2    0    0  0.15281550172E+02 -0.44421538540E+02  0.11458838127E+03  0.12384383708E+03  0.00000000000E+00 0. -1.
         11    1    1    2    0    0 -0.19112666199E+02  0.20273886160E+02  0.19331640707E+01  0.27929582750E+02  0.00000000000E+00 0.  1.
</event>
<event>
 7    1  0.2556591E-009  0.1138356E+03  0.7561462E-02  0.1253627E+00
         -3   -1    0    0    0  501 -0.00000000000E+00  0.00000000000E+00  0.25769914975E+02  0.25769914975E+02  0.00000000000E+00 0.  1.
          3   -1    0    0  501    0  0.00000000000E+00 -0.00000000000E+00 -0.61864270248E+03  0.61864270248E+03  0.00000000000E+00 0. -1.
         25    2    1    2    0    0 -0.38989365239E+02  0.34823502577E+02 -0.42856528680E+03  0.44949765225E+03  0.12508831839E+03 0.  0.
          5    1    3    3  502    0 -0.57331480974E+01 -0.45349421356E+02 -0.19392684553E+03  0.19928505419E+03  0.41800000000E+01 0.  1.
         -5    1    3    3    0  502 -0.33256217142E+02  0.80172923933E+02 -0.23463844127E+03  0.25021259807E+03  0.41800000000E+01 0.  1.
        -11    1    1    2    0    0  0.44334561103E+02  0.13430118950E+02 -0.39082465636E+02  0.60608254581E+02  0.00000000000E+00 0.  1.
         11    1    1    2    0    0 -0.53451958645E+01 -0.48253621527E+02 -0.12522503507E+03  0.13430671062E+03  0.00000000000E+00 0. -1.
</event>
<event>
 7    1  0.2556591E-009  0.1391355E+03  0.7561462E-02  0.1214497E+00
          1   -1    0    0  501    0  0.00000000000E+00  0.00000000000E+00  0.24134633630E+03  0.24134633630E+03  0.00000000000E+00 0. -1.
         -1   -1    0    0    0  501 -0.00000000000E+00 -0.00000000000E+00 -0.10549051892E+03  0.10549051892E+03  0.00000000000E+00 0.  1.
         25    2    1    2    0    0 -0.10975690079E+03  0.33707692306E+02  0.58083557069E+02  0.17945360972E+03  0.12508841932E+03 0.  0.
          5    1    3    3  502    0 -0.10091768558E+03 -0.24828045701E+02  0.59999562621E+02  0.12007593860E+03  0.41800000000E+01 0. -1.
         -5    1    3    3    0  502 -0.88392152056E+01  0.58535738007E+02 -0.19160055527E+01  0.59377671112E+02  0.41800000000E+01 0. -1.
        -11    1    1    2    0    0  0.51607282128E+02 -0.13388105692E+02  0.89978247922E+02  0.10458794406E+03  0.00000000000E+00 0. -1.
         11    1    1    2    0    0  0.58149618660E+02 -0.20319586614E+02 -0.12205987610E+02  0.62795301448E+02  0.00000000000E+00 0.  1.
</event>
<event>
 7    1  0.2556591E-009  0.1128790E+03  0.7561462E-02  0.1255329E+00
         -2   -1    0    0    0  501 -0.00000000000E+00  0.00000000000E+00  0.69902944562E+02  0.69902944562E+02  0.00000000000E+00 0.  1.
          2   -1    0    0  501    0  0.00000000000E+00 -0.00000000000E+00 -0.40357707436E+03  0.40357707436E+03  0.00000000000E+00 0. -1.
         25    2    1    2    0    0  0.31026864887E+02 -0.76545966384E+02 -0.40430526003E+02  0.15525783292E+03  0.12509362868E+03 0.  0.
          5    1    3    3  502    0 -0.29237373445E+02  0.13846407512E+02 -0.32818462549E+02  0.46271707241E+02  0.41800000000E+01 0.  1.
         -5    1    3    3    0  502  0.60264238332E+02 -0.90392373896E+02 -0.76120634546E+01  0.10898612568E+03  0.41800000000E+01 0.  1.
        -11    1    1    2    0    0 -0.17411958008E+02  0.21256119507E+02 -0.98885607280E+01  0.29202440505E+02  0.00000000000E+00 0.  1.
         11    1    1    2    0    0 -0.13614906879E+02  0.55289846876E+02 -0.28335504306E+03  0.28901974550E+03  0.00000000000E+00 0. -1.
</event>
<event>
 7    1  0.2740057E-009  0.1026924E+03  0.7561462E-02  0.1274734E+00
          4   -1    0    0  501    0  0.00000000000E+00  0.00000000000E+00  0.14342292553E+04  0.14342292553E+04  0.00000000000E+00 0. -1.
         -4   -1    0    0    0  501 -0.00000000000E+00 -0.00000000000E+00 -0.20366490392E+02  0.20366490392E+02  0.00000000000E+00 0.  1.
         25    2    1    2    0    0 -0.68578515449E+02  0.14089137808E+02  0.12277704180E+04  0.12361102813E+04  0.12508761623E+03 0.  0.
          5    1    3    3  502    0 -0.83941158292E+02  0.46857402048E+02  0.63799060074E+03  0.64520633383E+03  0.41800000000E+01 0.  1.
         -5    1    3    3    0  502  0.15362642843E+02 -0.32768264241E+02  0.58977981722E+03  0.59090394748E+03  0.41800000000E+01 0.  1.
        -11    1    1    2    0    0  0.91057197461E+01  0.48451512685E+01 -0.89772987763E+01  0.13674118481E+02  0.00000000000E+00 0.  1.
         11    1    1    2    0    0  0.59472795703E+02 -0.18934289076E+02  0.19506964577E+03  0.20481134595E+03  0.00000000000E+00 0. -1.
</event>
<event>
 7    1  0.2556591E-009  0.1215298E+03  0.7561462E-02  0.1240595E+00
         -1   -1    0    0    0  501 -0.00000000000E+00  0.00000000000E+00  0.11793173030E+03  0.11793173030E+03  0.00000000000E+00 0.  1.
          1   -1    0    0  501    0  0.00000000000E+00 -0.00000000000E+00 -0.16711230288E+03  0.16711230288E+03  0.00000000000E+00 0. -1.
         25    2    1    2    0    0  0.25761614364E+02 -0.51850572793E+02  0.41911202941E+02  0.14406875209E+03  0.12508842362E+03 0.  0.
          5    1    3    3  502    0 -0.26631167865E+02 -0.73821717905E+02  0.11298475062E+02  0.79397689356E+02  0.41800000000E+01 0. -1.
         -5    1    3    3    0  502  0.52392782229E+02  0.21971145111E+02  0.30612727879E+02  0.64671062736E+02  0.41800000000E+01 0. -1.
        -11    1    1    2    0    0  0.33261246405E+02  0.29277052614E+02 -0.34719964114E+02  0.56293269848E+02  0.00000000000E+00 0. -1.
         11    1    1    2    0    0 -0.59022860769E+02  0.22573520179E+02 -0.56371811407E+02  0.84682011242E+02  0.00000000000E+00 0.  1.
</event>
<event>
 7    1  0.2556591E-009  0.9841279E+02  0.7561462E-02  0.1283669E+00
          1   -1    0    0  501    0  0.00000000000E+00  0.00000000000E+00  0.66995743054E+03  0.66995743054E+03  0.00000000000E+00 0. -1.
         -1   -1    0    0    0  501 -0.00000000000E+00 -0.00000000000E+00 -0.26742751321E+02  0.26742751321E+02  0.00000000000E+00 0.  1.
         25    2    1    2    0    0  0.36576128472E+02 -0.65828494500E+02  0.37980691342E+03  0.40690519595E+03  0.12508934067E+03 0.  0.
          5    1    3    3  502    0 -0.22501415244E+02 -0.58872370789E+01  0.69316358503E+01  0.24627083139E+02  0.41800000000E+01 0.  1.
         -5    1    3    3    0  502  0.59077543716E+02 -0.59941257421E+02  0.37287527757E+03  0.38227811281E+03  0.41800000000E+01 0.  1.
        -11    1    1    2    0    0 -0.39126565529E+02  0.21727679021E+02  0.23025385079E+03  0.23456303198E+03  0.00000000000E+00 0. -1.
         11    1    1    2    0    0  0.25504370567E+01  0.44100815478E+02  0.33153915009E+02  0.55231953935E+02  0.00000000000E+00 0.  1.
</event>
<event>
 7    1  0.2556591E-009  0.2271733E+03  0.7561462E-02  0.1128645E+00
          1   -1    0    0  501    0  0.00000000000E+00  0.00000000000E+00  0.12910149353E+04  0.12910149353E+04  0.00000000000E+00 0. -1.
         -1   -1    0    0    0  501 -0.00000000000E+00 -0.00000000000E+00 -0.49023974083E+02  0.49023974083E+02  0.00000000000E+00 0.  1.
         25    2    1    2    0    0  0.82009448567E+02 -0.21022015601E+03  0.57631516226E+03  0.63142917089E+03  0.12508224477E+03 0.  0.
          5    1    3    3  502    0  0.68782631011E+02 -0.19976875073E+03  0.38378802369E+03  0.43812021595E+03  0.41800000000E+01 0. -1.
         -5    1    3    3    0  502  0.13226817556E+02 -0.10451405282E+02  0.19252713857E+03  0.19330895494E+03  0.41800000000E+01 0. -1.
        -11    1    1    2    0    0 -0.26076867980E+02  0.69348026794E+02  0.35848586660E+03  0.36606183687E+03  0.00000000000E+00 0. -1.
         11    1    1    2    0    0 -0.55932580587E+02  0.14087212922E+03  0.30718993237E+03  0.34254790163E+03  0.00000000000E+00 0.  1.
</event>
<event>
 7    1  0.2556591E-009  0.2333924E+03  0.7561462E-02  0.1124275E+00
          2   -1    0    0  501    0  0.00000000000E+00  0.00000000000E+00  0.11107562620E+03  0.11107562620E+03  0.00000000000E+00 0. -1.
         -2   -1    0    0    0  501 -0.00000000000E+00 -0.00000000000E+00 -0.81010534915E+03  0.81010534915E+03  0.00000000000E+00 0.  1.
         25    2    1    2    0    0  0.40298759264E+02 -0.20804400878E+03 -0.76716894469E+02  0.25775698007E+03  0.12508748654E+03 0.  0.
          5    1    3    3  502    0  0.22816183255E+02  0.77756623572E+01  0.71969609429E+01  0.25501133116E+02  0.41800000000E+01 0. -1.
         -5    1    3    3    0  502  0.17482576009E+02 -0.21581967114E+03 -0.83913855412E+02  0.23225584695E+03  0.41800000000E+01 0. -1.
        -11    1    1    2    0    0  0.22569919304E+02  0.35034438726E+02 -0.72622453727E+02  0.83730722794E+02  0.00000000000E+00 0. -1.
         11    1    1    2    0    0 -0.62868678568E+02  0.17300957006E+03 -0.54969037476E+03  0.57969327249E+03  0.00000000000E+00 0.  1.
</event>
<event>
 7    1  0.2556591E-009  0.1012949E+03  0.7561462E-02  0.1277596E+00
         -1   -1    0    0    0  501 -0.00000000000E+00  0.00000000000E+00  0.21421204444E+02  0.21421204444E+02  0.00000000000E+00 0.  1.
          1   -1    0    0  501    0  0.00000000000E+00 -0.00000000000E+00 -0.68856126936E+03  0.68856126936E+03  0.00000000000E+00 0. -1.
         25    2    1    2    0    0  0.34197168021E+02 -0.41741480285E+02 -0.38666333475E+03  0.40996115607E+03  0.12509123698E+03 0.  0.
          5    1    3    3  502    0 -0.24042564737E+02 -0.55958318754E+02 -0.28830111876E+03  0.29469371529E+03  0.41800000000E+01 0. -1.
         -5    1    3    3    0  502  0.58239732758E+02  0.14216838469E+02 -0.98362215992E+02  0.11526744077E+03  0.41800000000E+01 0. -1.
        -11    1    1    2    0    0 -0.21663755559E+02  0.57421825855E+02 -0.27092763011E+03  0.27779194579E+03  0.00000000000E+00 0. -1.
         11    1    1    2    0    0 -0.12533412462E+02 -0.15680345570E+02 -0.95491000569E+01  0.22229371944E+02  0.00000000000E+00 0.  1.
</event>
<event>
 7    1  0.2556591E-009  0.1658999E+03  0.7561462E-02  0.1182192E+00
         -1   -1    0    0    0  501 -0.00000000000E+00  0.00000000000E+00  0.14089249025E+03  0.14089249025E+03  0.00000000000E+00 0. -1.
          1   -1    0    0  501    0  0.00000000000E+00 -0.00000000000E+00 -0.29775798429E+03  0.29775798429E+03  0.00000000000E+00 0.  1.
         25    2    1    2    0    0  0.13179426801E+03 -0.23343343237E+02  0.35241791952E+02  0.18655795926E+03  0.12508895839E+03 0.  0.
          5    1    3    3  502    0 -0.16448850524E+02 -0.16710858420E+02  0.29610461507E+02  0.38000911875E+02  0.41800000000E+01 0.  1.
         -5    1    3    3    0  502  0.14824311853E+03 -0.66324848174E+01  0.56313304457E+01  0.14855704739E+03  0.41800000000E+01 0.  1.
        -11    1    1    2    0    0 -0.10535491860E+03 -0.21450996463E+02 -0.15307594177E+03  0.18706161571E+03  0.00000000000E+00 0.  1.
         11    1    1    2    0    0 -0.26439349401E+02  0.44794339700E+02 -0.39031344220E+02  0.65030899560E+02  0.00000000000E+00 0. -1.
</event>
<event>
 7    1  0.2556591E-009  0.7242822E+02  0.7561462E-02  0.1352025E+00
         -2   -1    0    0    0  501 -0.00000000000E+00  0.00000000000E+00  0.85758403853E+01  0.85758403853E+01  0.00000000000E+00 0.  1.
          2   -1    0    0  501    0  0.00000000000E+00 -0.00000000000E+00 -0.23313035659E+04  0.23313035659E+04  0.00000000000E+00 0. -1.
         25    2    1    2    0    0 -0.69909737682E+00 -0.65379102192E+01 -0.20550330392E+04  0.20588472537E+04  0.12509192309E+03 0.  0.
          5    1    3    3  502    0  0.33819386834E+02  0.41958025296E+01 -0.18675353474E+04  0.18678509314E+04  0.41800000000E+01 0. -1.
         -5    1    3    3    0  502 -0.34518484211E+02 -0.10733712749E+02 -0.18749769178E+03  0.19099632239E+03  0.41800000000E+01 0. -1.
        -11    1    1    2    0    0 -0.37597062490E+01 -0.33568886087E+02 -0.55010732697E+02  0.64553746723E+02  0.00000000000E+00 0.  1.
         11    1    1    2    0    0  0.44588036259E+01  0.40106796306E+02 -0.21268395363E+03  0.21647840578E+03  0.00000000000E+00 0. -1.
</event>
<event>
 7    1  0.2556591E-009  0.9083939E+02  0.7561462E-02  0.1300832E+00
          2   -1    0    0  501    0  0.00000000000E+00  0.00000000000E+00  0.16273646108E+03  0.16273646108E+03  0.00000000000E+00 0. -1.
         -2   -1    0    0    0  501 -0.00000000000E+00 -0.00000000000E+00 -0.74634327473E+02  0.74634327473E+02  0.00000000000E+00 0.  1.
         25    2    1    2    0    0  0.19246406083E+02  0.10762488142E+02  0.45193973495E+02  0.13481873022E+03  0.12508932601E+03 0.  0.
          5    1    3    3  502    0 -0.52774577364E+02  0.20101924940E+01  0.28881946394E+02  0.60339341373E+02  0.41800000000E+01 0. -1.
         -5    1    3    3    0  502  0.72020983446E+02  0.87522956483E+01  0.16312027101E+02  0.74479388852E+02  0.41800000000E+01 0. -1.
        -11    1    1    2    0    0 -0.16146667077E+02  0.19665036393E+02 -0.20157297745E+02  0.32461441224E+02  0.00000000000E+00 0.  1.
         11    1    1    2    0    0 -0.30997390060E+01 -0.30427524535E+02  0.63065457858E+02  0.70090617104E+02  0.00000000000E+00 0. -1.
</event>
<event>
 7    1  0.2556591E-009  0.1227015E+03  0.7561462E-02  0.1238706E+00
          1   -1    0    0  501    0  0.00000000000E+00  0.00000000000E+00  0.25121915422E+02  0.25121915422E+02  0.00000000000E+00 0. -1.
         -1   -1    0    0    0  501 -0.00000000000E+00 -0.00000000000E+00 -0.78373988246E+03  0.78373988246E+03  0.00000000000E+00 0.  1.
         25    2    1    2    0    0  0.22636723859E+02 -0.52136922997E+02 -0.22033680920E+03  0.25966686069E+03  0.12509152266E+03 0.  0.
          5    1    3    3  502    0  0.44899768416E+02  0.28631717301E+02 -0.80959166425E+02  0.96992904213E+02  0.41800000000E+01 0. -1.
         -5    1    3    3    0  502 -0.22263044557E+02 -0.80768640297E+02 -0.13937764278E+03  0.16267395647E+03  0.41800000000E+01 0. -1.
        -11    1    1    2    0    0 -0.58077509830E+02  0.23960764861E+02 -0.34575479088E+03  0.35141640658E+03  0.00000000000E+00 0.  1.
         11    1    1    2    0    0  0.35440785971E+02  0.28176158136E+02 -0.19252636696E+03  0.19777853062E+03  0.00000000000E+00 0. -1.
</event>
<event>
 7    1  0.2556591E-009  0.6612956E+02  0.7561462E-02  0.1373772E+00
          1   -1    0    0  501    0  0.00000000000E+00  0.00000000000E+00  0.48508777416E+03  0.48508777416E+03  0.00000000000E+00 0. -1.
         -1   -1    0    0    0  501 -0.00000000000E+00 -0.00000000000E+00 -0.27721522019E+02  0.27721522019E+02  0.00000000000E+00 0.  1.
         25    2    1    2    0    0  0.33550608204E+02 -0.12989921435E+02  0.28495086563E+03  0.31327545921E+03  0.12510050419E+03 0.  0.
          5    1    3    3  502    0  0.15374947783E+02  0.29389751735E+02  0.10638322306E+02  0.35082657081E+02  0.41800000000E+01 0.  1.
         -5    1    3    3    0  502  0.18175660421E+02 -0.42379673170E+02  0.27431254332E+03  0.27819280212E+03  0.41800000000E+01 0.  1.
        -11    1    1    2    0    0 -0.35949433960E+02 -0.32632186195E+01  0.17842514539E+03  0.18203994865E+03  0.00000000000E+00 0. -1.
         11    1    1    2    0    0  0.23988257561E+01  0.16253140054E+02 -0.60097588818E+01  0.17493888317E+02  0.00000000000E+00 0.  1.
</event>
<event>
 7    1  0.2556591E-009  0.1116286E+03  0.7561462E-02  0.1257583E+00
         -1   -1    0    0    0  501 -0.00000000000E+00  0.00000000000E+00  0.22789362381E+02  0.22789362381E+02  0.00000000000E+00 0.  1.
          1   -1    0    0  501    0  0.00000000000E+00 -0.00000000000E+00 -0.94548812688E+03  0.94548812688E+03  0.00000000000E+00 0. -1.
         25    2    1    2    0    0  0.80401463021E+02  0.11572684929E+02 -0.68126857356E+03  0.69740470168E+03  0.12509247105E+03 0.  0.
          5    1    3    3  502    0  0.78819851883E+02 -0.29397440349E+02 -0.24261991055E+03  0.25682420436E+03  0.41800000000E+01 0. -1.
         -5    1    3    3    0  502  0.15816111380E+01  0.40970125278E+02 -0.43864866301E+03  0.44058049732E+03  0.41800000000E+01 0. -1.
        -11    1    1    2    0    0 -0.45836653568E+02  0.20912901527E+02 -0.20489701631E+03  0.21100032121E+03  0.00000000000E+00 0. -1.
         11    1    1    2    0    0 -0.34564809452E+02 -0.32485586456E+02 -0.36533174627E+02  0.59872466361E+02  0.00000000000E+00 0.  1.
</event>
<event>
 7    1  0.2556591E-009  0.7098826E+02  0.7561462E-02  0.1356764E+00
         -4   -1    0    0    0  501 -0.00000000000E+00  0.00000000000E+00  0.58905448041E+03  0.58905448041E+03  0.00000000000E+00 0.  1.
          4   -1    0    0  501    0  0.00000000000E+00 -0.00000000000E+00 -0.22389126909E+02  0.22389126909E+02  0.00000000000E+00 0. -1.
         25    2    1    2    0    0 -0.24506313433E+02  0.10459878224E+02  0.38424653339E+03  0.40497381849E+03  0.12509367205E+03 0.  0.
          5    1    3    3  502    0  0.11160094154E+02  0.32781359933E+02  0.34662954524E+03  0.34838007879E+03  0.41800000000E+01 0. -1.
         -5    1    3    3    0  502 -0.35666407587E+02 -0.22321481709E+02  0.37616988144E+02  0.56593739697E+02  0.41800000000E+01 0. -1.
        -11    1    1    2    0    0  0.34299393337E+01 -0.33449516767E+02  0.16934623119E+03  0.17265219568E+03  0.00000000000E+00 0.  1.
         11    1    1    2    0    0  0.21076374099E+02  0.22989638543E+02  0.13072588927E+02  0.33817593154E+02  0.00000000000E+00 0. -1.
</event>
<event>
 7    1  0.2556591E-009  0.1459626E+03  0.7561462E-02  0.1205524E+00
          2   -1    0    0  501    0  0.00000000000E+00  0.00000000000E+00  0.58256479050E+02  0.58256479050E+02  0.00000000000E+00 0.  1.
         -2   -1    0    0    0  501 -0.00000000000E+00 -0.00000000000E+00 -0.95610722750E+03  0.95610722750E+03  0.00000000000E+00 0. -1.
         25    2    1    2    0    0 -0.10992639221E+03 -0.88257517972E+01 -0.84543941658E+03  0.86172891570E+03  0.12508881425E+03 0.  0.
          5    1    3    3  502    0 -0.10064853568E+03  0.43397699432E+02 -0.64938563460E+03  0.65858383132E+03  0.41800000000E+01 0. -1.
         -5    1    3    3    0  502 -0.92778565352E+01 -0.52223451229E+02 -0.19605378198E+03  0.20314508438E+03  0.41800000000E+01 0. -1.
        -11    1    1    2    0    0  0.38751215444E+02  0.35956328752E+02 -0.55177602241E+02  0.76413886597E+02  0.00000000000E+00 0. -1.
         11    1    1    2    0    0  0.71175176768E+02 -0.27130576955E+02  0.27662703679E+01  0.76220904256E+02  0.00000000000E+00 0.  1.
</event>
<event>
 7    1  0.2556591E-009  0.9940504E+02  0.7561462E-02  0.1281552E+00
         -1   -1    0    0    0  501 -0.00000000000E+00  0.00000000000E+00  0.96834429888E+01  0.96834429888E+01  0.00000000000E+00 0.  1.
          1   -1    0    0  501    0  0.00000000000E+00 -0.00000000000E+00 -0.17082768435E+04  0.17082768435E+04  0.00000000000E+00 0. -1.
         25    2    1    2    0    0 -0.35067118436E+02 -0.10204853536E+02 -0.13737401120E+04  0.13799069470E+04  0.12508974961E+03 0.  0.
          5    1    3    3  502    0  0.27707670087E+02  0.23722185885E+02 -0.90536080935E+03  0.90610491920E+03  0.41800000000E+01 0.  1.
         -5    1    3    3    0  502 -0.62774788524E+02 -0.33927039421E+02 -0.46837930261E+03  0.47380202784E+03  0.41800000000E+01 0.  1.
        -11    1    1    2    0    0  0.12210474150E+02 -0.36571090293E+02 -0.98201831801E+02  0.10549947911E+03  0.00000000000E+00 0.  1.
         11    1    1    2    0    0  0.22856644287E+02  0.46775943828E+02 -0.22665145680E+03  0.23255386038E+03  0.00000000000E+00 0. -1.
</event>
<event>
 7    1  0.2556591E-009  0.1507010E+03  0.7561462E-02  0.1199614E+00
         -2   -1    0    0    0  501 -0.00000000000E+00  0.00000000000E+00  0.99255448271E+02  0.99255448271E+02  0.00000000000E+00 0.  1.
          2   -1    0    0  501    0  0.00000000000E+00 -0.00000000000E+00 -0.29621428594E+03  0.29621428594E+03  0.00000000000E+00 0. -1.
         25    2    1    2    0    0 -0.10632044228E+03  0.78690136932E+02 -0.99871882186E+02  0.20764726497E+03  0.12508724836E+03 0.  0.
          5    1    3    3  502    0 -0.26369423497E+02  0.52664694951E+02 -0.10798435884E+03  0.12307319263E+03  0.41800000000E+01 0. -1.
         -5    1    3    3    0  502 -0.79951018784E+02  0.26025441982E+02  0.81124766554E+01  0.84574072342E+02  0.41800000000E+01 0. -1.
        -11    1    1    2    0    0  0.11578863188E+03 -0.87583575643E+02 -0.97402099420E+02  0.17482865602E+03  0.00000000000E+00 0. -1.
         11    1    1    2    0    0 -0.94681895946E+01  0.88934387109E+01  0.31514393702E+00  0.12993813220E+02  0.00000000000E+00 0.  1.
</event>
<event>
 7    1  0.2556591E-009  0.9759987E+02  0.7561462E-02  0.1285426E+00
          1   -1    0    0  501    0  0.00000000000E+00  0.00000000000E+00  0.18952682447E+02  0.18952682447E+02  0.00000000000E+00 0. -1.
         -1   -1    0    0    0  501 -0.00000000000E+00 -0.00000000000E+00 -0.64926712609E+03  0.64926712609E+03  0.00000000000E+00 0.  1.
         25    2    1    2    0    0 -0.61459298992E+00  0.19137140751E+02 -0.38440985974E+03  0.40470479111E+03  0.12509364413E+03 0.  0.
          5    1    3    3  502    0  0.48254010634E+02  0.20166303493E+02 -0.75594019464E+02  0.92016615443E+02  0.41800000000E+01 0. -1.
         -5    1    3    3    0  502 -0.48868603624E+02 -0.10291627424E+01 -0.30881584028E+03  0.31268817567E+03  0.41800000000E+01 0. -1.
        -11    1    1    2    0    0  0.31683356709E+02 -0.43765711491E+02 -0.16065802964E+03  0.16950007399E+03  0.00000000000E+00 0. -1.
         11    1    1    2    0    0 -0.31068763719E+02  0.24628570740E+02 -0.85246554260E+02  0.94014943435E+02  0.00000000000E+00 0.  1.
</event>
<event>
 7    1  0.2556591E-009  0.1185544E+03  0.7561462E-02  0.1245501E+00
          2   -1    0    0  501    0  0.00000000000E+00  0.00000000000E+00  0.44111846137E+03  0.44111846137E+03  0.00000000000E+00 0. -1.
         -2   -1    0    0    0  501 -0.00000000000E+00 -0.00000000000E+00 -0.39452997511E+02  0.39452997511E+02  0.00000000000E+00 0.  1.
         25    2    1    2    0    0  0.52690515256E+02 -0.14250574913E+02  0.31663875711E+03  0.34479974778E+03  0.12508954505E+03 0.  0.
          5    1    3    3  502    0  0.30490351617E+02 -0.68080094900E+02  0.13889034819E+03  0.15771037405E+03  0.41800000000E+01 0. -1.
         -5    1    3    3    0  502  0.22200163638E+02  0.53829519987E+02  0.17774840892E+03  0.18708937373E+03  0.41800000000E+01 0. -1.
        -11    1    1    2    0    0 -0.66345600737E+02 -0.18212746118E+02  0.43839709251E+02  0.81580407976E+02  0.00000000000E+00 0. -1.
         11    1    1    2    0    0  0.13655085481E+02  0.32463321030E+02  0.41186997499E+02  0.54191303129E+02  0.00000000000E+00 0.  1.
</event>
<event>
 7    1  0.2556591E-009  0.1492354E+03  0.7561462E-02  0.1201416E+00
          1   -1    0    0  501    0  0.00000000000E+00  0.00000000000E+00  0.11753705415E+03  0.11753705415E+03  0.00000000000E+00 0. -1.
         -1   -1    0    0    0  501 -0.00000000000E+00 -0.00000000000E+00 -0.26334566484E+03  0.26334566484E+03  0.00000000000E+00 0.  1.
         25    2    1    2    0    0  0.46584860544E+02  0.12793354892E+03 -0.52862131575E+02  0.19230575621E+03  0.12509978715E+03 0.  0.
          5    1    3    3  502    0  0.90567702043E+01  0.19172829257E+01  0.33455359778E+02  0.34963331624E+02  0.41800000000E+01 0.  1.
         -5    1    3    3    0  502  0.37528090339E+02  0.12601626600E+03 -0.86317491353E+02  0.15734242458E+03  0.41800000000E+01 0.  1.
        -11    1    1    2    0    0 -0.53392803624E+02 -0.35590293764E+02 -0.66205911912E+02  0.92199150002E+02  0.00000000000E+00 0.  1.
         11    1    1    2    0    0  0.68079430802E+01 -0.92343255157E+02 -0.26740567202E+02  0.96377812780E+02  0.00000000000E+00 0. -1.
</event>
<event>
 7    1  0.2556591E-009  0.7655157E+02  0.7561462E-02  0.1339133E+00
          1   -1    0    0  501    0  0.00000000000E+00  0.00000000000E+00  0.28780726598E+03  0.28780726598E+03  0.00000000000E+00 0. -1.
         -1   -1    0    0    0  501 -0.00000000000E+00 -0.00000000000E+00 -0.46302494348E+02  0.46302494348E+02  0.00000000000E+00 0.  1.
         25    2    1    2    0    0 -0.58634439189E+01  0.25044710212E+02  0.18020042018E+03  0.22086582892E+03  0.12509158832E+03 0.  0.
          5    1    3    3  502    0 -0.15748055404E+02 -0.19867692222E+02 -0.81355667877E+01  0.26951554504E+02  0.41800000000E+01 0. -1.
         -5    1    3    3    0  502  0.98846114847E+01  0.44912402434E+02  0.18833598697E+03  0.19391427442E+03  0.41800000000E+01 0. -1.
        -11    1    1    2    0    0  0.33724701456E+02 -0.37741509281E+02  0.65024043495E+02  0.82400869192E+02  0.00000000000E+00 0. -1.
         11    1    1    2    0    0 -0.27861257537E+02  0.12696799068E+02 -0.37196920372E+01  0.30843062218E+02  0.00000000000E+00 0.  1.
</event>
<event>
 7    1  0.2556591E-009  0.8189181E+02  0.7561462E-02  0.1323767E+00
         -2   -1    0    0    0  501 -0.00000000000E+00  0.00000000000E+00  0.71531321465E+02  0.71531321465E+02  0.00000000000E+00 0.  1.
          2   -1    0    0  501    0  0.00000000000E+00 -0.00000000000E+00 -0.19071271643E+03  0.19071271643E+03  0.00000000000E+00 0. -1.
         25    2    1    2    0    0  0.46720939358E+01 -0.40745533032E+01 -0.27982288295E+02  0.12833395771E+03  0.12509262887E+03 0.  0.
          5    1    3    3  502    0 -0.45201196669E+02  0.34534363491E+02 -0.31255444574E+02  0.65039569936E+02  0.41800000000E+01 0. -1.
         -5    1    3    3    0  502  0.49873290604E+02 -0.38608916794E+02  0.32731562792E+01  0.63294387774E+02  0.41800000000E+01 0. -1.
        -11    1    1    2    0    0 -0.10600256360E+01 -0.19579648665E+02  0.15227504669E+02  0.24826662978E+02  0.00000000000E+00 0.  1.
         11    1    1    2    0    0 -0.36120682998E+01  0.23654201968E+02 -0.10642661134E+03  0.10908341720E+03  0.00000000000E+00 0. -1.
</event>
<event>
 7    1  0.2556591E-009  0.9063452E+02  0.7561462E-02  0.1301322E+00
          1   -1    0    0  501    0  0.00000000000E+00  0.00000000000E+00  0.64796559307E+03  0.64796559307E+03  0.00000000000E+00 0. -1.
         -1   -1    0    0    0  501 -0.00000000000E+00 -0.00000000000E+00 -0.19501281624E+02  0.19501281624E+02  0.00000000000E+00 0.  1.
         25    2    1    2    0    0 -0.66968603803E+01  0.30551119448E+02  0.32230704681E+03  0.34713845069E+03  0.12508018502E+03 0.  0.
          5    1    3    3  502    0 -0.54940501547E+02  0.15502337470E+01  0.24671701042E+03  0.25279956006E+03  0.41800000000E+01 0. -1.
         -5    1    3    3    0  502  0.48243641166E+02  0.29000885701E+02  0.75590036396E+02  0.94338890638E+02  0.41800000000E+01 0. -1.
        -11    1    1    2    0    0  0.12200993041E+02 -0.48976616313E+02  0.29229980811E+03  0.29662560745E+03  0.00000000000E+00 0. -1.
         11    1    1    2    0    0 -0.55041326605E+01  0.18425496866E+02  0.13857456528E+02  0.23702816552E+02  0.00000000000E+00 0.  1.
</event>
<event>
 7    1  0.2556591E-009  0.1402747E+03  0.7561462E-02  0.1212960E+00
          3   -1    0    0  501    0  0.00000000000E+00  0.00000000000E+00  0.16147034078E+03  0.16147034078E+03  0.00000000000E+00 0.  1.
         -3   -1    0    0    0  501 -0.00000000000E+00 -0.00000000000E+00 -0.18283971711E+03  0.18283971711E+03  0.00000000000E+00 0. -1.
         25    2    1    2    0    0 -0.95982936902E+02 -0.75679991778E+02 -0.61834993996E+02  0.18549788860E+03  0.12508283199E+03 0.  0.
          5    1    3    3  502    0 -0.12976743959E+02  0.11631662671E+02  0.29323748113E+02  0.34366350747E+02  0.41800000000E+01 0.  1.
         -5    1    3    3    0  502 -0.83006192943E+02 -0.87311654449E+02 -0.91158742109E+02  0.15113153785E+03  0.41800000000E+01 0.  1.
        -11    1    1    2    0    0 -0.91377630346E+01  0.22484916654E+02 -0.15066210742E+02  0.28566779593E+02  0.00000000000E+00 0. -1.
         11    1    1    2    0    0  0.10512069994E+03  0.53195075124E+02  0.55531828412E+02  0.13024538970E+03  0.00000000000E+00 0.  1.
</event>
<event>
 7    1  0.2556591E-009  0.1208823E+03  0.7561462E-02  0.1241649E+00
         -2   -1    0    0    0  501 -0.00000000000E+00  0.00000000000E+00  0.27440149268E+03  0.27440149268E+03  0.00000000000E+00 0. -1.
          2   -1    0    0  501    0  0.00000000000E+00 -0.00000000000E+00 -0.87311071758E+02  0.87311071758E+02  0.00000000000E+00 0.  1.
         25    2    1    2    0    0  0.20214641609E+02 -0.10097639389E+03  0.57558414685E+02  0.17194548888E+03  0.12508963261E+03 0.  0.
          5    1    3    3  502    0 -0.20605506950E+02 -0.63757591093E+02 -0.25746043062E+02  0.71902353730E+02  0.41800000000E+01 0. -1.
         -5    1    3    3    0  502  0.40820148559E+02 -0.37218802801E+02  0.83304457747E+02  0.10004313515E+03  0.41800000000E+01 0. -1.
        -11    1    1    2    0    0 -0.83145684070E+01  0.10599180981E+03  0.13808897715E+03  0.17427553301E+03  0.00000000000E+00 0. -1.
         11    1    1    2    0    0 -0.11900073202E+02 -0.50154159180E+01 -0.85569709191E+01  0.15491542543E+02  0.00000000000E+00 0.  1.
</event>
<event>
 7    1  0.2556591E-009  0.2850923E+03  0.7561462E-02  0.1092940E+00
          2   -1    0    0  501    0  0.00000000000E+00  0.00000000000E+00  0.57781414321E+03  0.57781414321E+03  0.00000000000E+00 0. -1.
         -2   -1    0    0    0  501 -0.00000000000E+00 -0.00000000000E+00 -0.15358380642E+03  0.15358380642E+03  0.00000000000E+00 0.  1.
         25    2    1    2    0    0  0.20270482451E+03 -0.17896827627E+03  0.27888090319E+03  0.40809501540E+03  0.12509234043E+03 0.  0.
          5    1    3    3  502    0  0.11644163343E+03 -0.28135081195E+02  0.80726586946E+02  0.14451467410E+03  0.41800000000E+01 0.  1.
         -5    1    3    3    0  502  0.86263191080E+02 -0.15083319508E+03  0.19815431625E+03  0.26358034130E+03  0.41800000000E+01 0.  1.
        -11    1    1    2    0    0 -0.10260389611E+03  0.52605695237E+02  0.15574504497E+02  0.11635069342E+03  0.00000000000E+00 0.  1.
         11    1    1    2    0    0 -0.10010092840E+03  0.12636258104E+03  0.12977492910E+03  0.20695224081E+03  0.00000000000E+00 0. -1.
</event>
<event>
 7    1  0.2556591E-009  0.1134382E+03  0.7561462E-02  0.1254332E+00
         -3   -1    0    0    0  501 -0.00000000000E+00  0.00000000000E+00  0.24064523255E+02  0.24064523255E+02  0.00000000000E+00 0.  1.
          3   -1    0    0  501    0  0.00000000000E+00 -0.00000000000E+00 -0.61662605518E+03  0.61662605518E+03  0.00000000000E+00 0. -1.
         25    2    1    2    0    0 -0.98315991761E+01 -0.51444194735E+02 -0.33304621733E+03  0.35959939761E+03  0.12509507732E+03 0.  0.
          5    1    3    3  502    0 -0.60441768364E+02 -0.42761416679E+02 -0.25890301585E+03  0.26931392488E+03  0.41800000000E+01 0.  1.
         -5    1    3    3    0  502  0.50610169187E+02 -0.86827780556E+01 -0.74143201485E+02  0.90285472731E+02  0.41800000000E+01 0.  1.
        -11    1    1    2    0    0 -0.89471500248E+01 -0.22865929594E+02 -0.11410769993E+03  0.11671961880E+03  0.00000000000E+00 0.  1.
         11    1    1    2    0    0  0.18778749201E+02  0.74310124329E+02 -0.14540761466E+03  0.16437156202E+03  0.00000000000E+00 0. -1.
</event>
<event>
 7    1  0.2556591E-009  0.6124986E+02  0.7561462E-02  0.1392660E+00
          2   -1    0    0  501    0  0.00000000000E+00  0.00000000000E+00  0.49627783902E+03  0.49627783902E+03  0.00000000000E+00 0. -1.
         -2   -1    0    0    0  501 -0.00000000000E+00 -0.00000000000E+00 -0.24768871812E+02  0.24768871812E+02  0.00000000000E+00 0.  1.
         25    2    1    2    0    0  0.13780339030E+02 -0.26041107715E+02  0.26240844195E+03  0.29218959927E+03  0.12509410250E+03 0.  0.
          5    1    3    3  502    0  0.16209291385E+02 -0.16400170534E+02 -0.54941529156E+01  0.24069998691E+02  0.41800000000E+01 0. -1.
         -5    1    3    3    0  502 -0.24289523549E+01 -0.96409371812E+01  0.26790259487E+03  0.26811960058E+03  0.41800000000E+01 0. -1.
        -11    1    1    2    0    0  0.35144221659E+02  0.14464461641E+02  0.55717285209E+02  0.67444442601E+02  0.00000000000E+00 0. -1.
         11    1    1    2    0    0 -0.48924560689E+02  0.11576646074E+02  0.15338324005E+03  0.16141266896E+03  0.00000000000E+00 0.  1.
</event>
<event>
 7    1  0.2556591E-009  0.2137425E+03  0.7561462E-02  0.1138636E+00
          2   -1    0    0  501    0  0.00000000000E+00  0.00000000000E+00  0.57605381312E+03  0.57605381312E+03  0.00000000000E+00 0.  1.
         -2   -1    0    0    0  501 -0.00000000000E+00 -0.00000000000E+00 -0.84273686572E+02  0.84273686572E+02  0.00000000000E+00 0. -1.
         25    2    1    2    0    0  0.65409962702E+02 -0.17965889741E+03  0.26569281957E+03  0.35042309701E+03  0.12509152611E+03 0.  0.
          5    1    3    3  502    0  0.56566921090E+02 -0.20138321528E+02  0.11960238775E+03  0.13389388377E+03  0.41800000000E+01 0.  1.
         -5    1    3    3    0  502  0.88430416122E+01 -0.15952057589E+03  0.14609043181E+03  0.21652921323E+03  0.41800000000E+01 0.  1.
        -11    1    1    2    0    0 -0.80518148422E+02  0.17328309206E+03  0.18628477776E+03  0.26685617970E+03  0.00000000000E+00 0.  1.
         11    1    1    2    0    0  0.15108185720E+02  0.63758053484E+01  0.39802529216E+02  0.43048222978E+02  0.00000000000E+00 0. -1.
</event>
<event>
 7    1  0.2556591E-009  0.8551604E+02  0.7561462E-02  0.1314089E+00
          4   -1    0    0  501    0  0.00000000000E+00  0.00000000000E+00  0.23897161433E+03  0.23897161433E+03  0.00000000000E+00 0.  1.
         -4   -1    0    0    0  501 -0.00000000000E+00 -0.00000000000E+00 -0.54739069344E+02  0.54739069344E+02  0.00000000000E+00 0. -1.
         25    2    1    2    0    0 -0.23255935453E+02  0.93518844896E+01  0.66005299700E+02  0.14363585639E+03  0.12508502459E+03 0.  0.
          5    1    3    3  502    0 -0.33933171644E+02 -0.25061749200E+02  0.90452254401E+02  0.99893113561E+02  0.41800000000E+01 0.  1.
         -5    1    3    3    0  502  0.10677236191E+02  0.34413633690E+02 -0.24446954701E+02  0.43742742833E+02  0.41800000000E+01 0.  1.
        -11    1    1    2    0    0  0.30705479051E+01  0.39442793284E+02  0.53557016476E+02  0.66584654541E+02  0.00000000000E+00 0. -1.
         11    1    1    2    0    0  0.20185387548E+02 -0.48794677773E+02  0.64670228805E+02  0.83490172734E+02  0.00000000000E+00 0.  1.
</event>
<event>
 7    1  0.2556591E-009  0.1081462E+03  0.7561462E-02  0.1264042E+00
         -2   -1    0    0    0  501 -0.00000000000E+00  0.00000000000E+00  0.27325681406E+03  0.27325681406E+03  0.00000000000E+00 0.  1.
          2   -1    0    0  501    0  0.00000000000E+00 -0.00000000000E+00 -0.53191563894E+02  0.53191563894E+02  0.00000000000E+00 0. -1.
         25    2    1    2    0    0 -0.13946014593E+02  0.16525769944E+02  0.59483006049E+02  0.14020239374E+03  0.12510352036E+03 0.  0.
          5    1    3    3  502    0 -0.55965208737E+02  0.47480306814E+02  0.43692091120E+02  0.85515819300E+02  0.41800000000E+01 0.  1.
         -5    1    3    3    0  502  0.42019194145E+02 -0.30954536870E+02  0.15790914929E+02  0.54686574438E+02  0.41800000000E+01 0.  1.
        -11    1    1    2    0    0 -0.98800960950E+01 -0.49089664973E+02  0.61797135176E+02  0.79538025007E+02  0.00000000000E+00 0. -1.
         11    1    1    2    0    0  0.23826110688E+02  0.32563895029E+02  0.98785108938E+02  0.10670795921E+03  0.00000000000E+00 0.  1.
</event>
<event>
 7    1  0.2556591E-009  0.1296722E+03  0.7561462E-02  0.1227943E+00
          1   -1    0    0  501    0  0.00000000000E+00  0.00000000000E+00  0.68138502436E+03  0.68138502436E+03  0.00000000000E+00 0. -1.
         -1   -1    0    0    0  501 -0.00000000000E+00 -0.00000000000E+00 -0.33347561156E+02  0.33347561156E+02  0.00000000000E+00 0.  1.
         25    2    1    2    0    0 -0.87175080131E+02 -0.47866022006E+02  0.43178422456E+03  0.46040838101E+03  0.12509040755E+03 0.  0.
          5    1    3    3  502    0 -0.63856061653E+01  0.20449945905E+02  0.24283156990E+03  0.24381062322E+03  0.41800000000E+01 0.  1.
         -5    1    3    3    0  502 -0.80789473966E+02 -0.68315967912E+02  0.18895265466E+03  0.21659775779E+03  0.41800000000E+01 0.  1.
        -11    1    1    2    0    0  0.10373570245E+03  0.49595216727E+02  0.17061295022E+03  0.20574148893E+03  0.00000000000E+00 0.  1.
         11    1    1    2    0    0 -0.16560622317E+02 -0.17291947208E+01  0.45640288412E+02  0.48582715571E+02  0.00000000000E+00 0. -1.
</event>
<event>
 7    1  0.2556591E-009  0.1100293E+03  0.7561462E-02  0.1260516E+00
          2   -1    0    0  501    0  0.00000000000E+00  0.00000000000E+00  0.93175479297E+03  0.93175479297E+03  0.00000000000E+00 0. -1.
         -2   -1    0    0    0  501 -0.00000000000E+00 -0.00000000000E+00 -0.13164364792E+02  0.13164364792E+02  0.00000000000E+00 0.  1.
         25    2    1    2    0    0 -0.26215732123E+02  0.21737248481E+02  0.48855883273E+03  0.50546645162E+03  0.12508728188E+03 0.  0.
          5    1    3    3  502    0  0.29332649759E+02  0.56567927906E+02  0.23170547248E+03  0.24034398928E+03  0.41800000000E+01 0.  1.
         -5    1    3    3    0  502 -0.55548381882E+02 -0.34830679425E+02  0.25685336026E+03  0.26512246233E+03  0.41800000000E+01 0.  1.
        -11    1    1    2    0    0  0.48099602714E+02  0.12656599646E+02  0.23418410606E+03  0.23940751205E+03  0.00000000000E+00 0. -1.
         11    1    1    2    0    0 -0.21883870591E+02 -0.34393848128E+02  0.19584748939E+03  0.20004519410E+03  0.00000000000E+00 0.  1.
</event>
<event>
 7    1  0.2556591E-009  0.1112013E+03  0.7561462E-02  0.1258361E+00
         -2   -1    0    0    0  501 -0.00000000000E+00  0.00000000000E+00  0.32590591358E+02  0.32590591358E+02  0.00000000000E+00 0.  1.
          2   -1    0    0  501    0  0.00000000000E+00 -0.00000000000E+00 -0.40462817680E+03  0.40462817680E+03  0.00000000000E+00 0. -1.
         25    2    1    2    0    0 -0.30905088914E+01  0.41997844925E+02 -0.20958332320E+03  0.24768257458E+03  0.12509243847E+03 0.  0.
          5    1    3    3  502    0 -0.40916808474E+02  0.67632201185E+02 -0.91443929247E+02  0.12094529527E+03  0.41800000000E+01 0. -1.
         -5    1    3    3    0  502  0.37826299582E+02 -0.25634356261E+02 -0.11813939396E+03  0.12673727931E+03  0.41800000000E+01 0. -1.
        -11    1    1    2    0    0  0.11427365063E+02 -0.68568016551E+02 -0.12220844230E+03  0.14059538021E+03  0.00000000000E+00 0. -1.
         11    1    1    2    0    0 -0.83368561713E+01  0.26570171627E+02 -0.40245819932E+02  0.48940813368E+02  0.00000000000E+00 0.  1.
</event>
<event>
 7    1  0.2556591E-009  0.1137411E+03  0.7561462E-02  0.1253795E+00
          2   -1    0    0  501    0  0.00000000000E+00  0.00000000000E+00  0.14645785160E+03  0.14645785160E+03  0.00000000000E+00 0. -1.
         -2   -1    0    0    0  501 -0.00000000000E+00 -0.00000000000E+00 -0.12326085222E+03  0.12326085222E+03  0.00000000000E+00 0.  1.
         25    2    1    2    0    0  0.17519560397E+02 -0.74411924833E+02 -0.17080847961E+02  0.14759410904E+03  0.12509275000E+03 0.  0.
          5    1    3    3  502    0  0.50555523992E+02 -0.44356771321E+02 -0.56453761886E+02  0.87908382986E+02  0.41800000000E+01 0.  1.
         -5    1    3    3    0  502 -0.33035963595E+02 -0.30055153512E+02  0.39372913926E+02  0.59685726051E+02  0.41800000000E+01 0.  1.
        -11    1    1    2    0    0  0.10330370164E+02  0.84865530194E+02  0.31480979303E+02  0.91103934167E+02  0.00000000000E+00 0.  1.
         11    1    1    2    0    0 -0.27849930561E+02 -0.10453605361E+02  0.87968680412E+01  0.31020660610E+02  0.00000000000E+00 0. -1.
</event>
<event>
 7    1  0.2556591E-009  0.1073257E+03  0.7561462E-02  0.1265604E+00
         -2   -1    0    0    0  501 -0.00000000000E+00  0.00000000000E+00  0.29138341755E+02  0.29138341755E+02  0.00000000000E+00 0.  1.
          2   -1    0    0  501    0  0.00000000000E+00 -0.00000000000E+00 -0.52109789476E+03  0.52109789476E+03  0.00000000000E+00 0. -1.
         25    2    1    2    0    0 -0.26392330032E+02 -0.35390564323E+02 -0.35901024570E+03  0.38273299627E+03  0.12508853982E+03 0.  0.
          5    1    3    3  502    0  0.36267040875E+02 -0.39242917216E+02 -0.25967638603E+03  0.26515015118E+03  0.41800000000E+01 0. -1.
         -5    1    3    3    0  502 -0.62659370907E+02  0.38523528932E+01 -0.99333859662E+02  0.11758284510E+03  0.41800000000E+01 0. -1.
        -11    1    1    2    0    0  0.23595710816E+02 -0.26900484414E+02 -0.71525362077E+02  0.79976690672E+02  0.00000000000E+00 0. -1.
         11    1    1    2    0    0  0.27966192160E+01  0.62291048736E+02 -0.61423945229E+02  0.87526549567E+02  0.00000000000E+00 0.  1.
</event>
<event>
 7    1  0.2556591E-009  0.9506929E+02  0.7561462E-02  0.1291020E+00
          1   -1    0    0  501    0  0.00000000000E+00  0.00000000000E+00  0.10699282035E+04  0.10699282035E+04  0.00000000000E+00 0. -1.
         -1   -1    0    0    0  501 -0.00000000000E+00 -0.00000000000E+00 -0.15521867821E+02  0.15521867821E+02  0.00000000000E+00 0.  1.
         25    2    1    2    0    0 -0.60591900268E+02  0.14512532431E+02  0.55512006436E+03  0.57244071589E+03  0.12509234738E+03 0.  0.
          5    1    3    3  502    0 -0.65758811549E+02  0.12573237287E+02  0.12167965395E+03  0.13894501854E+03  0.41800000000E+01 0.  1.
         -5    1    3    3    0  502  0.51669112810E+01  0.19392951439E+01  0.43344041042E+03  0.43349569735E+03  0.41800000000E+01 0.  1.
        -11    1    1    2    0    0  0.10493753989E+02 -0.52326167724E+02  0.18639836385E+03  0.19388784579E+03  0.00000000000E+00 0.  1.
         11    1    1    2    0    0  0.50098146278E+02  0.37813635293E+02  0.31288790742E+03  0.31912150960E+03  0.00000000000E+00 0. -1.
</event>
<event>
 7    1  0.2556591E-009  0.1026092E+03  0.7561462E-02  0.1274903E+00
          3   -1    0    0  501    0  0.00000000000E+00  0.00000000000E+00  0.36916274199E+03  0.36916274199E+03  0.00000000000E+00 0. -1.
         -3   -1    0    0    0  501 -0.00000000000E+00 -0.00000000000E+00 -0.32245380229E+02  0.32245380229E+02  0.00000000000E+00 0.  1.
         25    2    1    2    0    0  0.50454757076E+01  0.94446246098E+01  0.21222539896E+03  0.24657499704E+03  0.12507978030E+03 0.  0.
          5    1    3    3  502    0  0.47136917172E+02 -0.35896100282E+02  0.13534790185E+03  0.14780712402E+03  0.41800000000E+01 0.  1.
         -5    1    3    3    0  502 -0.42091441465E+02  0.45340724892E+02  0.76877497107E+02  0.98767873014E+02  0.41800000000E+01 0.  1.
        -11    1    1    2    0    0  0.36023269198E+02 -0.20281689681E+02  0.30083887132E+02  0.51127909453E+02  0.00000000000E+00 0.  1.
         11    1    1    2    0    0 -0.41068744905E+02  0.10837065071E+02  0.94608075668E+02  0.10370521573E+03  0.00000000000E+00 0. -1.
</event>
<event>
 7    1  0.2556591E-009  0.1166579E+03  0.7561462E-02  0.1248715E+00
         -1   -1    0    0    0  501 -0.00000000000E+00  0.00000000000E+00  0.33372912577E+02  0.33372912577E+02  0.00000000000E+00 0.  1.
          1   -1    0    0  501    0  0.00000000000E+00 -0.00000000000E+00 -0.48440356728E+03  0.48440356728E+03  0.00000000000E+00 0. -1.
         25    2    1    2    0    0  0.23875591606E+02  0.52655329659E+02 -0.31105369860E+03  0.34021306784E+03  0.12509156848E+03 0.  0.
          5    1    3    3  502    0 -0.35399110209E+00 -0.37545346415E+02 -0.48286799720E+02  0.61309589579E+02  0.41800000000E+01 0. -1.
         -5    1    3    3    0  502  0.24229582708E+02  0.90200676074E+02 -0.26276689888E+03  0.27890347826E+03  0.41800000000E+01 0. -1.
        -11    1    1    2    0    0  0.31578482556E+02 -0.23726948773E+02 -0.87188200135E+02  0.95718080327E+02  0.00000000000E+00 0.  1.
         11    1    1    2    0    0 -0.55454074162E+02 -0.28928380886E+02 -0.52788755970E+02  0.81845331686E+02  0.00000000000E+00 0. -1.
</event>
<event>
 7    1  0.2556591E-009  0.9736742E+02  0.7561462E-02  0.1285931E+00
          1   -1    0    0  501    0  0.00000000000E+00  0.00000000000E+00  0.16004900548E+03  0.16004900548E+03  0.00000000000E+00 0. -1.
         -1   -1    0    0    0  501 -0.00000000000E+00 -0.00000000000E+00 -0.88687576025E+02  0.88687576025E+02  0.00000000000E+00 0.  1.
         25    2    1    2    0    0 -0.28793375517E+02 -0.37085648923E+02  0.41504663846E+02  0.13991294869E+03  0.12509433345E+03 0.  0.
          5    1    3    3  502    0 -0.99855483207E+01 -0.60271271489E+02  0.73691347434E+02  0.95813487718E+02  0.41800000000E+01 0.  1.
         -5    1    3    3    0  502 -0.18807827196E+02  0.23185622566E+02 -0.32186683588E+02  0.44099460972E+02  0.41800000000E+01 0.  1.
        -11    1    1    2    0    0  0.58800222444E+02  0.42902169067E+02  0.13070105583E+02  0.73951943383E+02  0.00000000000E+00 0.  1.
         11    1    1    2    0    0 -0.30006846928E+02 -0.58165201437E+01  0.16786660029E+02  0.34871689435E+02  0.00000000000E+00 0. -1.
</event>
<event>
 7    1  0.2556591E-009  0.1039208E+03  0.7561462E-02  0.1272261E+00
          4   -1    0    0  501    0  0.00000000000E+00  0.00000000000E+00  0.48819042845E+03  0.48819042845E+03  0.00000000000E+00 0. -1.
         -4   -1    0    0    0  501 -0.00000000000E+00 -0.00000000000E+00 -0.31875960374E+02  0.31875960374E+02  0.00000000000E+00 0.  1.
         25    2    1    2    0    0 -0.35727997946E+02 -0.26761599293E+02  0.34845133578E+03  0.37291028989E+03  0.12510426797E+03 0.  0.
          5    1    3    3  502    0 -0.53763434722E+02  0.26298430301E+02  0.26889738377E+03  0.27550932788E+03  0.41800000000E+01 0.  1.
         -5    1    3    3    0  502  0.18035436776E+02 -0.53060029593E+02  0.79553952014E+02  0.97400962013E+02  0.41800000000E+01 0.  1.
        -11    1    1    2    0    0 -0.16508381620E+02 -0.16857530579E+02  0.54861944799E+01  0.24223982555E+02  0.00000000000E+00 0.  1.
         11    1    1    2    0    0  0.52236379566E+02  0.43619129872E+02  0.10237693781E+03  0.12293211638E+03  0.00000000000E+00 0. -1.
</event>
<event>
 7    1  0.2556591E-009  0.1998383E+03  0.7561462E-02  0.1149875E+00
          2   -1    0    0  501    0  0.00000000000E+00  0.00000000000E+00  0.84032155810E+03  0.84032155810E+03  0.00000000000E+00 0.  1.
         -2   -1    0    0    0  501 -0.00000000000E+00 -0.00000000000E+00 -0.58994319141E+02  0.58994319141E+02  0.00000000000E+00 0. -1.
         25    2    1    2    0    0 -0.24099012482E+02  0.17139561301E+03  0.58027223129E+03  0.61831994696E+03  0.12508587386E+03 0.  0.
          5    1    3    3  502    0 -0.36901276227E+02 -0.40059361048E+01  0.11416000508E+03  0.12011548972E+03  0.41800000000E+01 0. -1.
         -5    1    3    3    0  502  0.12802263745E+02  0.17540154911E+03  0.46611222621E+03  0.49820445724E+03  0.41800000000E+01 0. -1.
        -11    1    1    2    0    0 -0.23794174690E+02 -0.76414398108E+02  0.44065689218E+02  0.91362508468E+02  0.00000000000E+00 0.  1.
         11    1    1    2    0    0  0.47893187172E+02 -0.94981214900E+02  0.15698931845E+03  0.18963342181E+03  0.00000000000E+00 0. -1.
</event>
<event>
 7    1  0.2556591E-009  0.1049877E+03  0.7561462E-02  0.1270144E+00
          2   -1    0    0  501    0  0.00000000000E+00  0.00000000000E+00  0.13303444810E+03  0.13303444810E+03  0.00000000000E+00 0. -1.
         -2   -1    0    0    0  501 -0.00000000000E+00 -0.00000000000E+00 -0.10650149595E+03  0.10650149595E+03  0.00000000000E+00 0.  1.
         25    2    1    2    0    0  0.29720811597E+02  0.31969474362E+02 -0.71092666215E+01  0.13268014650E+03  0.12509238854E+03 0.  0.
          5    1    3    3  502    0  0.37016358315E+02 -0.28880415988E+02  0.34564057555E+02  0.58450283876E+02  0.41800000000E+01 0. -1.
         -5    1    3    3    0  502 -0.72955467179E+01  0.60849890349E+02 -0.41673324177E+02  0.74229862626E+02  0.41800000000E+01 0. -1.
        -11    1    1    2    0    0  0.88914061846E+01 -0.55491304748E+02  0.17898319691E+02  0.58980436200E+02  0.00000000000E+00 0. -1.
         11    1    1    2    0    0 -0.38612217781E+02  0.23521830386E+02  0.15743899079E+02  0.47875361356E+02  0.00000000000E+00 0.  1.
</event>
<event>
 7    1  0.2556591E-009  0.2147266E+03  0.7561462E-02  0.1137877E+00
         -1   -1    0    0    0  501 -0.00000000000E+00  0.00000000000E+00  0.12212994529E+04  0.12212994529E+04  0.00000000000E+00 0.  1.
          1   -1    0    0  501    0  0.00000000000E+00 -0.00000000000E+00 -0.48343594420E+02  0.48343594420E+02  0.00000000000E+00 0. -1.
         25    2    1    2    0    0  0.10306529203E+03  0.18066710220E+03  0.44137383372E+03  0.50370710465E+03  0.12508768900E+03 0.  0.
          5    1    3    3  502    0  0.94441819083E+02  0.15625220529E+03  0.24492721581E+03  0.30551730277E+03  0.41800000000E+01 0.  1.
         -5    1    3    3    0  502  0.86234729446E+01  0.24414896908E+02  0.19644661792E+03  0.19818980188E+03  0.41800000000E+01 0.  1.
        -11    1    1    2    0    0  0.31945258706E+01 -0.58910558858E+02  0.12544315094E+03  0.13862410706E+03  0.00000000000E+00 0. -1.
         11    1    1    2    0    0 -0.10625981790E+03 -0.12175654334E+03  0.60613887383E+03  0.62731183563E+03  0.00000000000E+00 0.  1.
</event>
<event>
 7    1  0.2556591E-009  0.1084452E+03  0.7561462E-02  0.1263476E+00
          2   -1    0    0  501    0  0.00000000000E+00  0.00000000000E+00  0.57211322181E+02  0.57211322181E+02  0.00000000000E+00 0. -1.
         -2   -1    0    0    0  501 -0.00000000000E+00 -0.00000000000E+00 -0.30462315737E+03  0.30462315737E+03  0.00000000000E+00 0.  1.
         25    2    1    2    0    0  0.43303537653E+02 -0.39865954840E+01 -0.22206371739E+03  0.25855632774E+03  0.12509192906E+03 0.  0.
          5    1    3    3  502    0  0.55641718134E+01 -0.54460308484E+02 -0.46404828006E+02  0.71887173198E+02  0.41800000000E+01 0. -1.
         -5    1    3    3    0  502  0.37739365840E+02  0.50473713000E+02 -0.17565888939E+03  0.18666915454E+03  0.41800000000E+01 0. -1.
        -11    1    1    2    0    0 -0.28190621698E+02 -0.41907954334E+02 -0.46770591295E+01  0.50723393718E+02  0.00000000000E+00 0.  1.
         11    1    1    2    0    0 -0.15112915956E+02  0.45894549818E+02 -0.20671058669E+02  0.52554758093E+02  0.00000000000E+00 0. -1.
</event>
<event>
 7    1  0.2556591E-009  0.1357266E+03  0.7561462E-02  0.1219198E+00
          1   -1    0    0  501    0  0.00000000000E+00  0.00000000000E+00  0.22275075001E+03  0.22275075001E+03  0.00000000000E+00 0. -1.
         -1   -1    0    0    0  501 -0.00000000000E+00 -0.00000000000E+00 -0.84589077657E+02  0.84589077657E+02  0.00000000000E+00 0.  1.
         25    2    1    2    0    0 -0.75468169030E+02  0.26306599076E+02  0.98076907940E+02  0.17791510235E+03  0.12508885675E+03 0.  0.
          5    1    3    3  502    0 -0.36530623391E+02 -0.50352543155E+02  0.42202471096E+02  0.75288684503E+02  0.41800000000E+01 0. -1.
         -5    1    3    3    0  502 -0.38937545639E+02  0.76659142231E+02  0.55874436845E+02  0.10262641785E+03  0.41800000000E+01 0. -1.
        -11    1    1    2    0    0  0.59920079953E+02 -0.60690361303E+02  0.29284923822E+02  0.90173957993E+02  0.00000000000E+00 0.  1.
         11    1    1    2    0    0  0.15548089076E+02  0.34383762228E+02  0.10799840595E+02  0.39250767327E+02  0.00000000000E+00 0. -1.
</event>
<event>
 7    1  0.2556591E-009  0.2004026E+03  0.7561462E-02  0.1149400E+00
          1   -1    0    0  501    0  0.00000000000E+00  0.00000000000E+00  0.97947392541E+03  0.97947392541E+03  0.00000000000E+00 0. -1.
         -1   -1    0    0    0  501 -0.00000000000E+00 -0.00000000000E+00 -0.42443038982E+02  0.42443038982E+02  0.00000000000E+00 0.  1.
         25    2    1    2    0    0  0.12885784213E+01  0.16845723205E+03  0.55946059372E+03  0.59751447694E+03  0.12509154554E+03 0.  0.
          5    1    3    3  502    0 -0.38846357641E+02  0.16412916214E+03  0.46689489249E+03  0.49644308274E+03  0.41800000000E+01 0. -1.
         -5    1    3    3    0  502  0.40134936063E+02  0.43280699108E+01  0.92565701232E+02  0.10107139420E+03  0.41800000000E+01 0. -1.
        -11    1    1    2    0    0 -0.32921470844E+02 -0.15261991914E+03  0.27956752154E+03  0.32021034034E+03  0.00000000000E+00 0.  1.
         11    1    1    2    0    0  0.31632892423E+02 -0.15837312910E+02  0.98002771164E+02  0.10419214711E+03  0.00000000000E+00 0. -1.
</event>
<event>
 7    1  0.2556591E-009  0.8566763E+02  0.7561462E-02  0.1313696E+00
         -1   -1    0    0    0  501 -0.00000000000E+00  0.00000000000E+00  0.58869534516E+02  0.58869534516E+02  0.00000000000E+00 0.  1.
          1   -1    0    0  501    0  0.00000000000E+00 -0.00000000000E+00 -0.25091066051E+03  0.25091066051E+03  0.00000000000E+00 0. -1.
         25    2    1    2    0    0 -0.49477421936E+02 -0.38602614929E+00 -0.73800343884E+02  0.15343748932E+03  0.12509359725E+03 0.  0.
          5    1    3    3  502    0 -0.33240937549E+02  0.23038914786E+02 -0.10402200393E+03  0.11168617294E+03  0.41800000000E+01 0. -1.
         -5    1    3    3    0  502 -0.16236484386E+02 -0.23424940936E+02  0.30221660048E+02  0.41751316376E+02  0.41800000000E+01 0. -1.
        -11    1    1    2    0    0 -0.76942917348E+01 -0.34196480958E+02 -0.47528914016E+02  0.59055898120E+02  0.00000000000E+00 0. -1.
         11    1    1    2    0    0  0.57171713670E+02  0.34582507108E+02 -0.70711868093E+02  0.97286807590E+02  0.00000000000E+00 0.  1.
</event>
<event>
 7    1  0.2556591E-009  0.1366820E+03  0.7561462E-02  0.1217865E+00
          2   -1    0    0  501    0  0.00000000000E+00  0.00000000000E+00  0.40306494297E+03  0.40306494297E+03  0.00000000000E+00 0. -1.
         -2   -1    0    0    0  501 -0.00000000000E+00 -0.00000000000E+00 -0.60623935122E+02  0.60623935122E+02  0.00000000000E+00 0.  1.
         25    2    1    2    0    0 -0.10721587325E+03  0.30916677075E+02  0.18479443267E+03  0.24949389812E+03  0.12508852246E+03 0.  0.
          5    1    3    3  502    0 -0.34023731290E+02 -0.26272814734E+02  0.63606987152E+00  0.43194352291E+02  0.41800000000E+01 0.  1.
         -5    1    3    3    0  502 -0.73192141959E+02  0.57189491809E+02  0.18415836280E+03  0.20629954583E+03  0.41800000000E+01 0.  1.
        -11    1    1    2    0    0  0.47853298519E+02  0.26421103763E+02  0.30458246073E+02  0.62575695418E+02  0.00000000000E+00 0.  1.
         11    1    1    2    0    0  0.59362574730E+02 -0.57337780838E+02  0.12718832910E+03  0.15161928455E+03  0.00000000000E+00 0. -1.
</event>
<event>
 7    1  0.2556591E-009  0.1087111E+03  0.7561462E-02  0.1262976E+00
          4   -1    0    0  501    0  0.00000000000E+00  0.00000000000E+00  0.13994608079E+03  0.13994608079E+03  0.00000000000E+00 0. -1.
         -4   -1    0    0    0  501 -0.00000000000E+00 -0.00000000000E+00 -0.12774358665E+03  0.12774358665E+03  0.00000000000E+00 0.  1.
         25    2    1    2    0    0  0.45145810567E+02 -0.38033186919E+02 -0.41427402649E+02  0.14439069020E+03  0.12509106366E+03 0.  0.
          5    1    3    3  502    0 -0.27451131484E+02 -0.35104187805E+02 -0.54422090341E+02  0.70463500752E+02  0.41800000000E+01 0.  1.
         -5    1    3    3    0  502  0.72596942051E+02 -0.29289991138E+01  0.12994687692E+02  0.73927189445E+02  0.41800000000E+01 0.  1.
        -11    1    1    2    0    0 -0.61307976443E+02  0.50537587803E+02  0.62434294985E+02  0.10104829017E+03  0.00000000000E+00 0. -1.
         11    1    1    2    0    0  0.16162165876E+02 -0.12504400884E+02 -0.88043982012E+01  0.22250687067E+02  0.00000000000E+00 0.  1.
</event>
<event>
 7    1  0.2556591E-009  0.1064238E+03  0.7561462E-02  0.1267339E+00
          1   -1    0    0  501    0  0.00000000000E+00  0.00000000000E+00  0.43020721563E+03  0.43020721563E+03  0.00000000000E+00 0. -1.
         -1   -1    0    0    0  501 -0.00000000000E+00 -0.00000000000E+00 -0.71204383286E+02  0.71204383286E+02  0.00000000000E+00 0.  1.
         25    2    1    2    0    0  0.47883121218E+02  0.22513910212E+02  0.74483047351E+01  0.13602676942E+03  0.12509250699E+03 0.  0.
          5    1    3    3  502    0  0.74183103443E+02  0.37296649622E+02  0.39299027816E+02  0.91956831702E+02  0.41800000000E+01 0. -1.
         -5    1    3    3    0  502 -0.26299982225E+02 -0.14782739410E+02 -0.31850723081E+02  0.44069937716E+02  0.41800000000E+01 0. -1.
        -11    1    1    2    0    0  0.78887093629E+01  0.24857049903E+02  0.10587105490E+03  0.10903570484E+03  0.00000000000E+00 0. -1.
         11    1    1    2    0    0 -0.55771830581E+02 -0.47370960115E+02  0.24568347271E+03  0.25634912466E+03  0.00000000000E+00 0.  1.
</event>
<event>
 7    1  0.2556591E-009  0.4239060E+02  0.7561462E-02  0.1491322E+00
         -2   -1    0    0    0  501 -0.00000000000E+00  0.00000000000E+00  0.35024828985E+03  0.35024828985E+03  0.00000000000E+00 0.  1.
          2   -1    0    0  501    0  0.00000000000E+00 -0.00000000000E+00 -0.35930056753E+02  0.35930056753E+02  0.00000000000E+00 0. -1.
         25    2    1    2    0    0  0.20559142475E+02  0.57197142604E+00  0.21065774418E+03  0.24585688407E+03  0.12508363910E+03 0.  0.
          5    1    3    3  502    0  0.21779914386E+02 -0.53856755329E+01  0.22688530130E+03  0.22803022281E+03  0.41800000000E+01 0. -1.
         -5    1    3    3    0  502 -0.12207719109E+01  0.59576469589E+01 -0.16227557120E+02  0.17826661253E+02  0.41800000000E+01 0. -1.
        -11    1    1    2    0    0 -0.35069460315E+02  0.10183340920E+02  0.14705676480E+01  0.36547640803E+02  0.00000000000E+00 0. -1.
         11    1    1    2    0    0  0.14510317839E+02 -0.10755312346E+02  0.10218992128E+03  0.10377382174E+03  0.00000000000E+00 0.  1.
</event>
<event>
 7    1  0.2556591E-009  0.1638561E+03  0.7561462E-02  0.1184411E+00
          2   -1    0    0  501    0  0.00000000000E+00  0.00000000000E+00  0.11418595164E+04  0.11418595164E+04  0.00000000000E+00 0. -1.
         -2   -1    0    0    0  501 -0.00000000000E+00 -0.00000000000E+00 -0.25640354541E+02  0.25640354541E+02  0.00000000000E+00 0.  1.
         25    2    1    2    0    0 -0.93871092165E+02 -0.85612172060E+02  0.47356139380E+03  0.50601187095E+03  0.12508554631E+03 0.  0.
          5    1    3    3  502    0 -0.12150880247E+03 -0.69098219669E+02  0.32272790858E+03  0.35172393779E+03  0.41800000000E+01 0. -1.
         -5    1    3    3    0  502  0.27637710307E+02 -0.16513952391E+02  0.15083348522E+03  0.15428793315E+03  0.41800000000E+01 0. -1.
        -11    1    1    2    0    0  0.97088434178E+02  0.32781167954E+02  0.38165077344E+03  0.39516842218E+03  0.00000000000E+00 0.  1.
         11    1    1    2    0    0 -0.32173420137E+01  0.52831004106E+02  0.26100699466E+03  0.26631957785E+03  0.00000000000E+00 0. -1.
</event>
<event>
 7    1  0.2556591E-009  0.1047189E+03  0.7561462E-02  0.1270675E+00
          2   -1    0    0  501    0  0.00000000000E+00  0.00000000000E+00  0.74511722255E+02  0.74511722255E+02  0.00000000000E+00 0. -1.
         -2   -1    0    0    0  501 -0.00000000000E+00 -0.00000000000E+00 -0.20479364497E+03  0.20479364497E+03  0.00000000000E+00 0.  1.
         25    2    1    2    0    0 -0.44693749572E+02 -0.23622459514E+02 -0.97643158837E+02  0.16654940663E+03  0.12509582941E+03 0.  0.
          5    1    3    3  502    0 -0.78010126541E+02  0.18844313714E+02 -0.64750787993E+02  0.10320283401E+03  0.41800000000E+01 0. -1.
         -5    1    3    3    0  502  0.33316376969E+02 -0.42466773228E+02 -0.32892370844E+02  0.63346572618E+02  0.41800000000E+01 0. -1.
        -11    1    1    2    0    0 -0.10777499724E+02  0.15494084282E+02 -0.50503381229E+02  0.53914864959E+02  0.00000000000E+00 0.  1.
         11    1    1    2    0    0  0.55471249296E+02  0.81283752319E+01  0.17864617352E+02  0.58841095635E+02  0.00000000000E+00 0. -1.
</event>
<event>
 7    1  0.2556591E-009  0.1006869E+03  0.7561462E-02  0.1278858E+00
          4   -1    0    0  501    0  0.00000000000E+00  0.00000000000E+00  0.10977785879E+03  0.10977785879E+03  0.00000000000E+00 0.  1.
         -4   -1    0    0    0  501 -0.00000000000E+00 -0.00000000000E+00 -0.25457592729E+03  0.25457592729E+03  0.00000000000E+00 0. -1.
         25    2    1    2    0    0  0.77904903391E+02 -0.29449103520E+02 -0.18319361597E+03  0.23694564321E+03  0.12508762222E+03 0.  0.
          5    1    3    3  502    0  0.77659019427E+02 -0.35864568235E+02 -0.20049694137E+03  0.21802221550E+03  0.41800000000E+01 0.  1.
         -5    1    3    3    0  502  0.24588396369E+00  0.64154647149E+01  0.17303325399E+02  0.18923427710E+02  0.41800000000E+01 0.  1.
        -11    1    1    2    0    0 -0.12042578034E+02 -0.21606869955E+02  0.36450627630E+02  0.44051433230E+02  0.00000000000E+00 0.  1.
         11    1    1    2    0    0 -0.65862325357E+02  0.51055973475E+02  0.19449198434E+01  0.83356709640E+02  0.00000000000E+00 0. -1.
</event>
<event>
 7    1  0.2556591E-009  0.2407053E+03  0.7561462E-02  0.1119324E+00
         -1   -1    0    0    0  501 -0.00000000000E+00  0.00000000000E+00  0.83111480573E+03  0.83111480573E+03  0.00000000000E+00 0.  1.
          1   -1    0    0  501    0  0.00000000000E+00 -0.00000000000E+00 -0.82313028405E+02  0.82313028405E+02  0.00000000000E+00 0. -1.
         25    2    1    2    0    0 -0.20959995983E+03 -0.89207033734E+02  0.50270660081E+03  0.56590750623E+03  0.12508933243E+03 0.  0.
          5    1    3    3  502    0 -0.10219708915E+03  0.57801512469E+01  0.30428453645E+03  0.32106729310E+03  0.41800000000E+01 0.  1.
         -5    1    3    3    0  502 -0.10740287068E+03 -0.94987184981E+02  0.19842206436E+03  0.24484021313E+03  0.41800000000E+01 0.  1.
        -11    1    1    2    0    0  0.17553975202E+03  0.47846105949E+02  0.14330067722E+03  0.23159995355E+03  0.00000000000E+00 0. -1.
         11    1    1    2    0    0  0.34060207815E+02  0.41360927785E+02  0.10279449929E+03  0.11592037435E+03  0.00000000000E+00 0.  1.
</event>
<event>
 7    1  0.2556591E-009  0.1337805E+03  0.7561462E-02  0.1221952E+00
         -2   -1    0    0    0  501 -0.00000000000E+00  0.00000000000E+00  0.27390954937E+03  0.27390954937E+03  0.00000000000E+00 0.  1.
          2   -1    0    0  501    0  0.00000000000E+00 -0.00000000000E+00 -0.94437737569E+02  0.94437737569E+02  0.00000000000E+00 0. -1.
         25    2    1    2    0    0  0.60882767116E+02 -0.53416461259E+02  0.19564612760E+03  0.24593576647E+03  0.12508782642E+03 0.  0.
          5    1    3    3  502    0  0.68889993948E+02  0.22272762161E+02  0.87968248535E+02  0.11400786092E+03  0.41800000000E+01 0.  1.
         -5    1    3    3    0  502 -0.80072268320E+01 -0.75689223420E+02  0.10767787907E+03  0.13192790555E+03  0.41800000000E+01 0.  1.
        -11    1    1    2    0    0  0.21942366863E+02  0.19350186649E+02 -0.14930980457E+02  0.32845568412E+02  0.00000000000E+00 0. -1.
         11    1    1    2    0    0 -0.82825133979E+02  0.34066274610E+02 -0.12433353472E+01  0.89565952053E+02  0.00000000000E+00 0.  1.
</event>
<event>
 7    1  0.2556591E-009  0.6636552E+02  0.7561462E-02  0.1372907E+00
          2   -1    0    0  501    0  0.00000000000E+00  0.00000000000E+00  0.13712174356E+03  0.13712174356E+03  0.00000000000E+00 0. -1.
         -2   -1    0    0    0  501 -0.00000000000E+00 -0.00000000000E+00 -0.11954082141E+03  0.11954082141E+03  0.00000000000E+00 0.  1.
         25    2    1    2    0    0 -0.41036919437E+02 -0.75605022901E+01  0.58313818847E+02  0.14417989544E+03  0.12508457470E+03 0.  0.
          5    1    3    3  502    0 -0.26379286270E+02 -0.30643149220E+02  0.92007221714E+02  0.10058663224E+03  0.41800000000E+01 0. -1.
         -5    1    3    3    0  502 -0.14657633166E+02  0.23082646930E+02 -0.33693402867E+02  0.43593263196E+02  0.41800000000E+01 0. -1.
        -11    1    1    2    0    0  0.22838423089E+02  0.28602024800E+02 -0.65631807249E+02  0.75147877645E+02  0.00000000000E+00 0.  1.
         11    1    1    2    0    0  0.18198496348E+02 -0.21041522510E+02  0.24898910544E+02  0.37334791886E+02  0.00000000000E+00 0. -1.
</event>
<event>
 7    1  0.2556591E-009  0.7045744E+02  0.7561462E-02  0.1358544E+00
          2   -1    0    0  501    0  0.00000000000E+00  0.00000000000E+00  0.54852894707E+02  0.54852894707E+02  0.00000000000E+00 0. -1.
         -2   -1    0    0    0  501 -0.00000000000E+00 -0.00000000000E+00 -0.29266518709E+03  0.29266518709E+03  0.00000000000E+00 0.  1.
         25    2    1    2    0    0  0.69145103861E+01 -0.37673849268E+02 -0.20197537402E+03  0.24064163405E+03  0.12508882826E+03 0.  0.
          5    1    3    3  502    0  0.33983853316E+02 -0.35488923754E+02 -0.14837749315E+02  0.51497545574E+02  0.41800000000E+01 0. -1.
         -5    1    3    3    0  502 -0.27069342930E+02 -0.21849255148E+01 -0.18713762470E+03  0.18914408848E+03  0.41800000000E+01 0. -1.
        -11    1    1    2    0    0  0.85544841590E+01 -0.10490672216E+02 -0.52028639761E+02  0.53760699011E+02  0.00000000000E+00 0.  1.
         11    1    1    2    0    0 -0.15468994545E+02  0.48164521484E+02  0.16191721396E+02  0.53115748736E+02  0.00000000000E+00 0. -1.
</event>
<event>
 7    1  0.2556591E-009  0.7468347E+02  0.7561462E-02  0.1344854E+00
          1   -1    0    0  501    0  0.00000000000E+00  0.00000000000E+00  0.72430360470E+02  0.72430360470E+02  0.00000000000E+00 0. -1.
         -1   -1    0    0    0  501 -0.00000000000E+00 -0.00000000000E+00 -0.17860282387E+03  0.17860282387E+03  0.00000000000E+00 0.  1.
         25    2    1    2    0    0 -0.57847424596E+01  0.47957326654E+02 -0.21644880964E+02  0.13582997221E+03  0.12509161464E+03 0.  0.
          5    1    3    3  502    0  0.24031500926E+01 -0.11048102363E+02 -0.62385367241E+02  0.63539296045E+02  0.41800000000E+01 0.  1.
         -5    1    3    3    0  502 -0.81878925522E+01  0.59005429017E+02  0.40740486277E+02  0.72290676162E+02  0.41800000000E+01 0.  1.
        -11    1    1    2    0    0  0.31246175104E+02 -0.40326001433E+02 -0.62535008692E+02  0.80704009580E+02  0.00000000000E+00 0.  1.
         11    1    1    2    0    0 -0.25461432644E+02 -0.76313252206E+01 -0.21992573746E+02  0.34499202554E+02  0.00000000000E+00 0. -1.
</event>
<event>
 7    1  0.2556591E-009  0.2013247E+03  0.7561462E-02  0.1148626E+00
         -1   -1    0    0    0  501 -0.00000000000E+00  0.00000000000E+00  0.49878650470E+02  0.49878650470E+02  0.00000000000E+00 0.  1.
          1   -1    0    0  501    0  0.00000000000E+00 -0.00000000000E+00 -0.94656616066E+03  0.94656616066E+03  0.00000000000E+00 0. -1.
         25    2    1    2    0    0 -0.70000377509E+02  0.16929780086E+03 -0.55278956310E+03  0.59563882761E+03  0.12509002220E+03 0.  0.
          5    1    3    3  502    0 -0.86943306909E+02  0.15802507775E+03 -0.36967145170E+03  0.41134598383E+03  0.41800000000E+01 0.  1.
         -5    1    3    3    0  502  0.16942929401E+02  0.11272723106E+02 -0.18311811141E+03  0.18429284378E+03  0.41800000000E+01 0.  1.
        -11    1    1    2    0    0  0.36890576517E+01 -0.11687162911E+03 -0.23913432006E+03  0.26619130314E+03  0.00000000000E+00 0.  1.
         11    1    1    2    0    0  0.66311319857E+02 -0.52426171751E+02 -0.10476362702E+03  0.13461468038E+03  0.00000000000E+00 0. -1.
</event>
<event>
 7    1  0.2556591E-009  0.1096080E+03  0.7561462E-02  0.1261298E+00
         -2   -1    0    0    0  501 -0.00000000000E+00  0.00000000000E+00  0.14479488580E+02  0.14479488580E+02  0.00000000000E+00 0.  1.
          2   -1    0    0  501    0  0.00000000000E+00 -0.00000000000E+00 -0.97820950065E+03  0.97820950065E+03  0.00000000000E+00 0. -1.
         25    2    1    2    0    0  0.21149120826E+02  0.44868017583E+02 -0.51067752652E+03  0.52810865812E+03  0.12508714710E+03 0.  0.
          5    1    3    3  502    0 -0.24808999721E+02  0.64996883375E+02 -0.17002008946E+03  0.18375087628E+03  0.41800000000E+01 0. -1.
         -5    1    3    3    0  502  0.45958120547E+02 -0.20128865792E+02 -0.34065743707E+03  0.34435778184E+03  0.41800000000E+01 0. -1.
        -11    1    1    2    0    0  0.26085617775E+02  0.89390601030E+01 -0.77393779919E+02  0.82159378165E+02  0.00000000000E+00 0.  1.
         11    1    1    2    0    0 -0.47234738602E+02 -0.53807077686E+02 -0.37565870562E+03  0.38242095294E+03  0.00000000000E+00 0. -1.
</event>
<event>
 7    1  0.2556591E-009  0.8327510E+02  0.7561462E-02  0.1320006E+00
         -1   -1    0    0    0  501 -0.00000000000E+00  0.00000000000E+00  0.36388400201E+02  0.36388400201E+02  0.00000000000E+00 0.  1.
          1   -1    0    0  501    0  0.00000000000E+00 -0.00000000000E+00 -0.38094276100E+03  0.38094276100E+03  0.00000000000E+00 0. -1.
         25    2    1    2    0    0 -0.22562402256E+02 -0.38040451900E+01 -0.12603688842E+03  0.17904710041E+03  0.12509609972E+03 0.  0.
          5    1    3    3  502    0 -0.29781358384E+02 -0.30942086158E+02 -0.14064723274E+03  0.14711715903E+03  0.41800000000E+01 0. -1.
         -5    1    3    3    0  502  0.72189561275E+01  0.27138040968E+02  0.14610344323E+02  0.31929941378E+02  0.41800000000E+01 0. -1.
        -11    1    1    2    0    0 -0.17307796401E+02  0.38465414568E+02 -0.98967055238E+02  0.10758078805E+03  0.00000000000E+00 0.  1.
         11    1    1    2    0    0  0.39870198657E+02 -0.34661369378E+02 -0.11955041714E+03  0.13070327275E+03  0.00000000000E+00 0. -1.
</event>
<event>
 7    1  0.2556591E-009  0.1116799E+03  0.7561462E-02  0.1257490E+00
          1   -1    0    0  501    0  0.00000000000E+00  0.00000000000E+00  0.21351599855E+03  0.21351599855E+03  0.00000000000E+00 0. -1.
         -1   -1    0    0    0  501 -0.00000000000E+00 -0.00000000000E+00 -0.81277332978E+02  0.81277332978E+02  0.00000000000E+00 0.  1.
         25    2    1    2    0    0  0.57293697455E+01 -0.50972941921E+02  0.11986688536E+02  0.13572637105E+03  0.12508757177E+03 0.  0.
          5    1    3    3  502    0 -0.41179233718E+02 -0.64328989765E+02  0.31899579404E+02  0.82879453304E+02  0.41800000000E+01 0. -1.
         -5    1    3    3    0  502  0.46908603464E+02  0.13356047844E+02 -0.19912890868E+02  0.52846917750E+02  0.41800000000E+01 0. -1.
        -11    1    1    2    0    0  0.37320730811E+02  0.10365699627E+02  0.75553394169E+02  0.84903474885E+02  0.00000000000E+00 0.  1.
         11    1    1    2    0    0 -0.43050100556E+02  0.40607242294E+02  0.44698582870E+02  0.74163485592E+02  0.00000000000E+00 0. -1.
</event>
<event>
 7    1  0.2556591E-009  0.1675624E+03  0.7561462E-02  0.1180414E+00
          1   -1    0    0  501    0  0.00000000000E+00  0.00000000000E+00  0.23466600967E+02  0.23466600967E+02  0.00000000000E+00 0. -1.
         -1   -1    0    0    0  501 -0.00000000000E+00 -0.00000000000E+00 -0.12272234825E+04  0.12272234825E+04  0.00000000000E+00 0.  1.
         25    2    1    2    0    0 -0.11830507016E+03 -0.48326497374E+02 -0.73047846086E+03  0.75204836346E+03  0.12508564758E+03 0.  0.
          5    1    3    3  502    0 -0.13194676823E+03 -0.72524187542E+02 -0.62496887281E+03  0.64286333836E+03  0.41800000000E+01 0. -1.
         -5    1    3    3    0  502  0.13641698077E+02  0.24197690168E+02 -0.10550958806E+03  0.10918502511E+03  0.41800000000E+01 0. -1.
        -11    1    1    2    0    0  0.68522783441E+02 -0.20449313347E+02 -0.19491638555E+03  0.20761970913E+03  0.00000000000E+00 0.  1.
         11    1    1    2    0    0  0.49782286715E+02  0.68775810721E+02 -0.27836203509E+03  0.29102201084E+03  0.00000000000E+00 0. -1.
</event>
<event>
 7    1  0.2556591E-009  0.1311358E+03  0.7561462E-02  0.1225780E+00
         -2   -1    0    0    0  501 -0.00000000000E+00  0.00000000000E+00  0.14230081039E+03  0.14230081039E+03  0.00000000000E+00 0.  1.
          2   -1    0    0  501    0  0.00000000000E+00 -0.00000000000E+00 -0.18129561730E+03  0.18129561730E+03  0.00000000000E+00 0. -1.
         25    2    1    2    0    0 -0.92302830063E+01 -0.10726305107E+03  0.27447183310E+02  0.16730694862E+03  0.12509079477E+03 0.  0.
          5    1    3    3  502    0  0.37657052818E+02 -0.19557542143E+02  0.49522185978E+02  0.65348836146E+02  0.41800000000E+01 0.  1.
         -5    1    3    3    0  502 -0.46887335824E+02 -0.87705508928E+02 -0.22075002667E+02  0.10195811248E+03  0.41800000000E+01 0.  1.
        -11    1    1    2    0    0  0.11428281149E+02 -0.13056973161E+01  0.16171697001E+02  0.19845257352E+02  0.00000000000E+00 0.  1.
         11    1    1    2    0    0 -0.21979981424E+01  0.10856874839E+03 -0.82613687221E+02  0.13644422171E+03  0.00000000000E+00 0. -1.
</event>
<event>
 7    1  0.2556591E-009  0.1286000E+03  0.7561462E-02  0.1229548E+00
          2   -1    0    0  501    0  0.00000000000E+00  0.00000000000E+00  0.50464349065E+02  0.50464349065E+02  0.00000000000E+00 0. -1.
         -2   -1    0    0    0  501 -0.00000000000E+00 -0.00000000000E+00 -0.50980595964E+03  0.50980595964E+03  0.00000000000E+00 0.  1.
         25    2    1    2    0    0 -0.89403706885E+02  0.24514917666E+02 -0.11824348765E+03  0.19550775985E+03  0.12509099807E+03 0.  0.
          5    1    3    3  502    0 -0.81858140380E+02 -0.18569586664E+02 -0.12543183861E+03  0.15098411583E+03  0.41800000000E+01 0. -1.
         -5    1    3    3    0  502 -0.75455665051E+01  0.43084504330E+02  0.71883509634E+01  0.44523644020E+02  0.41800000000E+01 0. -1.
        -11    1    1    2    0    0  0.24822556217E+02 -0.53083604539E+02 -0.15115112457E+03  0.16211320374E+03  0.00000000000E+00 0. -1.
         11    1    1    2    0    0  0.64581150668E+02  0.28568686872E+02 -0.18994699836E+03  0.20264934512E+03  0.00000000000E+00 0.  1.
</event>
<event>
 7    1  0.2556591E-009  0.9583335E+02  0.7561462E-02  0.1289310E+00
         -1   -1    0    0    0  501 -0.00000000000E+00  0.00000000000E+00  0.56817263896E+02  0.56817263896E+02  0.00000000000E+00 0.  1.
          1   -1    0    0  501    0  0.00000000000E+00 -0.00000000000E+00 -0.23872024867E+03  0.23872024867E+03  0.00000000000E+00 0. -1.
         25    2    1    2    0    0 -0.33632641962E+02  0.29851987679E+02 -0.10306368508E+03  0.16820561300E+03  0.12509480121E+03 0.  0.
          5    1    3    3  502    0 -0.25863888639E+02  0.78006083151E+02 -0.77224697107E+02  0.11284952808E+03  0.41800000000E+01 0. -1.
         -5    1    3    3    0  502 -0.77687533230E+01 -0.48154095472E+02 -0.25838987970E+02  0.55356084925E+02  0.41800000000E+01 0. -1.
        -11    1    1    2    0    0  0.21126828155E+02  0.63996123243E+01  0.14507403043E+02  0.26415197308E+02  0.00000000000E+00 0.  1.
         11    1    1    2    0    0  0.12505813807E+02 -0.36251600004E+02 -0.93346702740E+02  0.10091670226E+03  0.00000000000E+00 0. -1.
</event>
<event>
 7    1  0.2556591E-009  0.1007300E+03  0.7561462E-02  0.1278768E+00
          2   -1    0    0  501    0  0.00000000000E+00  0.00000000000E+00  0.83061041547E+03  0.83061041547E+03  0.00000000000E+00 0. -1.
         -2   -1    0    0    0  501 -0.00000000000E+00 -0.00000000000E+00 -0.16135741466E+02  0.16135741466E+02  0.00000000000E+00 0.  1.
         25    2    1    2    0    0 -0.20105689453E+02 -0.33409100246E+02  0.48156788199E+03  0.49907481826E+03  0.12509053734E+03 0.  0.
          5    1    3    3  502    0 -0.48377115389E+02 -0.54604206120E+02  0.43155028167E+03  0.43769290904E+03  0.41800000000E+01 0. -1.
         -5    1    3    3    0  502  0.28271425935E+02  0.21195105874E+02  0.50017600321E+02  0.61381909218E+02  0.41800000000E+01 0. -1.
        -11    1    1    2    0    0  0.46979075909E+02 -0.35484688328E+01  0.10294475830E+03  0.11321328749E+03  0.00000000000E+00 0.  1.
         11    1    1    2    0    0 -0.26873386455E+02  0.36957569079E+02  0.22996203372E+03  0.23445805118E+03  0.00000000000E+00 0. -1.
</event>
<event>
 7    1  0.2556591E-009  0.2816220E+03  0.7561462E-02  0.1094806E+00
         -1   -1    0    0    0  501 -0.00000000000E+00  0.00000000000E+00  0.64757566892E+02  0.64757566892E+02  0.00000000000E+00 0.  1.
          1   -1    0    0  501    0  0.00000000000E+00 -0.00000000000E+00 -0.12353454613E+04  0.12353454613E+04  0.00000000000E+00 0. -1.
         25    2    1    2    0    0 -0.20495822649E+03 -0.16085039886E+03 -0.61256213833E+03  0.67732052627E+03  0.12509994631E+03 0.  0.
          5    1    3    3  502    0 -0.15708667395E+03 -0.44792298972E+02 -0.34765866015E+03  0.38414396983E+03  0.41800000000E+01 0.  1.
         -5    1    3    3    0  502 -0.47871552537E+02 -0.11605809988E+03 -0.26490347819E+03  0.29317655644E+03  0.41800000000E+01 0.  1.
        -11    1    1    2    0    0  0.19463458228E+03  0.17148891955E+03 -0.54242423428E+03  0.60126127439E+03  0.00000000000E+00 0. -1.
         11    1    1    2    0    0  0.10323644213E+02 -0.10638520692E+02 -0.15601521805E+02  0.21521227543E+02  0.00000000000E+00 0.  1.
</event>
<event>
 7    1  0.3746982E-009  0.4918154E+02  0.7561462E-02  0.1449807E+00
         -1   -1    0    0    0  501 -0.00000000000E+00  0.00000000000E+00  0.43357228903E+02  0.43357228903E+02  0.00000000000E+00 0.  1.
          1   -1    0    0  501    0  0.00000000000E+00 -0.00000000000E+00 -0.38655805397E+03  0.38655805397E+03  0.00000000000E+00 0. -1.
         25    2    1    2    0    0 -0.26530998368E+02  0.90016417486E+01 -0.82599248125E+02  0.15249678472E+03  0.12509080753E+03 0.  0.
          5    1    3    3  502    0 -0.11089318450E+02  0.14866434101E+02 -0.11464083119E+03  0.11620661093E+03  0.41800000000E+01 0.  1.
         -5    1    3    3    0  502 -0.15441679918E+02 -0.58647923524E+01  0.32041583069E+02  0.36290173789E+02  0.41800000000E+01 0.  1.
        -11    1    1    2    0    0 -0.15288794765E+02  0.78965846141E+01 -0.50733727512E+01  0.17939966695E+02  0.00000000000E+00 0.  1.
         11    1    1    2    0    0  0.41819793133E+02 -0.16898226363E+02 -0.25552820419E+03  0.25947853146E+03  0.00000000000E+00 0. -1.
</event>
<event>
 7    1  0.2556591E-009  0.1019012E+03  0.7561462E-02  0.1276348E+00
         -2   -1    0    0    0  501 -0.00000000000E+00  0.00000000000E+00  0.71704914381E+02  0.71704914381E+02  0.00000000000E+00 0.  1.
          2   -1    0    0  501    0  0.00000000000E+00 -0.00000000000E+00 -0.39440154713E+03  0.39440154713E+03  0.00000000000E+00 0. -1.
         25    2    1    2    0    0  0.28117462203E+02 -0.65845211783E+02 -0.32022548643E+03  0.35116547610E+03  0.12508655344E+03 0.  0.
          5    1    3    3  502    0 -0.28130421144E+02 -0.47666531428E+02 -0.26297093821E+03  0.26876496341E+03  0.41800000000E+01 0.  1.
         -5    1    3    3    0  502  0.56247883347E+02 -0.18178680355E+02 -0.57254548216E+02  0.82400512692E+02  0.41800000000E+01 0.  1.
        -11    1    1    2    0    0  0.15901565673E+02  0.16690873139E+02 -0.34579936606E+02  0.41559800922E+02  0.00000000000E+00 0. -1.
         11    1    1    2    0    0 -0.44019027876E+02  0.49154338644E+02  0.32108790288E+02  0.73381184485E+02  0.00000000000E+00 0.  1.
</event>
<event>
 7    1  0.2556591E-009  0.1213482E+03  0.7561462E-02  0.1240889E+00
          3   -1    0    0  501    0  0.00000000000E+00  0.00000000000E+00  0.21034665166E+03  0.21034665166E+03  0.00000000000E+00 0. -1.
         -3   -1    0    0    0  501 -0.00000000000E+00 -0.00000000000E+00 -0.13013245542E+03  0.13013245542E+03  0.00000000000E+00 0.  1.
         25    2    1    2    0    0  0.83086977849E+02  0.50824899782E+02 -0.36583796101E+02  0.16270665177E+03  0.12509382106E+03 0.  0.
          5    1    3    3  502    0  0.10516516843E+03  0.46404459915E+02  0.51097850068E+01  0.11513760834E+03  0.41800000000E+01 0. -1.
         -5    1    3    3    0  502 -0.22078190581E+02  0.44204398669E+01 -0.41693581108E+02  0.47569043437E+02  0.41800000000E+01 0. -1.
        -11    1    1    2    0    0 -0.53766662795E+02 -0.52835495749E+02  0.22004956657E+02  0.78528095333E+02  0.00000000000E+00 0.  1.
         11    1    1    2    0    0 -0.29320315054E+02  0.20105959662E+01  0.94793035689E+02  0.99244359971E+02  0.00000000000E+00 0. -1.
</event>
<event>
 7    1  0.2556591E-009  0.1153035E+03  0.7561462E-02  0.1251052E+00
          1   -1    0    0  501    0  0.00000000000E+00  0.00000000000E+00  0.39870166258E+03  0.39870166258E+03  0.00000000000E+00 0. -1.
         -1   -1    0    0    0  501 -0.00000000000E+00 -0.00000000000E+00 -0.42683037327E+02  0.42683037327E+02  0.00000000000E+00 0.  1.
         25    2    1    2    0    0  0.69445780775E+02  0.64834170021E+01  0.16207231537E+03  0.21628778563E+03  0.12509284407E+03 0.  0.
          5    1    3    3  502    0 -0.32611155566E+02 -0.18758005365E+02  0.47413214237E+02  0.60669889705E+02  0.41800000000E+01 0.  1.
         -5    1    3    3    0  502  0.10205693634E+03  0.25241422367E+02  0.11465910114E+03  0.15561789592E+03  0.41800000000E+01 0.  1.
        -11    1    1    2    0    0 -0.21514828047E+02  0.22817936249E+02  0.10237007410E+02  0.32990034272E+02  0.00000000000E+00 0.  1.
         11    1    1    2    0    0 -0.47930952728E+02 -0.29301353251E+02  0.18370930247E+03  0.19210688000E+03  0.00000000000E+00 0. -1.
</event>
<event>
 7    1  0.2556591E-009  0.1319733E+03  0.7561462E-02  0.1224557E+00
          1   -1    0    0  501    0  0.00000000000E+00  0.00000000000E+00  0.59656979109E+02  0.59656979109E+02  0.00000000000E+00 0. -1.
         -1   -1    0    0    0  501 -0.00000000000E+00 -0.00000000000E+00 -0.30318922757E+03  0.30318922757E+03  0.00000000000E+00 0.  1.
         25    2    1    2    0    0  0.72885178400E+02  0.18110383107E+02 -0.11261178056E+03  0.18430312147E+03  0.12508394084E+03 0.  0.
          5    1    3    3  502    0  0.41980748221E+00  0.60226195721E+02 -0.33861185270E+02  0.69220106596E+02  0.41800000000E+01 0. -1.
         -5    1    3    3    0  502  0.72465370917E+02 -0.42115812614E+02 -0.78750595287E+02  0.11508301487E+03  0.41800000000E+01 0. -1.
        -11    1    1    2    0    0 -0.26699477470E+02  0.38338421173E+02 -0.36808842190E+02  0.59477621831E+02  0.00000000000E+00 0. -1.
         11    1    1    2    0    0 -0.46185700929E+02 -0.56448804280E+02 -0.94111625714E+02  0.11906546338E+03  0.00000000000E+00 0.  1.
</event>
<event>
 7    1  0.2556591E-009  0.1216127E+03  0.7561462E-02  0.1240460E+00
         -2   -1    0    0    0  501 -0.00000000000E+00  0.00000000000E+00  0.22008156398E+02  0.22008156398E+02  0.00000000000E+00 0.  1.
          2   -1    0    0  501    0  0.00000000000E+00 -0.00000000000E+00 -0.79989448688E+03  0.79989448688E+03  0.00000000000E+00 0. -1.
         25    2    1    2    0    0 -0.24323507211E+02 -0.56383449007E+02 -0.54631545185E+03  0.56380670176E+03  0.12508676064E+03 0.  0.
          5    1    3    3  502    0 -0.16894007175E+02  0.37493423956E+02 -0.11212316089E+03  0.11949995785E+03  0.41800000000E+01 0. -1.
         -5    1    3    3    0  502 -0.74295000362E+01 -0.93876872963E+02 -0.43419229096E+03  0.44430674390E+03  0.41800000000E+01 0. -1.
        -11    1    1    2    0    0  0.14266210488E+02  0.80365079957E+02 -0.20619153436E+03  0.22175892243E+03  0.00000000000E+00 0. -1.
         11    1    1    2    0    0  0.10057296724E+02 -0.23981630950E+02 -0.25379344267E+02  0.36337019083E+02  0.00000000000E+00 0.  1.
</event>
<event>
 7    1  0.2556591E-009  0.2179995E+03  0.7561462E-02  0.1135383E+00
         -1   -1    0    0    0  501 -0.00000000000E+00  0.00000000000E+00  0.53279780757E+03  0.53279780757E+03  0.00000000000E+00 0.  1.
          1   -1    0    0  501    0  0.00000000000E+00 -0.00000000000E+00 -0.10768749798E+03  0.10768749798E+03  0.00000000000E+00 0. -1.
         25    2    1    2    0    0  0.16068528853E+03  0.13971523633E+03  0.22103716279E+03  0.33142845198E+03  0.12508909718E+03 0.  0.
          5    1    3    3  502    0  0.11332310162E+03  0.55277737409E+02  0.19295796222E+03  0.23053850264E+03  0.41800000000E+01 0. -1.
         -5    1    3    3    0  502  0.47362186914E+02  0.84437498926E+02  0.28079200567E+02  0.10088994934E+03  0.41800000000E+01 0. -1.
        -11    1    1    2    0    0 -0.12083192795E+03 -0.10403616519E+03  0.19947208246E+03  0.25536834212E+03  0.00000000000E+00 0.  1.
         11    1    1    2    0    0 -0.39853360584E+02 -0.35679071150E+02  0.46010643359E+01  0.53688511443E+02  0.00000000000E+00 0. -1.
</event>
<event>
 7    1  0.2556591E-009  0.1343069E+03  0.7561462E-02  0.1221201E+00
          2   -1    0    0  501    0  0.00000000000E+00  0.00000000000E+00  0.78606728266E+03  0.78606728266E+03  0.00000000000E+00 0. -1.
         -2   -1    0    0    0  501 -0.00000000000E+00 -0.00000000000E+00 -0.91772295715E+02  0.91772295715E+02  0.00000000000E+00 0.  1.
         25    2    1    2    0    0 -0.12566473135E+03  0.99042000969E+01  0.70019580484E+03  0.72236522412E+03  0.12509050331E+03 0.  0.
          5    1    3    3  502    0 -0.56222580955E+00 -0.69554048196E+00  0.35494784661E+03  0.35497358505E+03  0.41800000000E+01 0. -1.
         -5    1    3    3    0  502 -0.12510250554E+03  0.10599740579E+02  0.34524795823E+03  0.36739163907E+03  0.41800000000E+01 0. -1.
        -11    1    1    2    0    0  0.82332244067E+02 -0.34070443031E+02  0.30236118692E+02  0.94093657464E+02  0.00000000000E+00 0. -1.
         11    1    1    2    0    0  0.43332487287E+02  0.24166242934E+02 -0.36136936589E+02  0.61380696787E+02  0.00000000000E+00 0.  1.
</event>
<event>
 7    1  0.2556591E-009  0.2473009E+03  0.7561462E-02  0.1115023E+00
          1   -1    0    0  501    0  0.00000000000E+00  0.00000000000E+00  0.47358650885E+03  0.47358650885E+03  0.00000000000E+00 0. -1.
         -1   -1    0    0    0  501 -0.00000000000E+00 -0.00000000000E+00 -0.16678357511E+03  0.16678357511E+03  0.00000000000E+00 0.  1.
         25    2    1    2    0    0 -0.10337164876E+03  0.20586092337E+03  0.26045961339E+02  0.26342033066E+03  0.12508981159E+03 0.  0.
          5    1    3    3  502    0 -0.22789284900E+02  0.13520968667E+03 -0.32855749290E+02  0.14106021246E+03  0.41800000000E+01 0.  1.
         -5    1    3    3    0  502 -0.80582363855E+02  0.70651236696E+02  0.58901710630E+02  0.12236011820E+03  0.41800000000E+01 0.  1.
        -11    1    1    2    0    0  0.11575765330E+03 -0.20757189245E+03  0.25664972980E+03  0.34979280815E+03  0.00000000000E+00 0.  1.
         11    1    1    2    0    0 -0.12386004543E+02  0.17109690763E+01  0.24107242604E+02  0.27156945146E+02  0.00000000000E+00 0. -1.
</event>
<event>
 7    1  0.2556591E-009  0.1255740E+03  0.7561462E-02  0.1234175E+00
          1   -1    0    0  501    0  0.00000000000E+00  0.00000000000E+00  0.20354262490E+02  0.20354262490E+02  0.00000000000E+00 0. -1.
         -1   -1    0    0    0  501 -0.00000000000E+00 -0.00000000000E+00 -0.87188026801E+03  0.87188026801E+03  0.00000000000E+00 0.  1.
         25    2    1    2    0    0 -0.57597476800E+02  0.32355832747E+02 -0.33719620756E+03  0.36567259390E+03  0.12510313463E+03 0.  0.
          5    1    3    3  502    0 -0.18971808800E+02 -0.48227111912E+02 -0.12709814928E+03  0.13732150525E+03  0.41800000000E+01 0.  1.
         -5    1    3    3    0  502 -0.38625668001E+02  0.80582944659E+02 -0.21009805827E+03  0.22835108865E+03  0.41800000000E+01 0.  1.
        -11    1    1    2    0    0  0.53890673118E+02 -0.60665087619E+02 -0.42827806453E+03  0.43589741691E+03  0.00000000000E+00 0.  1.
         11    1    1    2    0    0  0.37068036821E+01  0.28309254873E+02 -0.86051733433E+02  0.90664519697E+02  0.00000000000E+00 0. -1.
</event>
<event>
 7    1  0.2556591E-009  0.1208197E+03  0.7561462E-02  0.1241751E+00
          1   -1    0    0  501    0  0.00000000000E+00  0.00000000000E+00  0.55742999435E+03  0.55742999435E+03  0.00000000000E+00 0. -1.
         -1   -1    0    0    0  501 -0.00000000000E+00 -0.00000000000E+00 -0.27728228580E+02  0.27728228580E+02  0.00000000000E+00 0.  1.
         25    2    1    2    0    0  0.11561211621E+02  0.58521280124E+02  0.26216657132E+03  0.29653644020E+03  0.12507656617E+03 0.  0.
          5    1    3    3  502    0  0.65511179465E+02  0.23549563560E+02  0.98894844221E+02  0.12101222745E+03  0.41800000000E+01 0.  1.
         -5    1    3    3    0  502 -0.53949967845E+02  0.34971716564E+02  0.16327172710E+03  0.17552421275E+03  0.41800000000E+01 0.  1.
        -11    1    1    2    0    0  0.31131039337E+02 -0.56765412227E+02  0.14335900641E+03  0.15729989941E+03  0.00000000000E+00 0. -1.
         11    1    1    2    0    0 -0.42692250958E+02 -0.17558678964E+01  0.12417618803E+03  0.13132188332E+03  0.00000000000E+00 0.  1.
</event>
<event>
 7    1  0.2556591E-009  0.1152086E+03  0.7561462E-02  0.1251217E+00
         -2   -1    0    0    0  501 -0.00000000000E+00  0.00000000000E+00  0.55802654476E+03  0.55802654476E+03  0.00000000000E+00 0.  1.
          2   -1    0    0  501    0  0.00000000000E+00 -0.00000000000E+00 -0.30664673234E+02  0.30664673234E+02  0.00000000000E+00 0. -1.
         25    2    1    2    0    0  0.43488600412E+02  0.14671122674E+02  0.15913371053E+03  0.20754911138E+03  0.12508635258E+03 0.  0.
          5    1    3    3  502    0  0.77663496243E+02  0.42450702965E+02  0.98455228544E+02  0.13245597479E+03  0.41800000000E+01 0.  1.
         -5    1    3    3    0  502 -0.34174895831E+02 -0.27779580290E+02  0.60678481987E+02  0.75093136587E+02  0.41800000000E+01 0.  1.
        -11    1    1    2    0    0  0.25127562735E+02 -0.14386609585E+02  0.88264085096E+02  0.92891967694E+02  0.00000000000E+00 0.  1.
         11    1    1    2    0    0 -0.68616163147E+02 -0.28451308957E+00  0.27996407590E+03  0.28825013892E+03  0.00000000000E+00 0. -1.
</event>
<event>
 7    1  0.2556591E-009  0.9242310E+02  0.7561462E-02  0.1297088E+00
          1   -1    0    0  501    0  0.00000000000E+00  0.00000000000E+00  0.20000247593E+03  0.20000247593E+03  0.00000000000E+00 0. -1.
         -1   -1    0    0    0  501 -0.00000000000E+00 -0.00000000000E+00 -0.12266818314E+03  0.12266818314E+03  0.00000000000E+00 0.  1.
         25    2    1    2    0    0 -0.23503138348E+02  0.34892240037E+02  0.14700009825E+03  0.19755351854E+03  0.12509395620E+03 0.  0.
          5    1    3    3  502    0 -0.51396150448E+02  0.63922250049E+02  0.12974445019E+03  0.15355361633E+03  0.41800000000E+01 0. -1.
         -5    1    3    3    0  502  0.27893012100E+02 -0.29030010012E+02  0.17255648057E+02  0.43999902217E+02  0.41800000000E+01 0. -1.
        -11    1    1    2    0    0  0.12466168909E+02  0.10020102196E+02 -0.76688328371E+02  0.78338416652E+02  0.00000000000E+00 0.  1.
         11    1    1    2    0    0  0.11036969440E+02 -0.44912342233E+02  0.70225229128E+01  0.46778723874E+02  0.00000000000E+00 0. -1.
</event>
<event>
 7    1  0.2556591E-009  0.9743250E+02  0.7561462E-02  0.1285790E+00
          2   -1    0    0  501    0  0.00000000000E+00  0.00000000000E+00  0.84463145991E+02  0.84463145991E+02  0.00000000000E+00 0. -1.
         -2   -1    0    0    0  501 -0.00000000000E+00 -0.00000000000E+00 -0.30073421693E+03  0.30073421693E+03  0.00000000000E+00 0.  1.
         25    2    1    2    0    0 -0.38384543190E+02 -0.58901203108E+02 -0.22628740244E+03  0.26795197631E+03  0.12509815434E+03 0.  0.
          5    1    3    3  502    0  0.89746552961E+01  0.13404238511E+02  0.77871024677E+01  0.18393732971E+02  0.41800000000E+01 0.  1.
         -5    1    3    3    0  502 -0.47359198486E+02 -0.72305441619E+02 -0.23407450491E+03  0.24955824334E+03  0.41800000000E+01 0.  1.
        -11    1    1    2    0    0 -0.15105298123E+02  0.54827211719E+01 -0.28261880272E+02  0.32510984902E+02  0.00000000000E+00 0.  1.
         11    1    1    2    0    0  0.53489841313E+02  0.53418481936E+02  0.38278211777E+02  0.84734401708E+02  0.00000000000E+00 0. -1.
</event>
<event>
 7    1  0.2556591E-009  0.1405357E+03  0.7561462E-02  0.1212610E+00
          1   -1    0    0  501    0  0.00000000000E+00  0.00000000000E+00  0.29866555195E+03  0.29866555195E+03  0.00000000000E+00 0. -1.
         -1   -1    0    0    0  501 -0.00000000000E+00 -0.00000000000E+00 -0.69402924902E+02  0.69402924902E+02  0.00000000000E+00 0.  1.
         25    2    1    2    0    0  0.76937154007E+02  0.58758597742E+02  0.12210102005E+03  0.19981851494E+03  0.12508749474E+03 0.  0.
          5    1    3    3  502    0  0.89862362532E+02 -0.77194507190E+01  0.67740333583E+02  0.11287630094E+03  0.41800000000E+01 0.  1.
         -5    1    3    3    0  502 -0.12925208525E+02  0.66478048461E+02  0.54360686466E+02  0.86942214003E+02  0.41800000000E+01 0.  1.
        -11    1    1    2    0    0 -0.67921578288E+02 -0.46561668875E+01  0.85462712828E+02  0.10926525510E+03  0.00000000000E+00 0. -1.
         11    1    1    2    0    0 -0.90155757194E+01 -0.54102430855E+02  0.21698894170E+02  0.58984706816E+02  0.00000000000E+00 0.  1.
</event>
<event>
 7    1  0.2556591E-009  0.1090825E+03  0.7561462E-02  0.1262278E+00
          3   -1    0    0  501    0  0.00000000000E+00  0.00000000000E+00  0.64991934355E+03  0.64991934355E+03  0.00000000000E+00 0. -1.
         -3   -1    0    0    0  501 -0.00000000000E+00 -0.00000000000E+00 -0.22761028185E+02  0.22761028185E+02  0.00000000000E+00 0.  1.
         25    2    1    2    0    0 -0.37997675714E+02 -0.30795465691E+02  0.43798267925E+03  0.45811361983E+03  0.12508827797E+03 0.  0.
          5    1    3    3  502    0 -0.76778552512E+02 -0.19394824690E+02  0.17655677790E+03  0.19354811694E+03  0.41800000000E+01 0.  1.
         -5    1    3    3    0  502  0.38780876797E+02 -0.11400641001E+02  0.26142590136E+03  0.26456550289E+03  0.41800000000E+01 0.  1.
        -11    1    1    2    0    0  0.63100764463E+02  0.67416294517E+01  0.95641234612E+02  0.11477979701E+03  0.00000000000E+00 0.  1.
         11    1    1    2    0    0 -0.25103088748E+02  0.24053836240E+02  0.93534401505E+02  0.99786954896E+02  0.00000000000E+00 0. -1.
</event>
<event>
 7    1  0.2556591E-009  0.9429206E+02  0.7561462E-02  0.1292779E+00
          1   -1    0    0  501    0  0.00000000000E+00  0.00000000000E+00  0.30777223674E+03  0.30777223674E+03  0.00000000000E+00 0. -1.
         -1   -1    0    0    0  501 -0.00000000000E+00 -0.00000000000E+00 -0.48066539689E+02  0.48066539689E+02  0.00000000000E+00 0.  1.
         25    2    1    2    0    0 -0.18097666102E+02 -0.48899779784E+02  0.17679020178E+03  0.22275258465E+03  0.12508087202E+03 0.  0.
          5    1    3    3  502    0  0.15190242663E+02  0.34333117090E+02  0.21683954525E+02  0.43556545835E+02  0.41800000000E+01 0.  1.
         -5    1    3    3    0  502 -0.33287908765E+02 -0.83232896873E+02  0.15510624725E+03  0.17919603882E+03  0.41800000000E+01 0.  1.
        -11    1    1    2    0    0 -0.19765180037E+01  0.38331782058E+02 -0.81491946160E+01  0.39238265915E+02  0.00000000000E+00 0.  1.
         11    1    1    2    0    0  0.20074184106E+02  0.10567997726E+02  0.91064689893E+02  0.93847925863E+02  0.00000000000E+00 0. -1.
</event>
<event>
 7    1  0.2556591E-009  0.9279296E+02  0.7561462E-02  0.1296226E+00
          1   -1    0    0  501    0  0.00000000000E+00  0.00000000000E+00  0.18242334170E+03  0.18242334170E+03  0.00000000000E+00 0. -1.
         -1   -1    0    0    0  501 -0.00000000000E+00 -0.00000000000E+00 -0.73491190733E+02  0.73491190733E+02  0.00000000000E+00 0.  1.
         25    2    1    2    0    0 -0.12910864502E+02 -0.13334430724E+02  0.23167137480E+02  0.12857109391E+03  0.12509721206E+03 0.  0.
          5    1    3    3  502    0  0.12613001271E+02  0.52013885042E+02  0.22707236878E+02  0.58289133163E+02  0.41800000000E+01 0.  1.
         -5    1    3    3    0  502 -0.25523865773E+02 -0.65348315766E+02  0.45990060228E+00  0.70281960744E+02  0.41800000000E+01 0.  1.
        -11    1    1    2    0    0 -0.20047299140E+02  0.19640671230E+02 -0.68056915438E+01  0.28878497305E+02  0.00000000000E+00 0.  1.
         11    1    1    2    0    0  0.32958163642E+02 -0.63062405067E+01  0.92570705027E+02  0.98464941218E+02  0.00000000000E+00 0. -1.
</event>
<event>
 7    1  0.2556591E-009  0.8375831E+02  0.7561462E-02  0.1318712E+00
          2   -1    0    0  501    0  0.00000000000E+00  0.00000000000E+00  0.47480194582E+02  0.47480194582E+02  0.00000000000E+00 0. -1.
         -2   -1    0    0    0  501 -0.00000000000E+00 -0.00000000000E+00 -0.56476872577E+03  0.56476872577E+03  0.00000000000E+00 0.  1.
         25    2    1    2    0    0 -0.58531045649E+02  0.31853734816E+01 -0.47942440033E+03  0.49893004143E+03  0.12508957070E+03 0.  0.
          5    1    3    3  502    0 -0.54324837135E+02 -0.23584313531E+02 -0.46336791027E+03  0.46715597015E+03  0.41800000000E+01 0.  1.
         -5    1    3    3    0  502 -0.42062085137E+01  0.26769687013E+02 -0.16056490061E+02  0.31774071283E+02  0.41800000000E+01 0.  1.
        -11    1    1    2    0    0  0.32003466129E+02  0.26039203052E+02 -0.56265234621E+02  0.69771330551E+02  0.00000000000E+00 0.  1.
         11    1    1    2    0    0  0.26527579520E+02 -0.29224576533E+02  0.18401103770E+02  0.43547548366E+02  0.00000000000E+00 0. -1.
</event>
<event>
 7    1  0.2556591E-009  0.1037771E+03  0.7561462E-02  0.1272548E+00
          2   -1    0    0  501    0  0.00000000000E+00  0.00000000000E+00  0.11646669600E+04  0.11646669600E+04  0.00000000000E+00 0. -1.
         -2   -1    0    0    0  501 -0.00000000000E+00 -0.00000000000E+00 -0.14642878799E+02  0.14642878799E+02  0.00000000000E+00 0.  1.
         25    2    1    2    0    0 -0.54722940011E+02 -0.41893797169E+02  0.77948717279E+03  0.79246240800E+03  0.12508687037E+03 0.  0.
          5    1    3    3  502    0 -0.47239410956E+02  0.17095934469E+02  0.62251986862E+03  0.62455767720E+03  0.41800000000E+01 0. -1.
         -5    1    3    3    0  502 -0.74835290550E+01 -0.58989731637E+02  0.15696730418E+03  0.16790473080E+03  0.41800000000E+01 0. -1.
        -11    1    1    2    0    0  0.71400305804E+02  0.34011815636E+02  0.35170113131E+03  0.36048369317E+03  0.00000000000E+00 0. -1.
         11    1    1    2    0    0 -0.16677365793E+02  0.78819815327E+01  0.18835777058E+02  0.26363737597E+02  0.00000000000E+00 0.  1.
</event>
<event>
 7    1  0.2556591E-009  0.1081074E+03  0.7561462E-02  0.1264115E+00
          2   -1    0    0  501    0  0.00000000000E+00  0.00000000000E+00  0.70109266827E+02  0.70109266827E+02  0.00000000000E+00 0.  1.
         -2   -1    0    0    0  501 -0.00000000000E+00 -0.00000000000E+00 -0.29104340970E+03  0.29104340970E+03  0.00000000000E+00 0. -1.
         25    2    1    2    0    0  0.39401396376E+02  0.81263167734E+02 -0.14665757816E+03  0.21286510949E+03  0.12508771779E+03 0.  0.
          5    1    3    3  502    0 -0.17462161205E+02  0.21499404536E+02  0.14671039647E+02  0.31620614695E+02  0.41800000000E+01 0.  1.
         -5    1    3    3    0  502  0.56863557582E+02  0.59763763198E+02 -0.16132861780E+03  0.18124449480E+03  0.41800000000E+01 0.  1.
        -11    1    1    2    0    0  0.10970930418E+02 -0.36850592143E+02 -0.71371664997E+02  0.81069365484E+02  0.00000000000E+00 0. -1.
         11    1    1    2    0    0 -0.50372326795E+02 -0.44412575591E+02 -0.29048997212E+01  0.67218201551E+02  0.00000000000E+00 0.  1.
</event>
<event>
 7    1  0.2556591E-009  0.8522628E+02  0.7561462E-02  0.1314842E+00
         -1   -1    0    0    0  501 -0.00000000000E+00  0.00000000000E+00  0.73699121720E+02  0.73699121720E+02  0.00000000000E+00 0.  1.
          1   -1    0    0  501    0  0.00000000000E+00 -0.00000000000E+00 -0.17738621730E+03  0.17738621730E+03  0.00000000000E+00 0. -1.
         25    2    1    2    0    0 -0.13451828117E+02  0.57198994214E+02 -0.29552246087E+02  0.14132431369E+03  0.12508616938E+03 0.  0.
          5    1    3    3  502    0 -0.35807785247E+02  0.74238503659E+02  0.19347505358E+02  0.84766451344E+02  0.41800000000E+01 0. -1.
         -5    1    3    3    0  502  0.22355957130E+02 -0.17039509445E+02 -0.48899751445E+02  0.56557862342E+02  0.41800000000E+01 0. -1.
        -11    1    1    2    0    0  0.13564719908E+02 -0.38745450842E+02 -0.89517093934E+01  0.42016005143E+02  0.00000000000E+00 0. -1.
         11    1    1    2    0    0 -0.11289179173E+00 -0.18453543372E+02 -0.65183140101E+02  0.67745020193E+02  0.00000000000E+00 0.  1.
</event>
<event>
 7    1  0.2556591E-009  0.1081358E+03  0.7561462E-02  0.1264061E+00
          1   -1    0    0  501    0  0.00000000000E+00  0.00000000000E+00  0.10108649987E+03  0.10108649987E+03  0.00000000000E+00 0. -1.
         -1   -1    0    0    0  501 -0.00000000000E+00 -0.00000000000E+00 -0.15805507784E+03  0.15805507784E+03  0.00000000000E+00 0.  1.
         25    2    1    2    0    0 -0.12752730543E+02 -0.48440836179E+02  0.11305608324E+02  0.13521749449E+03  0.12508719875E+03 0.  0.
          5    1    3    3  502    0 -0.58757857966E+02 -0.58918610813E+02 -0.87613177195E+01  0.83774230292E+02  0.41800000000E+01 0. -1.
         -5    1    3    3    0  502  0.46005127423E+02  0.10477774634E+02  0.20066926043E+02  0.51443264197E+02  0.41800000000E+01 0. -1.
        -11    1    1    2    0    0  0.38549532695E+02  0.45484732157E+02 -0.76219992254E+02  0.96769905185E+02  0.00000000000E+00 0.  1.
         11    1    1    2    0    0 -0.25796802151E+02  0.29561040223E+01  0.79458059638E+01  0.27154178033E+02  0.00000000000E+00 0. -1.
</event>
<event>
 7    1  0.2556591E-009  0.1041271E+03  0.7561462E-02  0.1271849E+00
          2   -1    0    0  501    0  0.00000000000E+00  0.00000000000E+00  0.29474848019E+03  0.29474848019E+03  0.00000000000E+00 0. -1.
         -2   -1    0    0    0  501 -0.00000000000E+00 -0.00000000000E+00 -0.56049774890E+02  0.56049774890E+02  0.00000000000E+00 0.  1.
         25    2    1    2    0    0  0.76249190245E+01  0.10943054274E+02  0.39933366534E+02  0.13199446210E+03  0.12509985785E+03 0.  0.
          5    1    3    3  502    0 -0.58294806946E+02  0.14522845724E+01  0.25168912725E+02  0.63650139161E+02  0.41800000000E+01 0.  1.
         -5    1    3    3    0  502  0.65919725971E+02  0.94907697017E+01  0.14764453809E+02  0.68344322938E+02  0.41800000000E+01 0.  1.
        -11    1    1    2    0    0 -0.14289153768E+02  0.34390248994E+02  0.45292192713E+02  0.58636608548E+02  0.00000000000E+00 0.  1.
         11    1    1    2    0    0  0.66642347435E+01 -0.45333303268E+02  0.15347314605E+03  0.16016718443E+03  0.00000000000E+00 0. -1.
</event>
<event>
 7    1  0.2556591E-009  0.4737668E+02  0.7561462E-02  0.1460027E+00
          1   -1    0    0  501    0  0.00000000000E+00  0.00000000000E+00  0.29323666408E+02  0.29323666408E+02  0.00000000000E+00 0. -1.
         -1   -1    0    0    0  501 -0.00000000000E+00 -0.00000000000E+00 -0.48198604800E+03  0.48198604800E+03  0.00000000000E+00 0.  1.
         25    2    1    2    0    0  0.13091197434E+02  0.40500406213E+02 -0.31678195706E+03  0.34323332527E+03  0.12508654964E+03 0.  0.
          5    1    3    3  502    0  0.11356039436E+02  0.34574059113E+02 -0.32784871897E+03  0.32988873901E+03  0.41800000000E+01 0.  1.
         -5    1    3    3    0  502  0.17351579980E+01  0.59263471004E+01  0.11066761909E+02  0.13344586257E+02  0.41800000000E+01 0.  1.
        -11    1    1    2    0    0 -0.19547104429E+02 -0.15795372959E+02  0.43803941749E+01  0.25510212692E+02  0.00000000000E+00 0. -1.
         11    1    1    2    0    0  0.64559069951E+01 -0.24705033254E+02 -0.14026081870E+03  0.14256617644E+03  0.00000000000E+00 0.  1.
</event>
<event>
 7    1  0.2556591E-009  0.1053627E+03  0.7561462E-02  0.1269407E+00
         -2   -1    0    0    0  501 -0.00000000000E+00  0.00000000000E+00  0.10579995641E+02  0.10579995641E+02  0.00000000000E+00 0.  1.
          2   -1    0    0  501    0  0.00000000000E+00 -0.00000000000E+00 -0.11495778292E+04  0.11495778292E+04  0.00000000000E+00 0. -1.
         25    2    1    2    0    0 -0.11999876934E+02  0.51492164953E+00 -0.72672255656E+03  0.73750550648E+03  0.12507771856E+03 0.  0.
          5    1    3    3  502    0  0.76006300661E+01  0.58397148719E+02 -0.25067535444E+03  0.25753369155E+03  0.41800000000E+01 0.  1.
         -5    1    3    3    0  502 -0.19600507001E+02 -0.57882227070E+02 -0.47604720212E+03  0.47997181493E+03  0.41800000000E+01 0.  1.
        -11    1    1    2    0    0 -0.12373492004E+01 -0.44491335932E+02 -0.15305598584E+03  0.15939618818E+03  0.00000000000E+00 0.  1.
         11    1    1    2    0    0  0.13237226135E+02  0.43976414282E+02 -0.25921929119E+03  0.26325613021E+03  0.00000000000E+00 0. -1.
</event>
<event>
 7    1  0.2556591E-009  0.1099514E+03  0.7561462E-02  0.1260660E+00
         -3   -1    0    0    0  501 -0.00000000000E+00  0.00000000000E+00  0.16452925541E+03  0.16452925541E+03  0.00000000000E+00 0.  1.
          3   -1    0    0  501    0  0.00000000000E+00 -0.00000000000E+00 -0.80150431231E+02  0.80150431231E+02  0.00000000000E+00 0. -1.
         25    2    1    2    0    0 -0.25110799050E+02  0.21825423031E+02  0.62041172691E+02  0.14353469670E+03  0.12508477417E+03 0.  0.
          5    1    3    3  502    0  0.13993617928E+02  0.67443508513E+02  0.37072162247E+02  0.78334320683E+02  0.41800000000E+01 0. -1.
         -5    1    3    3    0  502 -0.39104416978E+02 -0.45618085482E+02  0.24969010445E+02  0.65200376017E+02  0.41800000000E+01 0. -1.
        -11    1    1    2    0    0 -0.21568633068E+02 -0.35926339084E+02  0.30334418833E+02  0.51730887662E+02  0.00000000000E+00 0.  1.
         11    1    1    2    0    0  0.46679432118E+02  0.14100916052E+02 -0.79967673430E+01  0.49414102282E+02  0.00000000000E+00 0. -1.
</event>
<event>
 7    1  0.2556591E-009  0.1179650E+03  0.7561462E-02  0.1246492E+00
         -1   -1    0    0    0  501 -0.00000000000E+00  0.00000000000E+00  0.31172487039E+02  0.31172487039E+02  0.00000000000E+00 0.  1.
          1   -1    0    0  501    0  0.00000000000E+00 -0.00000000000E+00 -0.59203521231E+03  0.59203521231E+03  0.00000000000E+00 0. -1.
         25    2    1    2    0    0 -0.46673035606E+02 -0.48559924129E+02 -0.41844855415E+03  0.44190845421E+03  0.12508977153E+03 0.  0.
          5    1    3    3  502    0  0.33954429983E+02 -0.28244601660E+02 -0.25117191722E+03  0.25505972877E+03  0.41800000000E+01 0.  1.
         -5    1    3    3    0  502 -0.80627465589E+02 -0.20315322470E+02 -0.16727663693E+03  0.18684872544E+03  0.41800000000E+01 0.  1.
        -11    1    1    2    0    0 -0.93194501949E+01  0.51411084212E+02 -0.45247535139E+02  0.69117951126E+02  0.00000000000E+00 0.  1.
         11    1    1    2    0    0  0.55992485801E+02 -0.28511600822E+01 -0.97166635982E+02  0.11218129402E+03  0.00000000000E+00 0. -1.
</event>
<event>
 7    1  0.2556591E-009  0.9931960E+02  0.7561462E-02  0.1281733E+00
         -2   -1    0    0    0  501 -0.00000000000E+00  0.00000000000E+00  0.33381428460E+02  0.33381428460E+02  0.00000000000E+00 0.  1.
          2   -1    0    0  501    0  0.00000000000E+00 -0.00000000000E+00 -0.44744508485E+03  0.44744508485E+03  0.00000000000E+00 0. -1.
         25    2    1    2    0    0 -0.43218732461E+02 -0.30967777908E+02 -0.27792761051E+03  0.30938564141E+03  0.12509538888E+03 0.  0.
          5    1    3    3  502    0  0.22303553989E+02  0.23931737012E+01 -0.10073280567E+01  0.22839941127E+02  0.41800000000E+01 0. -1.
         -5    1    3    3    0  502 -0.65522286450E+02 -0.33360951609E+02 -0.27692028246E+03  0.28654570028E+03  0.41800000000E+01 0. -1.
        -11    1    1    2    0    0  0.62674986267E+02 -0.33094223933E+01 -0.66613271210E+02  0.91522860977E+02  0.00000000000E+00 0.  1.
         11    1    1    2    0    0 -0.19456253806E+02  0.34277200301E+02 -0.69522774668E+02  0.79918010925E+02  0.00000000000E+00 0. -1.
</event>
<event>
 7    1  0.2556591E-009  0.1628773E+03  0.7561462E-02  0.1185486E+00
         -2   -1    0    0    0  501 -0.00000000000E+00  0.00000000000E+00  0.79387494623E+02  0.79387494623E+02  0.00000000000E+00 0.  1.
          2   -1    0    0  501    0  0.00000000000E+00 -0.00000000000E+00 -0.41952495416E+03  0.41952495416E+03  0.00000000000E+00 0. -1.
         25    2    1    2    0    0  0.18764503054E+02  0.12053048526E+03 -0.29083320424E+03  0.33928041239E+03  0.12509013186E+03 0.  0.
          5    1    3    3  502    0  0.66524395897E+02  0.33023861498E+02 -0.13769969041E+03  0.15650798005E+03  0.41800000000E+01 0. -1.
         -5    1    3    3    0  502 -0.47759892843E+02  0.87506623765E+02 -0.15313351383E+03  0.18277243234E+03  0.41800000000E+01 0. -1.
        -11    1    1    2    0    0  0.35562583773E+02 -0.32689637098E+02 -0.11562461097E+02  0.49668906218E+02  0.00000000000E+00 0.  1.
         11    1    1    2    0    0 -0.54327086827E+02 -0.87840848165E+02 -0.37741794199E+02  0.10996313018E+03  0.00000000000E+00 0. -1.
</event>
<event>
 7    1  0.2556591E-009  0.1715297E+03  0.7561462E-02  0.1176262E+00
          2   -1    0    0  501    0  0.00000000000E+00  0.00000000000E+00  0.27423985893E+03  0.27423985893E+03  0.00000000000E+00 0. -1.
         -2   -1    0    0    0  501 -0.00000000000E+00 -0.00000000000E+00 -0.13068101404E+03  0.13068101404E+03  0.00000000000E+00 0.  1.
         25    2    1    2    0    0 -0.14834204682E+03  0.20515523645E+02  0.12278034424E+03  0.23054046988E+03  0.12509055023E+03 0.  0.
          5    1    3    3  502    0  0.27621890212E+01  0.22364245646E+02  0.64622163949E+02  0.68565921893E+02  0.41800000000E+01 0.  1.
         -5    1    3    3    0  502 -0.15110423584E+03 -0.18487220015E+01  0.58158180290E+02  0.16197454799E+03  0.41800000000E+01 0.  1.
        -11    1    1    2    0    0  0.22064683592E+02 -0.35505943225E+02  0.21940025491E+02  0.47211089639E+02  0.00000000000E+00 0.  1.
         11    1    1    2    0    0  0.12627736323E+03  0.14990419580E+02 -0.11615248362E+01  0.12716931345E+03  0.00000000000E+00 0. -1.
</event>
<event>
 7    1  0.2556591E-009  0.1850492E+03  0.7561462E-02  0.1163004E+00
         -2   -1    0    0    0  501 -0.00000000000E+00  0.00000000000E+00  0.84621137958E+03  0.84621137958E+03  0.00000000000E+00 0.  1.
          2   -1    0    0  501    0  0.00000000000E+00 -0.00000000000E+00 -0.47892092658E+02  0.47892092658E+02  0.00000000000E+00 0. -1.
         25    2    1    2    0    0 -0.16204979160E+03 -0.74026039221E+01  0.56113305256E+03  0.59735327116E+03  0.12508275014E+03 0.  0.
          5    1    3    3  502    0  0.14140006686E+02  0.12330043600E+02  0.12619498491E+03  0.12765036773E+03  0.41800000000E+01 0. -1.
         -5    1    3    3    0  502 -0.17618979829E+03 -0.19732647522E+02  0.43493806765E+03  0.46970290343E+03  0.41800000000E+01 0. -1.
        -11    1    1    2    0    0  0.53584806486E+02  0.31870578655E+02  0.11986465514E+03  0.13510958819E+03  0.00000000000E+00 0.  1.
         11    1    1    2    0    0  0.10846498512E+03 -0.24467974733E+02  0.11732157922E+03  0.16164061289E+03  0.00000000000E+00 0. -1.
</event>
<event>
 7    1  0.2556591E-009  0.1104715E+03  0.7561462E-02  0.1259699E+00
         -1   -1    0    0    0  501 -0.00000000000E+00  0.00000000000E+00  0.77892888387E+03  0.77892888387E+03  0.00000000000E+00 0.  1.
          1   -1    0    0  501    0  0.00000000000E+00 -0.00000000000E+00 -0.31067341459E+02  0.31067341459E+02  0.00000000000E+00 0. -1.
         25    2    1    2    0    0 -0.79360393603E+02 -0.46346355393E+02  0.56679137271E+03  0.58766143759E+03  0.12508976107E+03 0.  0.
          5    1    3    3  502    0 -0.61795025083E+02 -0.19012891474E+02  0.96507796976E+02  0.11623830025E+03  0.41800000000E+01 0.  1.
         -5    1    3    3    0  502 -0.17565368521E+02 -0.27333463919E+02  0.47028357573E+03  0.47142313735E+03  0.41800000000E+01 0.  1.
        -11    1    1    2    0    0  0.51576098945E+02 -0.16933407022E+02  0.11283743057E+03  0.12521629284E+03  0.00000000000E+00 0.  1.
         11    1    1    2    0    0  0.27784294658E+02  0.63279762415E+02  0.68232739134E+02  0.97118494895E+02  0.00000000000E+00 0. -1.
</event>
<event>
 7    1  0.2556591E-009  0.1154834E+03  0.7561462E-02  0.1250740E+00
         -1   -1    0    0    0  501 -0.00000000000E+00  0.00000000000E+00  0.29317814519E+03  0.29317814519E+03  0.00000000000E+00 0.  1.
          1   -1    0    0  501    0  0.00000000000E+00 -0.00000000000E+00 -0.66223538345E+02  0.66223538345E+02  0.00000000000E+00 0. -1.
         25    2    1    2    0    0  0.35465870386E+02 -0.77535545035E+02  0.98688634917E+02  0.18070879380E+03  0.12508650123E+03 0.  0.
          5    1    3    3  502    0  0.67843376467E+02 -0.86247263403E+01  0.73308993274E+02  0.10034336316E+03  0.41800000000E+01 0. -1.
         -5    1    3    3    0  502 -0.32377506081E+02 -0.68910818695E+02  0.25379641643E+02  0.80365430647E+02  0.41800000000E+01 0. -1.
        -11    1    1    2    0    0 -0.21572609169E+02  0.60400181662E+02  0.18528050059E+02  0.66759628894E+02  0.00000000000E+00 0. -1.
         11    1    1    2    0    0 -0.13893261218E+02  0.17135363373E+02  0.10973792187E+03  0.11193326083E+03  0.00000000000E+00 0.  1.
</event>
<event>
 7    1  0.2556591E-009  0.2645381E+03  0.7561462E-02  0.1104447E+00
         -2   -1    0    0    0  501 -0.00000000000E+00  0.00000000000E+00  0.43744012629E+03  0.43744012629E+03  0.00000000000E+00 0.  1.
          2   -1    0    0  501    0  0.00000000000E+00 -0.00000000000E+00 -0.17979809269E+03  0.17979809269E+03  0.00000000000E+00 0. -1.
         25    2    1    2    0    0 -0.98325549538E+02  0.23713726608E+03  0.10194510096E+03  0.30322040672E+03  0.12509122585E+03 0.  0.
          5    1    3    3  502    0 -0.10908276072E+03  0.18371968462E+03  0.12070926811E+03  0.24543873168E+03  0.41800000000E+01 0. -1.
         -5    1    3    3    0  502  0.10757211182E+02  0.53417581465E+02 -0.18764167143E+02  0.57781675041E+02  0.41800000000E+01 0. -1.
        -11    1    1    2    0    0  0.25128869459E+02 -0.21740878061E+02  0.57126206559E+02  0.66087285728E+02  0.00000000000E+00 0.  1.
         11    1    1    2    0    0  0.73196680079E+02 -0.21539638802E+03  0.98570726071E+02  0.24793052653E+03  0.00000000000E+00 0. -1.
</event>
<event>
 7    1  0.2556591E-009  0.1166671E+03  0.7561462E-02  0.1248699E+00
         -2   -1    0    0    0  501 -0.00000000000E+00  0.00000000000E+00  0.30088566735E+02  0.30088566735E+02  0.00000000000E+00 0.  1.
          2   -1    0    0  501    0  0.00000000000E+00 -0.00000000000E+00 -0.13324832967E+04  0.13324832967E+04  0.00000000000E+00 0. -1.
         25    2    1    2    0    0 -0.45128793763E+02  0.38059273680E+02 -0.12133826648E+04  0.12212427658E+04  0.12510509778E+03 0.  0.
          5    1    3    3  502    0 -0.41080119792E+02 -0.34215398789E+02 -0.77956491453E+03  0.78140719098E+03  0.41800000000E+01 0. -1.
         -5    1    3    3    0  502 -0.40486739702E+01  0.72274672469E+02 -0.43381775024E+03  0.43983557481E+03  0.41800000000E+01 0. -1.
        -11    1    1    2    0    0 -0.64711407556E+01 -0.53068114887E+02 -0.29176767387E+02  0.60904714394E+02  0.00000000000E+00 0.  1.
         11    1    1    2    0    0  0.51599934518E+02  0.15008841207E+02 -0.59835297789E+02  0.80424383231E+02  0.00000000000E+00 0. -1.
</event>
<event>
 7    1  0.2556591E-009  0.1245863E+03  0.7561462E-02  0.1235717E+00
         -2   -1    0    0    0  501 -0.00000000000E+00  0.00000000000E+00  0.86747049782E+02  0.86747049782E+02  0.00000000000E+00 0. -1.
          2   -1    0    0  501    0  0.00000000000E+00 -0.00000000000E+00 -0.23455299107E+03  0.23455299107E+03  0.00000000000E+00 0.  1.
         25    2    1    2    0    0  0.72894708123E+02 -0.52602337783E+02 -0.82417783179E+02  0.17470308279E+03  0.12509129362E+03 0.  0.
          5    1    3    3  502    0  0.14376902211E+02 -0.64040414877E+02 -0.93097859129E+02  0.11398488421E+03  0.41800000000E+01 0.  1.
         -5    1    3    3    0  502  0.58517805911E+02  0.11438077094E+02  0.10680075951E+02  0.60718198578E+02  0.41800000000E+01 0.  1.
        -11    1    1    2    0    0 -0.36674371328E+02  0.73266941175E+02 -0.65499345036E+02  0.10489622673E+03  0.00000000000E+00 0.  1.
         11    1    1    2    0    0 -0.36220336795E+02 -0.20664603392E+02  0.11118692938E+00  0.41700731329E+02  0.00000000000E+00 0. -1.
</event>
<event>
 7    1  0.2556591E-009  0.1162630E+03  0.7561462E-02  0.1249392E+00
          2   -1    0    0  501    0  0.00000000000E+00  0.00000000000E+00  0.43072002855E+02  0.43072002855E+02  0.00000000000E+00 0. -1.
         -2   -1    0    0    0  501 -0.00000000000E+00 -0.00000000000E+00 -0.46785239757E+03  0.46785239757E+03  0.00000000000E+00 0.  1.
         25    2    1    2    0    0  0.75579142767E+01 -0.58643779742E+02 -0.10784441324E+03  0.17542505915E+03  0.12508924390E+03 0.  0.
          5    1    3    3  502    0  0.46694096949E+02  0.18482235502E+02 -0.28032281671E+02  0.57664659322E+02  0.41800000000E+01 0. -1.
         -5    1    3    3    0  502 -0.39136182673E+02 -0.77126015244E+02 -0.79812131565E+02  0.11776039982E+03  0.41800000000E+01 0. -1.
        -11    1    1    2    0    0 -0.41240486227E+02  0.37745090528E+02 -0.26113366026E+03  0.26705104023E+03  0.00000000000E+00 0.  1.
         11    1    1    2    0    0  0.33682571951E+02  0.20898689214E+02 -0.55802321217E+02  0.68448301054E+02  0.00000000000E+00 0. -1.
</event>
<event>
 7    1  0.2556591E-009  0.9010378E+02  0.7561462E-02  0.1302601E+00
         -1   -1    0    0    0  501 -0.00000000000E+00  0.00000000000E+00  0.28274618070E+02  0.28274618070E+02  0.00000000000E+00 0.  1.
          1   -1    0    0  501    0  0.00000000000E+00 -0.00000000000E+00 -0.61492970178E+03  0.61492970178E+03  0.00000000000E+00 0. -1.
         25    2    1    2    0    0 -0.57309220359E+02  0.42013555645E+02 -0.34981143160E+03  0.37824005340E+03  0.12509202502E+03 0.  0.
          5    1    3    3  502    0 -0.74616351377E+02  0.41383901786E+02 -0.11763562478E+03  0.14538170393E+03  0.41800000000E+01 0.  1.
         -5    1    3    3    0  502  0.17307131018E+02  0.62965385858E+00 -0.23217580682E+03  0.23285834947E+03  0.41800000000E+01 0.  1.
        -11    1    1    2    0    0  0.21234648302E+02 -0.33880662458E+02 -0.19480911745E+02  0.44478258728E+02  0.00000000000E+00 0.  1.
         11    1    1    2    0    0  0.36074572057E+02 -0.81328931869E+01 -0.21736274036E+03  0.22048600772E+03  0.00000000000E+00 0. -1.
</event>
<event>
 7    1  0.2556591E-009  0.1582776E+03  0.7561462E-02  0.1190655E+00
          1   -1    0    0  501    0  0.00000000000E+00  0.00000000000E+00  0.83802578206E+03  0.83802578206E+03  0.00000000000E+00 0. -1.
         -1   -1    0    0    0  501 -0.00000000000E+00 -0.00000000000E+00 -0.34009280376E+02  0.34009280376E+02  0.00000000000E+00 0.  1.
         25    2    1    2    0    0 -0.11231158282E+03 -0.48658068776E+02  0.54002750155E+03  0.56767921659E+03  0.12509392961E+03 0.  0.
          5    1    3    3  502    0 -0.75095004080E+02 -0.88867842119E+02  0.30894273347E+03  0.33015123499E+03  0.41800000000E+01 0. -1.
         -5    1    3    3    0  502 -0.37216578741E+02  0.40209773343E+02  0.23108476808E+03  0.23752798160E+03  0.41800000000E+01 0. -1.
        -11    1    1    2    0    0  0.13367771090E+02  0.44158688873E+02  0.47156749411E+02  0.65973071187E+02  0.00000000000E+00 0.  1.
         11    1    1    2    0    0  0.98943811730E+02  0.44993799030E+01  0.21683225072E+03  0.23838277466E+03  0.00000000000E+00 0. -1.
</event>
<event>
 7    1  0.2694022E-009  0.1031115E+03  0.7561462E-02  0.1273886E+00
          1   -1    0    0  501    0  0.00000000000E+00  0.00000000000E+00  0.85215651402E+03  0.85215651402E+03  0.00000000000E+00 0. -1.
         -1   -1    0    0    0  501 -0.00000000000E+00 -0.00000000000E+00 -0.29632438131E+02  0.29632438131E+02  0.00000000000E+00 0.  1.
         25    2    1    2    0    0 -0.44801047705E+02  0.44564271518E+02  0.71257315205E+03  0.72622361037E+03  0.12508847693E+03 0.  0.
          5    1    3    3  502    0 -0.72733250152E+01  0.80857459552E+02  0.53318333851E+03  0.53934476440E+03  0.41800000000E+01 0.  1.
         -5    1    3    3    0  502 -0.37527722690E+02 -0.36293188034E+02  0.17938981355E+03  0.18687884597E+03  0.41800000000E+01 0.  1.
        -11    1    1    2    0    0  0.25645718915E+02 -0.18109598482E+01 -0.93803268269E+01  0.27367371185E+02  0.00000000000E+00 0.  1.
         11    1    1    2    0    0  0.19155328790E+02 -0.42753311670E+02  0.11933125067E+03  0.12819797060E+03  0.00000000000E+00 0. -1.
</event>
<event>
 7    1  0.2556591E-009  0.1381571E+03  0.7561462E-02  0.1215831E+00
         -2   -1    0    0    0  501 -0.00000000000E+00  0.00000000000E+00  0.41198815390E+02  0.41198815390E+02  0.00000000000E+00 0.  1.
          2   -1    0    0  501    0  0.00000000000E+00 -0.00000000000E+00 -0.55044472049E+03  0.55044472049E+03  0.00000000000E+00 0. -1.
         25    2    1    2    0    0 -0.83045017726E+02  0.34482779057E+02 -0.36517492741E+03  0.39633900839E+03  0.12508535061E+03 0.  0.
          5    1    3    3  502    0 -0.42810726435E+01  0.67103685709E+02 -0.13567465919E+03  0.15148042040E+03  0.41800000000E+01 0. -1.
         -5    1    3    3    0  502 -0.78763945082E+02 -0.32620906653E+02 -0.22950026823E+03  0.24485858799E+03  0.41800000000E+01 0. -1.
        -11    1    1    2    0    0  0.13521263491E+01 -0.41568329438E+02 -0.18941114492E+02  0.45700329060E+02  0.00000000000E+00 0. -1.
         11    1    1    2    0    0  0.81692891376E+02  0.70855503818E+01 -0.12512986319E+03  0.14960419843E+03  0.00000000000E+00 0.  1.
</event>
<event>
 7    1  0.2556591E-009  0.3096159E+03  0.7561462E-02  0.1080530E+00
         -2   -1    0    0    0  501 -0.00000000000E+00  0.00000000000E+00  0.10653391918E+03  0.10653391918E+03  0.00000000000E+00 0.  1.
          2   -1    0    0  501    0  0.00000000000E+00 -0.00000000000E+00 -0.12192497763E+04  0.12192497763E+04  0.00000000000E+00 0. -1.
         25    2    1    2    0    0  0.27087547376E+03  0.13693090285E+03 -0.85895200033E+03  0.91954881571E+03  0.12509153110E+03 0.  0.
          5    1    3    3  502    0  0.10145971689E+03  0.82405645283E+02 -0.21690806172E+03  0.25328115636E+03  0.41800000000E+01 0. -1.
         -5    1    3    3    0  502  0.16941575687E+03  0.54525257570E+02 -0.64204393861E+03  0.66626765935E+03  0.41800000000E+01 0. -1.
        -11    1    1    2    0    0 -0.75212670206E+02 -0.72418087320E+02 -0.12670643575E+03  0.16418235590E+03  0.00000000000E+00 0. -1.
         11    1    1    2    0    0 -0.19566280355E+03 -0.64512815533E+02 -0.12705742102E+03  0.24205252384E+03  0.00000000000E+00 0.  1.
</event>
<event>
 7    1  0.2556591E-009  0.9074640E+02  0.7561462E-02  0.1301054E+00
         -1   -1    0    0    0  501 -0.00000000000E+00  0.00000000000E+00  0.60786038036E+03  0.60786038036E+03  0.00000000000E+00 0.  1.
          1   -1    0    0  501    0  0.00000000000E+00 -0.00000000000E+00 -0.17874056169E+02  0.17874056169E+02  0.00000000000E+00 0. -1.
         25    2    1    2    0    0  0.19625693132E+01 -0.11672078433E+02  0.43719380784E+03  0.45488841325E+03  0.12507978973E+03 0.  0.
          5    1    3    3  502    0  0.13680572085E+02 -0.57031020469E+02  0.35787487293E+03  0.36267284490E+03  0.41800000000E+01 0.  1.
         -5    1    3    3    0  502 -0.11718002772E+02  0.45358942036E+02  0.79318934907E+02  0.92215568351E+02  0.41800000000E+01 0.  1.
        -11    1    1    2    0    0 -0.25028681904E+02 -0.23016897081E+02  0.56732834176E+02  0.66142474574E+02  0.00000000000E+00 0. -1.
         11    1    1    2    0    0  0.23066112591E+02  0.34688975514E+02  0.96059682174E+02  0.10470354871E+03  0.00000000000E+00 0.  1.
</event>
<event>
 7    1  0.2556591E-009  0.1192189E+03  0.7561462E-02  0.1244391E+00
         -1   -1    0    0    0  501 -0.00000000000E+00  0.00000000000E+00  0.22834211737E+02  0.22834211737E+02  0.00000000000E+00 0.  1.
          1   -1    0    0  501    0  0.00000000000E+00 -0.00000000000E+00 -0.82428278310E+03  0.82428278310E+03  0.00000000000E+00 0. -1.
         25    2    1    2    0    0  0.29227463206E+02  0.70110005026E+02 -0.35520559100E+03  0.38417115700E+03  0.12508720393E+03 0.  0.
          5    1    3    3  502    0  0.18890159223E+02  0.10145766051E+03 -0.19624419113E+03  0.22176507828E+03  0.41800000000E+01 0. -1.
         -5    1    3    3    0  502  0.10337303983E+02 -0.31347655487E+02 -0.15896139986E+03  0.16240607872E+03  0.41800000000E+01 0. -1.
        -11    1    1    2    0    0 -0.22279330661E+01  0.13673509506E+02 -0.81005939439E+01  0.16048307394E+02  0.00000000000E+00 0.  1.
         11    1    1    2    0    0 -0.26999530140E+02 -0.83783514532E+02 -0.43814238642E+03  0.44689753044E+03  0.00000000000E+00 0. -1.
</event>
<event>
 7    1  0.2556591E-009  0.1402564E+03  0.7561462E-02  0.1212984E+00
          2   -1    0    0  501    0  0.00000000000E+00  0.00000000000E+00  0.31624267607E+03  0.31624267607E+03  0.00000000000E+00 0. -1.
         -2   -1    0    0    0  501 -0.00000000000E+00 -0.00000000000E+00 -0.11125505420E+03  0.11125505420E+03  0.00000000000E+00 0.  1.
         25    2    1    2    0    0 -0.18257314576E+02 -0.13670716487E+03  0.17895694812E+03  0.25825525786E+03  0.12509200800E+03 0.  0.
          5    1    3    3  502    0 -0.10296496651E+02 -0.11916182789E+03  0.53214085832E+02  0.13097622074E+03  0.41800000000E+01 0. -1.
         -5    1    3    3    0  502 -0.79608179241E+01 -0.17545336985E+02  0.12574286229E+03  0.12727903712E+03  0.41800000000E+01 0. -1.
        -11    1    1    2    0    0 -0.46605819913E+01  0.77359421375E+02 -0.31320054667E+02  0.83589155542E+02  0.00000000000E+00 0.  1.
         11    1    1    2    0    0  0.22917896567E+02  0.59347743499E+02  0.57350728407E+02  0.85653316866E+02  0.00000000000E+00 0. -1.
</event>
<event>
 7    1  0.2556591E-009  0.1266895E+03  0.7561462E-02  0.1232452E+00
          1   -1    0    0  501    0  0.00000000000E+00  0.00000000000E+00  0.30823931466E+03  0.30823931466E+03  0.00000000000E+00 0. -1.
         -1   -1    0    0    0  501 -0.00000000000E+00 -0.00000000000E+00 -0.56724040570E+02  0.56724040570E+02  0.00000000000E+00 0.  1.
         25    2    1    2    0    0  0.43852924465E+00 -0.75330542193E+02  0.15032496159E+03  0.20957112143E+03  0.12509027925E+03 0.  0.
          5    1    3    3  502    0 -0.94195366886E+01  0.29442911127E+02  0.71538344156E+02  0.78043704241E+02  0.41800000000E+01 0.  1.
         -5    1    3    3    0  502  0.98580659332E+01 -0.10477345332E+03  0.78786617436E+02  0.13152741719E+03  0.41800000000E+01 0.  1.
        -11    1    1    2    0    0 -0.29734205639E+02 -0.60755667875E+01  0.35868799947E+02  0.46985171133E+02  0.00000000000E+00 0. -1.
         11    1    1    2    0    0  0.29295676394E+02  0.81406108981E+02  0.65321512550E+02  0.10840706267E+03  0.00000000000E+00 0.  1.
</event>
<event>
 7    1  0.2556591E-009  0.2675582E+03  0.7561462E-02  0.1102685E+00
         -4   -1    0    0    0  501 -0.00000000000E+00  0.00000000000E+00  0.21955490634E+03  0.21955490634E+03  0.00000000000E+00 0.  1.
          4   -1    0    0  501    0  0.00000000000E+00 -0.00000000000E+00 -0.38633285640E+03  0.38633285640E+03  0.00000000000E+00 0. -1.
         25    2    1    2    0    0 -0.25723282685E+03 -0.59354369479E+02 -0.26523956447E+02  0.29333063168E+03  0.12509065045E+03 0.  0.
          5    1    3    3  502    0 -0.20211411664E+03 -0.45597853337E+02 -0.73099258508E+02  0.21975043656E+03  0.41800000000E+01 0.  1.
         -5    1    3    3    0  502 -0.55118710208E+02 -0.13756516142E+02  0.46575302061E+02  0.73580195117E+02  0.41800000000E+01 0.  1.
        -11    1    1    2    0    0  0.46648380721E+02 -0.12700969769E+02  0.20372437643E+01  0.48389424662E+02  0.00000000000E+00 0. -1.
         11    1    1    2    0    0  0.21058444613E+03  0.72055339248E+02 -0.14229123738E+03  0.26416770639E+03  0.00000000000E+00 0.  1.
</event>
<event>
 7    1  0.2556591E-009  0.1365444E+03  0.7561462E-02  0.1218056E+00
          1   -1    0    0  501    0  0.00000000000E+00  0.00000000000E+00  0.36523928755E+03  0.36523928755E+03  0.00000000000E+00 0. -1.
         -1   -1    0    0    0  501 -0.00000000000E+00 -0.00000000000E+00 -0.74035535035E+02  0.74035535035E+02  0.00000000000E+00 0.  1.
         25    2    1    2    0    0  0.12284387398E+03 -0.77945288254E+01  0.16986954363E+03  0.24424170839E+03  0.12508788195E+03 0.  0.
          5    1    3    3  502    0  0.13157768604E+03 -0.14832709101E+02  0.18335741508E+03  0.22620811389E+03  0.41800000000E+01 0. -1.
         -5    1    3    3    0  502 -0.87338120575E+01  0.70381802759E+01 -0.13487871449E+02  0.18033594508E+02  0.41800000000E+01 0. -1.
        -11    1    1    2    0    0 -0.62969158488E+02  0.22705921475E+02  0.99136086512E+01  0.67667964556E+02  0.00000000000E+00 0.  1.
         11    1    1    2    0    0 -0.59874715491E+02 -0.14911392649E+02  0.11142060023E+03  0.12736514964E+03  0.00000000000E+00 0. -1.
</event>
<event>
 7    1  0.2556591E-009  0.7977344E+02  0.7561462E-02  0.1329696E+00
         -2   -1    0    0    0  501 -0.00000000000E+00  0.00000000000E+00  0.21693827103E+02  0.21693827103E+02  0.00000000000E+00 0.  1.
          2   -1    0    0  501    0  0.00000000000E+00 -0.00000000000E+00 -0.83675278767E+03  0.83675278767E+03  0.00000000000E+00 0. -1.
         25    2    1    2    0    0 -0.75852352947E+02 -0.20403716549E+00 -0.52242591392E+03  0.54252177713E+03  0.12508965603E+03 0.  0.
          5    1    3    3  502    0 -0.49002532131E+02 -0.15253911112E+02 -0.60050502956E+02  0.79104141894E+02  0.41800000000E+01 0. -1.
         -5    1    3    3    0  502 -0.26849820815E+02  0.15049873947E+02 -0.46237541097E+03  0.46341763524E+03  0.41800000000E+01 0. -1.
        -11    1    1    2    0    0  0.18868795548E+02  0.57866269285E+01 -0.21502312288E+01  0.19852959249E+02  0.00000000000E+00 0.  1.
         11    1    1    2    0    0  0.56983557399E+02 -0.55825897630E+01 -0.29048281541E+03  0.29607187839E+03  0.00000000000E+00 0. -1.
</event>
<event>
 7    1  0.2556591E-009  0.3418344E+02  0.7561462E-02  0.1555974E+00
         -1   -1    0    0    0  501 -0.00000000000E+00  0.00000000000E+00  0.14136677726E+03  0.14136677726E+03  0.00000000000E+00 0.  1.
          1   -1    0    0  501    0  0.00000000000E+00 -0.00000000000E+00 -0.85768466224E+02  0.85768466224E+02  0.00000000000E+00 0. -1.
         25    2    1    2    0    0 -0.20551745192E+02 -0.15652353916E+02  0.44308918850E+02  0.13520572949E+03  0.12509971457E+03 0.  0.
          5    1    3    3  502    0 -0.24699915111E+02 -0.20539872370E+02  0.86478659567E+02  0.92347187960E+02  0.41800000000E+01 0.  1.
         -5    1    3    3    0  502  0.41481699194E+01  0.48875184542E+01 -0.42169740717E+02  0.42858541534E+02  0.41800000000E+01 0.  1.
        -11    1    1    2    0    0  0.80874424933E+01  0.13401795458E+02  0.49373033136E+02  0.51794895971E+02  0.00000000000E+00 0.  1.
         11    1    1    2    0    0  0.12464302698E+02  0.22505584577E+01 -0.38083640953E+02  0.40134618017E+02  0.00000000000E+00 0. -1.
</event>
<event>
 7    1  0.2556591E-009  0.2477418E+03  0.7561462E-02  0.1114740E+00
          2   -1    0    0  501    0  0.00000000000E+00  0.00000000000E+00  0.46000415529E+03  0.46000415529E+03  0.00000000000E+00 0. -1.
         -2   -1    0    0    0  501 -0.00000000000E+00 -0.00000000000E+00 -0.16298906702E+03  0.16298906702E+03  0.00000000000E+00 0.  1.
         25    2    1    2    0    0 -0.21155532450E+03 -0.11820055459E+03  0.78858216089E+02  0.28388776706E+03  0.12508644855E+03 0.  0.
          5    1    3    3  502    0 -0.18470869212E+03 -0.71842884485E+02  0.10478878933E+03  0.22422502930E+03  0.41800000000E+01 0.  1.
         -5    1    3    3    0  502 -0.26846632380E+02 -0.46357670101E+02 -0.25930573244E+02  0.59662737752E+02  0.41800000000E+01 0.  1.
        -11    1    1    2    0    0  0.13032861135E+03  0.59313075607E+02  0.68002418780E+02  0.15851787544E+03  0.00000000000E+00 0.  1.
         11    1    1    2    0    0  0.81226713150E+02  0.58887478978E+02  0.15015445339E+03  0.18058757982E+03  0.00000000000E+00 0. -1.
</event>
<event>
 7    1  0.2556591E-009  0.1695892E+03  0.7561462E-02  0.1178277E+00
          1   -1    0    0  501    0  0.00000000000E+00  0.00000000000E+00  0.99409656987E+03  0.99409656987E+03  0.00000000000E+00 0. -1.
         -1   -1    0    0    0  501 -0.00000000000E+00 -0.00000000000E+00 -0.35717755194E+02  0.35717755194E+02  0.00000000000E+00 0.  1.
         25    2    1    2    0    0 -0.11825983881E+03 -0.95341866697E+02  0.56561080597E+03  0.59886424546E+03  0.12508932664E+03 0.  0.
          5    1    3    3  502    0 -0.68692739453E+02 -0.11472861131E+03  0.47706218921E+03  0.49546659976E+03  0.41800000000E+01 0. -1.
         -5    1    3    3    0  502 -0.49567099353E+02  0.19386744615E+02  0.88548616760E+02  0.10339764569E+03  0.41800000000E+01 0. -1.
        -11    1    1    2    0    0  0.20287586776E+02  0.13772783072E+02  0.82844570780E+01  0.25882580239E+02  0.00000000000E+00 0.  1.
         11    1    1    2    0    0  0.97972252030E+02  0.81569083626E+02  0.38448355162E+03  0.40506749936E+03  0.00000000000E+00 0. -1.
</event>
<event>
 7    1  0.2556591E-009  0.7704553E+02  0.7561462E-02  0.1337651E+00
          2   -1    0    0  501    0  0.00000000000E+00  0.00000000000E+00  0.92665179243E+03  0.92665179243E+03  0.00000000000E+00 0.  1.
         -2   -1    0    0    0  501 -0.00000000000E+00 -0.00000000000E+00 -0.13058420262E+02  0.13058420262E+02  0.00000000000E+00 0. -1.
         25    2    1    2    0    0 -0.26856517362E+02 -0.74178984022E+00  0.57645546239E+03  0.59048524137E+03  0.12510034927E+03 0.  0.
          5    1    3    3  502    0 -0.13278578326E+02 -0.28837008210E+02  0.32518435264E+02  0.45637864946E+02  0.41800000000E+01 0. -1.
         -5    1    3    3    0  502 -0.13577939037E+02  0.28095218370E+02  0.54393702712E+03  0.54484737643E+03  0.41800000000E+01 0. -1.
        -11    1    1    2    0    0 -0.29565015846E+01 -0.39996089262E+02  0.13138707777E+03  0.13737173021E+03  0.00000000000E+00 0.  1.
         11    1    1    2    0    0  0.29813018947E+02  0.40737879102E+02  0.20575083201E+03  0.21185324110E+03  0.00000000000E+00 0. -1.
</event>
<event>
 7    1  0.2556591E-009  0.6749442E+02  0.7561462E-02  0.1368827E+00
          2   -1    0    0  501    0  0.00000000000E+00  0.00000000000E+00  0.20154705626E+03  0.20154705626E+03  0.00000000000E+00 0. -1.
         -2   -1    0    0    0  501 -0.00000000000E+00 -0.00000000000E+00 -0.70934014428E+02  0.70934014428E+02  0.00000000000E+00 0.  1.
         25    2    1    2    0    0  0.29071370727E+02  0.38226433094E+02  0.71844271179E+02  0.15203862552E+03  0.12509092519E+03 0.  0.
          5    1    3    3  502    0  0.29675749062E+02  0.11425751619E+01 -0.30697305198E+02  0.42915644080E+02  0.41800000000E+01 0. -1.
         -5    1    3    3    0  502 -0.60437833514E+00  0.37083857932E+02  0.10254157638E+03  0.10912298144E+03  0.41800000000E+01 0. -1.
        -11    1    1    2    0    0 -0.42227081146E+02 -0.25273116534E+02 -0.91528756880E+01  0.50056287665E+02  0.00000000000E+00 0.  1.
         11    1    1    2    0    0  0.13155710418E+02 -0.12953316560E+02  0.67921646344E+02  0.70386157507E+02  0.00000000000E+00 0. -1.
</event>
<event>
 7    1  0.2556591E-009  0.9456954E+02  0.7561462E-02  0.1292149E+00
          2   -1    0    0  501    0  0.00000000000E+00  0.00000000000E+00  0.26565466827E+03  0.26565466827E+03  0.00000000000E+00 0. -1.
         -2   -1    0    0    0  501 -0.00000000000E+00 -0.00000000000E+00 -0.52115871697E+02  0.52115871697E+02  0.00000000000E+00 0.  1.
         25    2    1    2    0    0 -0.20991113332E+02 -0.42876920528E+02  0.16779545053E+03  0.21466952720E+03  0.12509450642E+03 0.  0.
          5    1    3    3  502    0  0.50741490875E+02 -0.28024447641E+01  0.74499526100E+02  0.90278482387E+02  0.41800000000E+01 0. -1.
         -5    1    3    3    0  502 -0.71732604207E+02 -0.40074475764E+02  0.93295924427E+02  0.12439104481E+03  0.41800000000E+01 0. -1.
        -11    1    1    2    0    0  0.39977518740E+01  0.37980023146E+02 -0.14092045637E+02  0.40706878147E+02  0.00000000000E+00 0.  1.
         11    1    1    2    0    0  0.16993361458E+02  0.48968973817E+01  0.59835391684E+02  0.62394134625E+02  0.00000000000E+00 0. -1.
</event>
<event>
 7    1  0.2556591E-009  0.2094793E+03  0.7561462E-02  0.1141979E+00
          2   -1    0    0  501    0  0.00000000000E+00  0.00000000000E+00  0.29211224612E+03  0.29211224612E+03  0.00000000000E+00 0. -1.
         -2   -1    0    0    0  501 -0.00000000000E+00 -0.00000000000E+00 -0.22271595263E+03  0.22271595263E+03  0.00000000000E+00 0.  1.
         25    2    1    2    0    0 -0.44288196346E+02  0.20027744033E+03 -0.78906855983E+02  0.25287592099E+03  0.12508973600E+03 0.  0.
          5    1    3    3  502    0 -0.42009542547E+02  0.12972969593E+03  0.12856497005E+02  0.13703049874E+03  0.41800000000E+01 0.  1.
         -5    1    3    3    0  502 -0.22786537996E+01  0.70547744400E+02 -0.91763352988E+02  0.11584542224E+03  0.41800000000E+01 0.  1.
        -11    1    1    2    0    0  0.32705653491E+02 -0.42524998455E+02  0.16698800194E+02  0.56186165484E+02  0.00000000000E+00 0.  1.
         11    1    1    2    0    0  0.11582542856E+02 -0.15775244187E+03  0.13160434928E+03  0.20576611229E+03  0.00000000000E+00 0. -1.
</event>
<event>
 7    1  0.2556591E-009  0.7469889E+02  0.7561462E-02  0.1344806E+00
          1   -1    0    0  501    0  0.00000000000E+00  0.00000000000E+00  0.21687014524E+03  0.21687014524E+03  0.00000000000E+00 0. -1.
         -1   -1    0    0    0  501 -0.00000000000E+00 -0.00000000000E+00 -0.60246589727E+02  0.60246589727E+02  0.00000000000E+00 0.  1.
         25    2    1    2    0    0  0.24364125394E+02  0.19906727414E+02  0.70471868103E+02  0.14697958260E+03  0.12508726996E+03 0.  0.
          5    1    3    3  502    0  0.34463734346E+02  0.52216559387E+02  0.88451243796E+02  0.10842238232E+03  0.41800000000E+01 0.  1.
         -5    1    3    3    0  502 -0.10099608952E+02 -0.32309831973E+02 -0.17979375693E+02  0.38557200280E+02  0.41800000000E+01 0.  1.
        -11    1    1    2    0    0  0.63929002514E+01 -0.20855663874E+02  0.95513637266E+02  0.97972867637E+02  0.00000000000E+00 0. -1.
         11    1    1    2    0    0 -0.30757025645E+02  0.94893645946E+00 -0.93619498571E+01  0.32164284728E+02  0.00000000000E+00 0.  1.
</event>
<event>
 7    1  0.2556591E-009  0.1884327E+03  0.7561462E-02  0.1159883E+00
          1   -1    0    0  501    0  0.00000000000E+00  0.00000000000E+00  0.53848330507E+03  0.53848330507E+03  0.00000000000E+00 0. -1.
         -1   -1    0    0    0  501 -0.00000000000E+00 -0.00000000000E+00 -0.76582795559E+02  0.76582795559E+02  0.00000000000E+00 0.  1.
         25    2    1    2    0    0 -0.36722669206E+01 -0.16290174342E+03  0.16371066066E+03  0.26267656350E+03  0.12508930029E+03 0.  0.
          5    1    3    3  502    0  0.25062654328E+02  0.97981892676E+01  0.81173345778E+01  0.28416626744E+02  0.41800000000E+01 0. -1.
         -5    1    3    3    0  502 -0.28734921248E+02 -0.17269993269E+03  0.15559332608E+03  0.23425993676E+03  0.41800000000E+01 0. -1.
        -11    1    1    2    0    0  0.33120270305E+02  0.87949494815E+02  0.94124755993E+02  0.13300953212E+03  0.00000000000E+00 0.  1.
         11    1    1    2    0    0 -0.29448003384E+02  0.74952248604E+02  0.20406509287E+03  0.21938000501E+03  0.00000000000E+00 0. -1.
</event>
<event>
 7    1  0.2556591E-009  0.2010808E+03  0.7561462E-02  0.1148830E+00
          3   -1    0    0  501    0  0.00000000000E+00  0.00000000000E+00  0.91605062291E+02  0.91605062291E+02  0.00000000000E+00 0. -1.
         -3   -1    0    0    0  501 -0.00000000000E+00 -0.00000000000E+00 -0.45318068531E+03  0.45318068531E+03  0.00000000000E+00 0.  1.
         25    2    1    2    0    0 -0.16822094851E+03 -0.24292424847E+02 -0.20130685143E+03  0.29165336772E+03  0.12509527987E+03 0.  0.
          5    1    3    3  502    0 -0.33666048193E+02 -0.58300774734E+02 -0.38454299575E+02  0.77643986833E+02  0.41800000000E+01 0. -1.
         -5    1    3    3    0  502 -0.13455490032E+03  0.34008349887E+02 -0.16285255186E+03  0.21400938089E+03  0.41800000000E+01 0. -1.
        -11    1    1    2    0    0  0.33705503604E+02  0.48621731942E+02 -0.45248968653E+02  0.74482232474E+02  0.00000000000E+00 0. -1.
         11    1    1    2    0    0  0.13451544491E+03 -0.24329307095E+02 -0.11501980293E+03  0.17865014741E+03  0.00000000000E+00 0.  1.
</event>
<event>
 7    1  0.2556591E-009  0.5911569E+02  0.7561462E-02  0.1401581E+00
         -1   -1    0    0    0  501 -0.00000000000E+00  0.00000000000E+00  0.74534497322E+02  0.74534497322E+02  0.00000000000E+00 0.  1.
          1   -1    0    0  501    0  0.00000000000E+00 -0.00000000000E+00 -0.26497655817E+03  0.26497655817E+03  0.00000000000E+00 0. -1.
         25    2    1    2    0    0 -0.25126097458E+02  0.24723889349E+02 -0.20184535637E+03  0.24006626397E+03  0.12509065405E+03 0.  0.
          5    1    3    3  502    0  0.92998458866E+01  0.10930606218E+02 -0.20219166199E+03  0.20274344839E+03  0.41800000000E+01 0.  1.
         -5    1    3    3    0  502 -0.34425943345E+02  0.13793283131E+02  0.34630562759E+00  0.37322815573E+02  0.41800000000E+01 0.  1.
        -11    1    1    2    0    0 -0.12017746730E+02 -0.26162485257E+02  0.42259611156E+02  0.51134886392E+02  0.00000000000E+00 0.  1.
         11    1    1    2    0    0  0.37143844188E+02  0.14385959083E+01 -0.30856315635E+02  0.48309905132E+02  0.00000000000E+00 0. -1.
</event>
<event>
 7    1  0.2556591E-009  0.3606469E+03  0.7561462E-02  0.1058328E+00
          3   -1    0    0  501    0  0.00000000000E+00  0.00000000000E+00  0.26267662736E+03  0.26267662736E+03  0.00000000000E+00 0. -1.
         -3   -1    0    0    0  501 -0.00000000000E+00 -0.00000000000E+00 -0.51026506275E+03  0.51026506275E+03  0.00000000000E+00 0.  1.
         25    2    1    2    0    0 -0.11853893947E+02 -0.35108145075E+03 -0.13012469943E+03  0.39494168543E+03  0.12509115728E+03 0.  0.
          5    1    3    3  502    0  0.22369477763E+02 -0.21468688152E+02  0.13085910221E+02  0.33911820250E+02  0.41800000000E+01 0. -1.
         -5    1    3    3    0  502 -0.34223371710E+02 -0.32961276260E+03 -0.14321060965E+03  0.36102986518E+03  0.41800000000E+01 0. -1.
        -11    1    1    2    0    0 -0.27907135624E+02  0.21570019340E+03 -0.82623739619E+02  0.23266298374E+03  0.00000000000E+00 0.  1.
         11    1    1    2    0    0  0.39761029571E+02  0.13538125735E+03 -0.34839996343E+02  0.14533702095E+03  0.00000000000E+00 0. -1.
</event>
<event>
 7    1  0.2556591E-009  0.2188237E+03  0.7561462E-02  0.1134763E+00
          2   -1    0    0  501    0  0.00000000000E+00  0.00000000000E+00  0.70293899236E+02  0.70293899236E+02  0.00000000000E+00 0. -1.
         -2   -1    0    0    0  501 -0.00000000000E+00 -0.00000000000E+00 -0.78772626032E+03  0.78772626032E+03  0.00000000000E+00 0.  1.
         25    2    1    2    0    0  0.20112469054E+03  0.50283554412E+02 -0.33296862199E+03  0.41169918507E+03  0.12509411963E+03 0.  0.
          5    1    3    3  502    0  0.18712045102E+03  0.22421465645E+02 -0.19909069538E+03  0.27417396429E+03  0.41800000000E+01 0. -1.
         -5    1    3    3    0  502  0.14004239528E+02  0.27862088767E+02 -0.13387792662E+03  0.13752522078E+03  0.41800000000E+01 0. -1.
        -11    1    1    2    0    0 -0.10066841115E+03  0.89410978048E+01 -0.24172707428E+03  0.26200391347E+03  0.00000000000E+00 0.  1.
         11    1    1    2    0    0 -0.10045627940E+03 -0.59224652216E+02 -0.14273666481E+03  0.18431706101E+03  0.00000000000E+00 0. -1.
</event>
<event>
 7    1  0.2636231E-009  0.1694299E+03  0.7561462E-02  0.1178444E+00
         -1   -1    0    0    0  501 -0.00000000000E+00  0.00000000000E+00  0.53477609147E+02  0.53477609147E+02  0.00000000000E+00 0.  1.
          1   -1    0    0  501    0  0.00000000000E+00 -0.00000000000E+00 -0.58300654217E+03  0.58300654217E+03  0.00000000000E+00 0. -1.
         25    2    1    2    0    0 -0.11389954723E+03  0.78647245450E+02 -0.25560761661E+03  0.31645340976E+03  0.12509600635E+03 0.  0.
          5    1    3    3  502    0 -0.99297424142E+01  0.79975506748E+02 -0.90155010273E+02  0.12099619722E+03  0.41800000000E+01 0. -1.
         -5    1    3    3    0  502 -0.10396980481E+03 -0.13282612982E+01 -0.16545260634E+03  0.19545721254E+03  0.41800000000E+01 0. -1.
        -11    1    1    2    0    0 -0.27912866320E+01 -0.25884414976E+02 -0.12400313683E+02  0.28836816730E+02  0.00000000000E+00 0.  1.
         11    1    1    2    0    0  0.11669083386E+03 -0.52762830474E+02 -0.26152100272E+03  0.29119392482E+03  0.00000000000E+00 0. -1.
</event>
<event>
 7    1  0.2556591E-009  0.8612677E+02  0.7561462E-02  0.1312512E+00
         -2   -1    0    0    0  501 -0.00000000000E+00  0.00000000000E+00  0.12895151056E+02  0.12895151056E+02  0.00000000000E+00 0.  1.
          2   -1    0    0  501    0  0.00000000000E+00 -0.00000000000E+00 -0.12441929503E+04  0.12441929503E+04  0.00000000000E+00 0. -1.
         25    2    1    2    0    0 -0.30448096441E+02  0.44856888223E+02 -0.86259736670E+03  0.87330433745E+03  0.12508805610E+03 0.  0.
          5    1    3    3  502    0  0.49827417585E+01 -0.41660088721E+01  0.81427194114E+00  0.77665168608E+01  0.41800000000E+01 0. -1.
         -5    1    3    3    0  502 -0.35430838200E+02  0.49022897096E+02 -0.86341163864E+03  0.86553782059E+03  0.41800000000E+01 0. -1.
        -11    1    1    2    0    0  0.61990956413E+02 -0.32773581384E+02 -0.20579743201E+03  0.21741566028E+03  0.00000000000E+00 0. -1.
         11    1    1    2    0    0 -0.31542859972E+02 -0.12083306840E+02 -0.16290300050E+03  0.16636810359E+03  0.00000000000E+00 0.  1.
</event>
<event>
 7    1  0.2556591E-009  0.1369375E+03  0.7561462E-02  0.1217510E+00
          1   -1    0    0  501    0  0.00000000000E+00  0.00000000000E+00  0.23271931101E+03  0.23271931101E+03  0.00000000000E+00 0. -1.
         -1   -1    0    0    0  501 -0.00000000000E+00 -0.00000000000E+00 -0.86983340812E+02  0.86983340812E+02  0.00000000000E+00 0.  1.
         25    2    1    2    0    0  0.84298097431E+02  0.31687707234E+01  0.38268968286E+02  0.15565427222E+03  0.12509008029E+03 0.  0.
          5    1    3    3  502    0 -0.31270447641E+02  0.12729350980E+02  0.15582379586E+02  0.37418714911E+02  0.41800000000E+01 0. -1.
         -5    1    3    3    0  502  0.11556854507E+03 -0.95605802563E+01  0.22686588700E+02  0.11823555731E+03  0.41800000000E+01 0. -1.
        -11    1    1    2    0    0 -0.32054191163E+02 -0.46132574338E+02  0.45030493139E+02  0.71996047798E+02  0.00000000000E+00 0.  1.
         11    1    1    2    0    0 -0.52243906267E+02  0.42963803614E+02  0.62436508771E+02  0.92052331804E+02  0.00000000000E+00 0. -1.
</event>
<event>
 7    1  0.2556591E-009  0.1067436E+03  0.7561462E-02  0.1266722E+00
         -2   -1    0    0    0  501 -0.00000000000E+00  0.00000000000E+00  0.26367737720E+02  0.26367737720E+02  0.00000000000E+00 0.  1.
          2   -1    0    0  501    0  0.00000000000E+00 -0.00000000000E+00 -0.45508532503E+03  0.45508532503E+03  0.00000000000E+00 0. -1.
         25    2    1    2    0    0 -0.44261824077E+01  0.92263504339E+01 -0.28509049349E+03  0.31149517249E+03  0.12509171185E+03 0.  0.
          5    1    3    3  502    0 -0.53843047173E+02  0.37304290581E+02 -0.11902857329E+03  0.13592629430E+03  0.41800000000E+01 0. -1.
         -5    1    3    3    0  502  0.49416864765E+02 -0.28077940147E+02 -0.16606192020E+03  0.17556887818E+03  0.41800000000E+01 0. -1.
        -11    1    1    2    0    0  0.18109806876E+02 -0.47168959503E+02 -0.80921898876E+02  0.95400364587E+02  0.00000000000E+00 0.  1.
         11    1    1    2    0    0 -0.13683624468E+02  0.37942609069E+02 -0.62705194949E+02  0.74557525678E+02  0.00000000000E+00 0. -1.
</event>
<event>
 7    1  0.2556591E-009  0.1246441E+03  0.7561462E-02  0.1235627E+00
         -2   -1    0    0    0  501 -0.00000000000E+00  0.00000000000E+00  0.74400237988E+02  0.74400237988E+02  0.00000000000E+00 0.  1.
          2   -1    0    0  501    0  0.00000000000E+00 -0.00000000000E+00 -0.25458512741E+03  0.25458512741E+03  0.00000000000E+00 0. -1.
         25    2    1    2    0    0  0.67068484606E+02  0.52677609040E+02 -0.95583533364E+02  0.17904407342E+03  0.12508979276E+03 0.  0.
          5    1    3    3  502    0 -0.26704078658E+02  0.46758630715E+02 -0.53449317694E+02  0.75985388893E+02  0.41800000000E+01 0.  1.
         -5    1    3    3    0  502  0.93772563264E+02  0.59189783258E+01 -0.42134215670E+02  0.10305868452E+03  0.41800000000E+01 0.  1.
        -11    1    1    2    0    0 -0.54762193591E+02 -0.64189894931E+02 -0.24996962048E+02  0.88000503236E+02  0.00000000000E+00 0.  1.
         11    1    1    2    0    0 -0.12306291016E+02  0.11512285891E+02 -0.59604394009E+02  0.61940788743E+02  0.00000000000E+00 0. -1.
</event>
<event>
 7    1  0.2556591E-009  0.1553784E+03  0.7561462E-02  0.1194016E+00
         -2   -1    0    0    0  501 -0.00000000000E+00  0.00000000000E+00  0.27295786949E+02  0.27295786949E+02  0.00000000000E+00 0.  1.
          2   -1    0    0  501    0  0.00000000000E+00 -0.00000000000E+00 -0.11412408545E+04  0.11412408545E+04  0.00000000000E+00 0. -1.
         25    2    1    2    0    0 -0.65182161379E+02  0.12106308694E+03 -0.60246849748E+03  0.63049212149E+03  0.12508812742E+03 0.  0.
          5    1    3    3  502    0 -0.63564074600E+02  0.13986474142E+03 -0.58353837107E+03  0.60343768559E+03  0.41800000000E+01 0.  1.
         -5    1    3    3    0  502 -0.16180867793E+01 -0.18801654483E+02 -0.18930126411E+02  0.27054435904E+02  0.41800000000E+01 0.  1.
        -11    1    1    2    0    0  0.58541162437E+02 -0.10269898976E+03 -0.50309013576E+03  0.51679186807E+03  0.00000000000E+00 0. -1.
         11    1    1    2    0    0  0.66409989419E+01 -0.18364097178E+02 -0.83864343012E+01  0.21252651891E+02  0.00000000000E+00 0.  1.
</event>
<event>
 7    1  0.2556591E-009  0.9806718E+02  0.7561462E-02  0.1284414E+00
          1   -1    0    0  501    0  0.00000000000E+00  0.00000000000E+00  0.20601753087E+03  0.20601753087E+03  0.00000000000E+00 0. -1.
         -1   -1    0    0    0  501 -0.00000000000E+00 -0.00000000000E+00 -0.73313528765E+02  0.73313528765E+02  0.00000000000E+00 0.  1.
         25    2    1    2    0    0 -0.14098412297E+02  0.41448665173E+02  0.11833790631E+03  0.17767388562E+03  0.12508953789E+03 0.  0.
          5    1    3    3  502    0  0.22642203703E+02 -0.29712879851E+02  0.80824768387E+02  0.89138320617E+02  0.41800000000E+01 0. -1.
         -5    1    3    3    0  502 -0.36740616000E+02  0.71161545024E+02  0.37513137920E+02  0.88535565005E+02  0.41800000000E+01 0. -1.
        -11    1    1    2    0    0 -0.24162314647E+02 -0.29778532454E+02  0.38987188205E+02  0.54686189192E+02  0.00000000000E+00 0. -1.
         11    1    1    2    0    0  0.38260726943E+02 -0.11670132719E+02 -0.24621092406E+02  0.46970984822E+02  0.00000000000E+00 0.  1.
</event>
<event>
 7    1  0.2556591E-009  0.8377898E+02  0.7561462E-02  0.1318657E+00
         -1   -1    0    0    0  501 -0.00000000000E+00  0.00000000000E+00  0.73030212873E+02  0.73030212873E+02  0.00000000000E+00 0.  1.
          1   -1    0    0  501    0  0.00000000000E+00 -0.00000000000E+00 -0.21682801164E+03  0.21682801164E+03  0.00000000000E+00 0. -1.
         25    2    1    2    0    0  0.14945771762E+02  0.58786540637E+02 -0.54869824604E+02  0.14944213718E+03  0.12507206426E+03 0.  0.
          5    1    3    3  502    0  0.41142159978E+01  0.28015631144E+02  0.39913076180E+02  0.49115460009E+02  0.41800000000E+01 0. -1.
         -5    1    3    3    0  502  0.10831555764E+02  0.30770909493E+02 -0.94782900785E+02  0.10032667717E+03  0.41800000000E+01 0. -1.
        -11    1    1    2    0    0 -0.51498185996E+02 -0.37966064611E+02 -0.38204648410E+02  0.74518993438E+02  0.00000000000E+00 0.  1.
         11    1    1    2    0    0  0.36552414234E+02 -0.20820476026E+02 -0.50723325757E+02  0.65897093897E+02  0.00000000000E+00 0. -1.
</event>
<event>
 7    1  0.2556591E-009  0.1783493E+03  0.7561462E-02  0.1169410E+00
          2   -1    0    0  501    0  0.00000000000E+00  0.00000000000E+00  0.16164531527E+04  0.16164531527E+04  0.00000000000E+00 0.  1.
         -2   -1    0    0    0  501 -0.00000000000E+00 -0.00000000000E+00 -0.25636320637E+02  0.25636320637E+02  0.00000000000E+00 0. -1.
         25    2    1    2    0    0 -0.10040369382E+02 -0.14839700104E+03  0.12419391318E+04  0.12570532247E+04  0.12509006201E+03 0.  0.
          5    1    3    3  502    0  0.39133547802E+02 -0.15333653457E+01  0.25997029736E+03  0.26293690057E+03  0.41800000000E+01 0.  1.
         -5    1    3    3    0  502 -0.49173917184E+02 -0.14686363570E+03  0.98196883447E+03  0.99411632413E+03  0.41800000000E+01 0.  1.
        -11    1    1    2    0    0  0.36530881111E+02  0.61477248601E+02  0.16909665546E+03  0.18359639500E+03  0.00000000000E+00 0.  1.
         11    1    1    2    0    0 -0.26490511729E+02  0.86919752440E+02  0.17978104482E+03  0.20143985368E+03  0.00000000000E+00 0. -1.
</event>
<event>
 7    1  0.2556591E-009  0.2226758E+03  0.7561462E-02  0.1131904E+00
          1   -1    0    0  501    0  0.00000000000E+00  0.00000000000E+00  0.78463540847E+02  0.78463540847E+02  0.00000000000E+00 0. -1.
         -1   -1    0    0    0  501 -0.00000000000E+00 -0.00000000000E+00 -0.73473659728E+03  0.73473659728E+03  0.00000000000E+00 0.  1.
         25    2    1    2    0    0  0.12373681721E+03 -0.15952263111E+03 -0.45326574740E+03  0.51171423102E+03  0.12507336526E+03 0.  0.
          5    1    3    3  502    0  0.12597734043E+03 -0.87825013170E+02 -0.37614152770E+03  0.40630462033E+03  0.41800000000E+01 0. -1.
         -5    1    3    3    0  502 -0.22405232266E+01 -0.71697617938E+02 -0.77124219700E+02  0.10540961069E+03  0.41800000000E+01 0. -1.
        -11    1    1    2    0    0  0.10474006803E+02 -0.11296996371E+01 -0.23388145803E+02  0.25651245659E+02  0.00000000000E+00 0. -1.
         11    1    1    2    0    0 -0.13421082401E+03  0.16065233074E+03 -0.17961916323E+03  0.27583466145E+03  0.00000000000E+00 0.  1.
</event>
<event>
 7    1  0.2556591E-009  0.9267437E+02  0.7561462E-02  0.1296502E+00
         -4   -1    0    0    0  501 -0.00000000000E+00  0.00000000000E+00  0.54785913948E+03  0.54785913948E+03  0.00000000000E+00 0.  1.
          4   -1    0    0  501    0  0.00000000000E+00 -0.00000000000E+00 -0.28892677277E+02  0.28892677277E+02  0.00000000000E+00 0. -1.
         25    2    1    2    0    0 -0.16372833377E+02  0.58097116152E+02  0.34061263833E+03  0.36784168562E+03  0.12508873537E+03 0.  0.
          5    1    3    3  502    0 -0.40721012103E+02  0.78788748863E+02  0.14829673405E+03  0.17284461664E+03  0.41800000000E+01 0. -1.
         -5    1    3    3    0  502  0.24348178726E+02 -0.20691632711E+02  0.19231590428E+03  0.19499706898E+03  0.41800000000E+01 0. -1.
        -11    1    1    2    0    0  0.12771423242E+02 -0.10311709708E+02 -0.67169976195E+01  0.17735801807E+02  0.00000000000E+00 0. -1.
         11    1    1    2    0    0  0.36014101358E+01 -0.47785406445E+02  0.18507082150E+03  0.19117432933E+03  0.00000000000E+00 0.  1.
</event>
<event>
 7    1  0.2677291E-009  0.1255459E+03  0.7561462E-02  0.1234219E+00
         -2   -1    0    0    0  501 -0.00000000000E+00  0.00000000000E+00  0.87248536941E+02  0.87248536941E+02  0.00000000000E+00 0.  1.
          2   -1    0    0  501    0  0.00000000000E+00 -0.00000000000E+00 -0.22912760894E+03  0.22912760894E+03  0.00000000000E+00 0. -1.
         25    2    1    2    0    0 -0.13632898577E+02  0.87412665431E+02 -0.97135647528E+02  0.18141055888E+03  0.12509047467E+03 0.  0.
          5    1    3    3  502    0  0.37568243730E+02  0.94014445075E+02 -0.61305523711E+02  0.11843111271E+03  0.41800000000E+01 0.  1.
         -5    1    3    3    0  502 -0.51201142306E+02 -0.66017796434E+01 -0.35830123817E+02  0.62979446176E+02  0.41800000000E+01 0.  1.
        -11    1    1    2    0    0 -0.13526216701E+02 -0.49614084255E+02  0.20043411729E+02  0.55192882226E+02  0.00000000000E+00 0.  1.
         11    1    1    2    0    0  0.27159115278E+02 -0.37798581177E+02 -0.64786836200E+02  0.79772704771E+02  0.00000000000E+00 0. -1.
</event>
<event>
 7    1  0.2556591E-009  0.1158782E+03  0.7561462E-02  0.1250056E+00
          1   -1    0    0  501    0  0.00000000000E+00  0.00000000000E+00  0.34357916252E+02  0.34357916252E+02  0.00000000000E+00 0. -1.
         -1   -1    0    0    0  501 -0.00000000000E+00 -0.00000000000E+00 -0.61709592837E+03  0.61709592837E+03  0.00000000000E+00 0.  1.
         25    2    1    2    0    0 -0.61456175996E+02  0.10429712004E+02 -0.48045419493E+03  0.50036774990E+03  0.12508401679E+03 0.  0.
          5    1    3    3  502    0  0.62814129881E+01  0.44291356223E+02 -0.71535165187E+02  0.84474449649E+02  0.41800000000E+01 0.  1.
         -5    1    3    3    0  502 -0.67737588984E+02 -0.33861644219E+02 -0.40891902974E+03  0.41589330025E+03  0.41800000000E+01 0.  1.
        -11    1    1    2    0    0  0.17485022776E+02 -0.49290306141E+02 -0.52912539049E+02  0.74397561045E+02  0.00000000000E+00 0. -1.
         11    1    1    2    0    0  0.43971153220E+02  0.38860594136E+02 -0.49371278144E+02  0.76688533678E+02  0.00000000000E+00 0.  1.
</event>
<event>
 7    1  0.2556591E-009  0.1182161E+03  0.7561462E-02  0.1246069E+00
         -1   -1    0    0    0  501 -0.00000000000E+00  0.00000000000E+00  0.41489571756E+02  0.41489571756E+02  0.00000000000E+00 0.  1.
          1   -1    0    0  501    0  0.00000000000E+00 -0.00000000000E+00 -0.47553180155E+03  0.47553180155E+03  0.00000000000E+00 0. -1.
         25    2    1    2    0    0 -0.19128658171E+01  0.85231323843E+02 -0.28640504922E+03  0.32394754349E+03  0.12508445584E+03 0.  0.
          5    1    3    3  502    0  0.38780013767E+02  0.57951331319E+02 -0.59451613108E+02  0.91729019239E+02  0.41800000000E+01 0.  1.
         -5    1    3    3    0  502 -0.40692879584E+02  0.27279992524E+02 -0.22695343611E+03  0.23221852425E+03  0.41800000000E+01 0.  1.
        -11    1    1    2    0    0 -0.29749076145E+02 -0.37411820107E+01 -0.13315604004E+02  0.32807152944E+02  0.00000000000E+00 0.  1.
         11    1    1    2    0    0  0.31661941962E+02 -0.81490141832E+02 -0.13432157657E+03  0.16026667688E+03  0.00000000000E+00 0. -1.
</event>
<event>
 7    1  0.2556591E-009  0.1673063E+03  0.7561462E-02  0.1180686E+00
         -1   -1    0    0    0  501 -0.00000000000E+00  0.00000000000E+00  0.33964428993E+02  0.33964428993E+02  0.00000000000E+00 0.  1.
          1   -1    0    0  501    0  0.00000000000E+00 -0.00000000000E+00 -0.12171928640E+04  0.12171928640E+04  0.00000000000E+00 0. -1.
         25    2    1    2    0    0  0.52485164079E+02 -0.14589576657E+03 -0.84974767860E+03  0.87278821326E+03  0.12509148960E+03 0.  0.
          5    1    3    3  502    0  0.22171890340E+02 -0.43492960563E+02 -0.68251568943E+02  0.84017732670E+02  0.41800000000E+01 0.  1.
         -5    1    3    3    0  502  0.30313273739E+02 -0.10240280601E+03 -0.78149610966E+03  0.78877048059E+03  0.41800000000E+01 0.  1.
        -11    1    1    2    0    0 -0.63960366610E+02  0.47482936268E+02 -0.15125891911E+03  0.17095267867E+03  0.00000000000E+00 0.  1.
         11    1    1    2    0    0  0.11475202531E+02  0.98412830300E+02 -0.18222183727E+03  0.20741640103E+03  0.00000000000E+00 0. -1.
</event>
<event>
 7    1  0.2556591E-009  0.1129717E+03  0.7561462E-02  0.1255164E+00
          1   -1    0    0  501    0  0.00000000000E+00  0.00000000000E+00  0.31041181827E+03  0.31041181827E+03  0.00000000000E+00 0. -1.
         -1   -1    0    0    0  501 -0.00000000000E+00 -0.00000000000E+00 -0.75791256428E+02  0.75791256428E+02  0.00000000000E+00 0.  1.
         25    2    1    2    0    0 -0.51549442035E+01 -0.71958541628E+02  0.24265292866E+02  0.14643169930E+03  0.12509529551E+03 0.  0.
          5    1    3    3  502    0  0.52932119475E+02 -0.35003276369E+01 -0.46127876117E+00  0.53214159242E+02  0.41800000000E+01 0. -1.
         -5    1    3    3    0  502 -0.58087063679E+02 -0.68458213991E+02  0.24726571627E+02  0.93217540056E+02  0.41800000000E+01 0. -1.
        -11    1    1    2    0    0  0.18732249078E+02  0.14162470731E+02  0.25147706268E+01  0.23617722245E+02  0.00000000000E+00 0.  1.
         11    1    1    2    0    0 -0.13577304874E+02  0.57796070897E+02  0.20784049835E+03  0.21615365316E+03  0.00000000000E+00 0. -1.
</event>
<event>
 7    1  0.2556591E-009  0.1062132E+03  0.7561462E-02  0.1267748E+00
         -3   -1    0    0    0  501 -0.00000000000E+00  0.00000000000E+00  0.22280718709E+03  0.22280718709E+03  0.00000000000E+00 0.  1.
          3   -1    0    0  501    0  0.00000000000E+00 -0.00000000000E+00 -0.59775267517E+02  0.59775267517E+02  0.00000000000E+00 0. -1.
         25    2    1    2    0    0  0.94723188942E+01 -0.36376491209E+02  0.10299645003E+03  0.16633998797E+03  0.12509096267E+03 0.  0.
          5    1    3    3  502    0 -0.13573949870E+02 -0.79885032759E+02  0.61428166472E+02  0.10176818073E+03  0.41800000000E+01 0. -1.
         -5    1    3    3    0  502  0.23046268764E+02  0.43508541550E+02  0.41568283558E+02  0.64571807236E+02  0.41800000000E+01 0. -1.
        -11    1    1    2    0    0 -0.28214056240E+02 -0.11495612941E+02  0.57135566646E+02  0.64750714763E+02  0.00000000000E+00 0. -1.
         11    1    1    2    0    0  0.18741737346E+02  0.47872104150E+02  0.28999028999E+01  0.51491751876E+02  0.00000000000E+00 0.  1.
</event>
<event>
 7    1  0.2556591E-009  0.1024163E+03  0.7561462E-02  0.1275295E+00
          1   -1    0    0  501    0  0.00000000000E+00  0.00000000000E+00  0.16768102583E+03  0.16768102583E+03  0.00000000000E+00 0. -1.
         -1   -1    0    0    0  501 -0.00000000000E+00 -0.00000000000E+00 -0.94964697458E+02  0.94964697458E+02  0.00000000000E+00 0.  1.
         25    2    1    2    0    0  0.29307117250E+02  0.49594491411E+02  0.72770051703E+02  0.15576610063E+03  0.12509627085E+03 0.  0.
          5    1    3    3  502    0  0.71112488627E+02 -0.13090442050E+01  0.31320367048E+02  0.77827613528E+02  0.41800000000E+01 0. -1.
         -5    1    3    3    0  502 -0.41805371377E+02  0.50903535616E+02  0.41449684655E+02  0.77938487105E+02  0.41800000000E+01 0. -1.
        -11    1    1    2    0    0 -0.24731857984E+01 -0.38445593074E+02 -0.41265525421E+02  0.56453732056E+02  0.00000000000E+00 0.  1.
         11    1    1    2    0    0 -0.26833931452E+02 -0.11148898336E+02  0.41211802093E+02  0.50425890602E+02  0.00000000000E+00 0. -1.
</event>
<event>
 7    1  0.2556591E-009  0.1059841E+03  0.7561462E-02  0.1268193E+00
         -1   -1    0    0    0  501 -0.00000000000E+00  0.00000000000E+00  0.97581716678E+01  0.97581716678E+01  0.00000000000E+00 0.  1.
          1   -1    0    0  501    0  0.00000000000E+00 -0.00000000000E+00 -0.13508535022E+04  0.13508535022E+04  0.00000000000E+00 0. -1.
         25    2    1    2    0    0  0.17058250750E+02  0.53613396880E+01 -0.10052276188E+04  0.10131379923E+04  0.12508516275E+03 0.  0.
          5    1    3    3  502    0  0.35415134806E+02  0.58122924553E+02 -0.64273748209E+03  0.64634468313E+03  0.41800000000E+01 0. -1.
         -5    1    3    3    0  502 -0.18356884056E+02 -0.52761584865E+02 -0.36249013675E+03  0.36679330919E+03  0.41800000000E+01 0. -1.
        -11    1    1    2    0    0 -0.27197185365E+02  0.36029922125E+02 -0.14308963155E+03  0.15004161035E+03  0.00000000000E+00 0.  1.
         11    1    1    2    0    0  0.10138934615E+02 -0.41391261812E+02 -0.19277808016E+03  0.19743207120E+03  0.00000000000E+00 0. -1.
</event>
<event>
 7    1  0.2556591E-009  0.1152918E+03  0.7561462E-02  0.1251073E+00
         -1   -1    0    0    0  501 -0.00000000000E+00  0.00000000000E+00  0.96942338590E+02  0.96942338590E+02  0.00000000000E+00 0.  1.
          1   -1    0    0  501    0  0.00000000000E+00 -0.00000000000E+00 -0.17681994429E+03  0.17681994429E+03  0.00000000000E+00 0. -1.
         25    2    1    2    0    0 -0.54084189141E+02 -0.36715690079E+02 -0.73173006159E+01  0.14132872858E+03  0.12508846957E+03 0.  0.
          5    1    3    3  502    0 -0.50695870427E+02  0.34782378355E+02  0.19718478912E+02  0.64700664084E+02  0.41800000000E+01 0. -1.
         -5    1    3    3    0  502 -0.33883187140E+01 -0.71498068434E+02 -0.27035779528E+02  0.76628064495E+02  0.41800000000E+01 0. -1.
        -11    1    1    2    0    0 -0.64898780306E+00  0.42244021813E+02 -0.64106030765E+02  0.76776049290E+02  0.00000000000E+00 0.  1.
         11    1    1    2    0    0  0.54733176944E+02 -0.55283317337E+01 -0.84542743224E+01  0.55657505014E+02  0.00000000000E+00 0. -1.
</event>
<event>
 7    1  0.2556591E-009  0.1091288E+03  0.7561462E-02  0.1262192E+00
         -1   -1    0    0    0  501 -0.00000000000E+00  0.00000000000E+00  0.24039698814E+03  0.24039698814E+03  0.00000000000E+00 0.  1.
          1   -1    0    0  501    0  0.00000000000E+00 -0.00000000000E+00 -0.11312655314E+03  0.11312655314E+03  0.00000000000E+00 0. -1.
         25    2    1    2    0    0 -0.76455936747E+02 -0.18934884601E+02 -0.34254392927E+02  0.15174052608E+03  0.12509110160E+03 0.  0.
          5    1    3    3  502    0  0.18400978536E+02  0.46605735973E+01  0.29236597662E+02  0.35107947821E+02  0.41800000000E+01 0. -1.
         -5    1    3    3    0  502 -0.94856915283E+02 -0.23595458198E+02 -0.63490990589E+02  0.11663257826E+03  0.41800000000E+01 0. -1.
        -11    1    1    2    0    0  0.30761875647E+01  0.26988718480E+02  0.10596353902E+03  0.10938978680E+03  0.00000000000E+00 0.  1.
         11    1    1    2    0    0  0.73379749182E+02 -0.80538338792E+01  0.55561288911E+02  0.92393228408E+02  0.00000000000E+00 0. -1.
</event>
<event>
 7    1  0.2556591E-009  0.1105494E+03  0.7561462E-02  0.1259556E+00
         -2   -1    0    0    0  501 -0.00000000000E+00  0.00000000000E+00  0.12098142383E+02  0.12098142383E+02  0.00000000000E+00 0.  1.
          2   -1    0    0  501    0  0.00000000000E+00 -0.00000000000E+00 -0.12570797581E+04  0.12570797581E+04  0.00000000000E+00 0. -1.
         25    2    1    2    0    0  0.21778520561E+02  0.51422645993E+02 -0.79606858793E+03  0.80776893432E+03  0.12508741777E+03 0.  0.
          5    1    3    3  502    0 -0.33807114067E+02  0.47709008046E+02 -0.18300013299E+03  0.19216032755E+03  0.41800000000E+01 0.  1.
         -5    1    3    3    0  502  0.55585634627E+02  0.37136379466E+01 -0.61306845494E+03  0.61560860677E+03  0.41800000000E+01 0.  1.
        -11    1    1    2    0    0 -0.55200502343E+02 -0.15052318097E+02 -0.23425838789E+03  0.24114447959E+03  0.00000000000E+00 0.  1.
         11    1    1    2    0    0  0.33421981782E+02 -0.36370327896E+02 -0.21465463990E+03  0.22026448658E+03  0.00000000000E+00 0. -1.
</event>
<event>
 7    1  0.2556591E-009  0.1154054E+03  0.7561462E-02  0.1250875E+00
          2   -1    0    0  501    0  0.00000000000E+00  0.00000000000E+00  0.88179435620E+03  0.88179435620E+03  0.00000000000E+00 0. -1.
         -2   -1    0    0    0  501 -0.00000000000E+00 -0.00000000000E+00 -0.25526066403E+02  0.25526066403E+02  0.00000000000E+00 0.  1.
         25    2    1    2    0    0  0.60100886239E+02 -0.95891959691E+01  0.71593103758E+03  0.72932097259E+03  0.12509101198E+03 0.  0.
          5    1    3    3  502    0  0.21666197051E+02  0.57412887321E+02  0.29565426783E+03  0.30198440724E+03  0.41800000000E+01 0. -1.
         -5    1    3    3    0  502  0.38434689188E+02 -0.67002083290E+02  0.42027676974E+03  0.42733656535E+03  0.41800000000E+01 0. -1.
        -11    1    1    2    0    0 -0.17411166764E+02 -0.29376255987E+02  0.10255925903E+02  0.35655254312E+02  0.00000000000E+00 0.  1.
         11    1    1    2    0    0 -0.42689719475E+02  0.38965451956E+02  0.13008132632E+03  0.14234419571E+03  0.00000000000E+00 0. -1.
</event>
<event>
 7    1  0.2556591E-009  0.1281300E+03  0.7561462E-02  0.1230257E+00
         -1   -1    0    0    0  501 -0.00000000000E+00  0.00000000000E+00  0.39172853260E+02  0.39172853260E+02  0.00000000000E+00 0.  1.
          1   -1    0    0  501    0  0.00000000000E+00 -0.00000000000E+00 -0.42664254136E+03  0.42664254136E+03  0.00000000000E+00 0. -1.
         25    2    1    2    0    0  0.59269166522E+02 -0.30441458547E+02 -0.20819733100E+03  0.25186531567E+03  0.12510192685E+03 0.  0.
          5    1    3    3  502    0  0.96065263413E+02 -0.37825134511E+02 -0.16270650003E+03  0.19274375006E+03  0.41800000000E+01 0. -1.
         -5    1    3    3    0  502 -0.36796096891E+02  0.73836759647E+01 -0.45490830977E+02  0.59121565610E+02  0.41800000000E+01 0. -1.
        -11    1    1    2    0    0 -0.32264697708E+02 -0.33041784680E+02 -0.55043704739E+02  0.71851093829E+02  0.00000000000E+00 0. -1.
         11    1    1    2    0    0 -0.27004468814E+02  0.63483243226E+02 -0.12422865235E+03  0.14209898512E+03  0.00000000000E+00 0.  1.
</event>
<event>
 7    1  0.2556591E-009  0.1808652E+03  0.7561462E-02  0.1166968E+00
         -1   -1    0    0    0  501 -0.00000000000E+00  0.00000000000E+00  0.22403301222E+03  0.22403301222E+03  0.00000000000E+00 0.  1.
          1   -1    0    0  501    0  0.00000000000E+00 -0.00000000000E+00 -0.16795015658E+03  0.16795015658E+03  0.00000000000E+00 0. -1.
         25    2    1    2    0    0 -0.64618598450E+02 -0.14566346124E+03  0.99995520547E+01  0.20282642804E+03  0.12508062067E+03 0.  0.
          5    1    3    3  502    0 -0.82979863909E+02 -0.12727123042E+03 -0.30019313846E+02  0.15492661331E+03  0.41800000000E+01 0.  1.
         -5    1    3    3    0  502  0.18361265459E+02 -0.18392230816E+02  0.40018865900E+02  0.47899814734E+02  0.41800000000E+01 0.  1.
        -11    1    1    2    0    0  0.38973691006E+02  0.36918420817E+01  0.82231462409E+01  0.40002480206E+02  0.00000000000E+00 0.  1.
         11    1    1    2    0    0  0.25644907444E+02  0.14197161916E+03  0.37860157344E+02  0.14915426054E+03  0.00000000000E+00 0. -1.
</event>
<event>
 7    1  0.2556591E-009  0.1061594E+03  0.7561462E-02  0.1267852E+00
          2   -1    0    0  501    0  0.00000000000E+00  0.00000000000E+00  0.96632954816E+03  0.96632954816E+03  0.00000000000E+00 0. -1.
         -2   -1    0    0    0  501 -0.00000000000E+00 -0.00000000000E+00 -0.14485228717E+02  0.14485228717E+02  0.00000000000E+00 0.  1.
         25    2    1    2    0    0  0.20614273460E+02  0.35239859248E+02  0.62648898843E+03  0.64015776598E+03  0.12508683690E+03 0.  0.
          5    1    3    3  502    0 -0.41295002079E+02 -0.21916603956E+02  0.20429752399E+03  0.20962005017E+03  0.41800000000E+01 0.  1.
         -5    1    3    3    0  502  0.61909275539E+02  0.57156463204E+02  0.42219146444E+03  0.43053771581E+03  0.41800000000E+01 0.  1.
        -11    1    1    2    0    0 -0.19271791457E+01  0.21343129519E+02  0.19252456286E+02  0.28807989693E+02  0.00000000000E+00 0.  1.
         11    1    1    2    0    0 -0.18687094315E+02 -0.56582988767E+02  0.30610287473E+03  0.31184902121E+03  0.00000000000E+00 0. -1.
</event>
<event>
 7    1  0.2556591E-009  0.1126898E+03  0.7561462E-02  0.1255668E+00
         -1   -1    0    0    0  501 -0.00000000000E+00  0.00000000000E+00  0.75038237303E+02  0.75038237303E+02  0.00000000000E+00 0.  1.
          1   -1    0    0  501    0  0.00000000000E+00 -0.00000000000E+00 -0.20532634992E+03  0.20532634992E+03  0.00000000000E+00 0. -1.
         25    2    1    2    0    0  0.39822876872E+02 -0.40295301898E+02 -0.10017657266E+03  0.16997904370E+03  0.12509179314E+03 0.  0.
          5    1    3    3  502    0 -0.41500897886E+02  0.33129061016E+00 -0.12336794342E+02  0.43498312305E+02  0.41800000000E+01 0. -1.
         -5    1    3    3    0  502  0.81323774758E+02 -0.40626592508E+02 -0.87839778320E+02  0.12648073140E+03  0.41800000000E+01 0. -1.
        -11    1    1    2    0    0 -0.24533953170E+02 -0.19251864034E+02 -0.37151161670E+02  0.48505236216E+02  0.00000000000E+00 0.  1.
         11    1    1    2    0    0 -0.15288923702E+02  0.59547165931E+02  0.70396217121E+01  0.61880307306E+02  0.00000000000E+00 0. -1.
</event>
<event>
 7    1  0.2556591E-009  0.6862249E+02  0.7561462E-02  0.1364841E+00
          1   -1    0    0  501    0  0.00000000000E+00  0.00000000000E+00  0.14307685382E+03  0.14307685382E+03  0.00000000000E+00 0. -1.
         -1   -1    0    0    0  501 -0.00000000000E+00 -0.00000000000E+00 -0.85169410313E+02  0.85169410313E+02  0.00000000000E+00 0.  1.
         25    2    1    2    0    0  0.12025290984E+02  0.16847874856E+02  0.26150956522E+02  0.12945024668E+03  0.12508011564E+03 0.  0.
          5    1    3    3  502    0 -0.20477025551E+02  0.34989449845E+02  0.64209098691E+02  0.76051633320E+02  0.41800000000E+01 0. -1.
         -5    1    3    3    0  502  0.32502316535E+02 -0.18141574989E+02 -0.38058142169E+02  0.53398613359E+02  0.41800000000E+01 0. -1.
        -11    1    1    2    0    0  0.22126477875E+02 -0.96046568271E+01  0.52788758726E+02  0.58038638025E+02  0.00000000000E+00 0. -1.
         11    1    1    2    0    0 -0.34151768859E+02 -0.72432180292E+01 -0.21032271739E+02  0.40757379432E+02  0.00000000000E+00 0.  1.
</event>
<event>
 7    1  0.2556591E-009  0.1043541E+03  0.7561462E-02  0.1271397E+00
         -4   -1    0    0    0  501 -0.00000000000E+00  0.00000000000E+00  0.13402912180E+04  0.13402912180E+04  0.00000000000E+00 0. -1.
          4   -1    0    0  501    0  0.00000000000E+00 -0.00000000000E+00 -0.28152384612E+02  0.28152384612E+02  0.00000000000E+00 0.  1.
         25    2    1    2    0    0  0.13999768258E+02 -0.17877919954E+02  0.12458679467E+04  0.12523375945E+04  0.12508755503E+03 0.  0.
          5    1    3    3  502    0  0.47620927047E+02 -0.55995082886E+02  0.60981091276E+03  0.61423938633E+03  0.41800000000E+01 0.  1.
         -5    1    3    3    0  502 -0.33621158789E+02  0.38117162932E+02  0.63605703399E+03  0.63809820820E+03  0.41800000000E+01 0.  1.
        -11    1    1    2    0    0  0.20173301965E+02  0.39001990843E+02  0.69438119016E+01  0.44455977389E+02  0.00000000000E+00 0.  1.
         11    1    1    2    0    0 -0.34173070222E+02 -0.21124070889E+02  0.59327074698E+02  0.71650030646E+02  0.00000000000E+00 0. -1.
</event>
<event>
 7    1  0.2556591E-009  0.1213473E+03  0.7561462E-02  0.1240891E+00
         -2   -1    0    0    0  501 -0.00000000000E+00  0.00000000000E+00  0.62269338004E+03  0.62269338004E+03  0.00000000000E+00 0. -1.
          2   -1    0    0  501    0  0.00000000000E+00 -0.00000000000E+00 -0.37001568125E+02  0.37001568125E+02  0.00000000000E+00 0.  1.
         25    2    1    2    0    0 -0.63836463806E+02 -0.61130041298E+02  0.19129844977E+03  0.24505983352E+03  0.12508896458E+03 0.  0.
          5    1    3    3  502    0 -0.34697678975E+01 -0.87117540531E+02  0.10698918579E+03  0.13807846839E+03  0.41800000000E+01 0.  1.
         -5    1    3    3    0  502 -0.60366695909E+02  0.25987499234E+02  0.84309263983E+02  0.10698136513E+03  0.41800000000E+01 0.  1.
        -11    1    1    2    0    0  0.53230803732E+02  0.42503399059E+02  0.38542839918E+03  0.39140146690E+03  0.00000000000E+00 0. -1.
         11    1    1    2    0    0  0.10605660075E+02  0.18626642239E+02  0.89649629682E+01  0.23233647750E+02  0.00000000000E+00 0.  1.
</event>
<event>
 7    1  0.2556591E-009  0.1241345E+03  0.7561462E-02  0.1236428E+00
         -2   -1    0    0    0  501 -0.00000000000E+00  0.00000000000E+00  0.38271502272E+02  0.38271502272E+02  0.00000000000E+00 0.  1.
          2   -1    0    0  501    0  0.00000000000E+00 -0.00000000000E+00 -0.49483156400E+03  0.49483156400E+03  0.00000000000E+00 0. -1.
         25    2    1    2    0    0  0.15369425070E+02 -0.69732652999E+02 -0.31853115625E+03  0.34958153911E+03  0.12508514245E+03 0.  0.
          5    1    3    3  502    0 -0.38682033224E+02  0.38558610836E+01 -0.37945665996E+02  0.54484064889E+02  0.41800000000E+01 0. -1.
         -5    1    3    3    0  502  0.54051458294E+02 -0.73588514083E+02 -0.28058549026E+03  0.29509747422E+03  0.41800000000E+01 0. -1.
        -11    1    1    2    0    0  0.21512410855E+02 -0.14413870769E+02 -0.14841825445E+02  0.29846662692E+02  0.00000000000E+00 0.  1.
         11    1    1    2    0    0 -0.36881835926E+02  0.84146523768E+02 -0.12318708003E+03  0.15367486447E+03  0.00000000000E+00 0. -1.
</event>
<event>
 7    1  0.2556591E-009  0.9630000E+02  0.7561462E-02  0.1288275E+00
         -1   -1    0    0    0  501 -0.00000000000E+00  0.00000000000E+00  0.94891226093E+02  0.94891226093E+02  0.00000000000E+00 0.  1.
          1   -1    0    0  501    0  0.00000000000E+00 -0.00000000000E+00 -0.15268335976E+03  0.15268335976E+03  0.00000000000E+00 0. -1.
         25    2    1    2    0    0 -0.27010399595E+02  0.25325092494E+02 -0.72993450309E+02  0.14948393654E+03  0.12508589648E+03 0.  0.
          5    1    3    3  502    0 -0.24393030078E+01  0.70965043398E+02 -0.65964163926E+02  0.97008921786E+02  0.41800000000E+01 0.  1.
         -5    1    3    3    0  502 -0.24571096587E+02 -0.45639950904E+02 -0.70292863830E+01  0.52475014750E+02  0.41800000000E+01 0.  1.
        -11    1    1    2    0    0  0.17758955547E+02 -0.44644922041E+02  0.41976702675E+02  0.63801200096E+02  0.00000000000E+00 0.  1.
         11    1    1    2    0    0  0.92514440475E+01  0.19319829547E+02 -0.26775386038E+02  0.34289449225E+02  0.00000000000E+00 0. -1.
</event>
<event>
 7    1  0.2556591E-009  0.8794981E+02  0.7561462E-02  0.1307894E+00
         -1   -1    0    0    0  501 -0.00000000000E+00  0.00000000000E+00  0.15964974162E+02  0.15964974162E+02  0.00000000000E+00 0.  1.
          1   -1    0    0  501    0  0.00000000000E+00 -0.00000000000E+00 -0.11192347226E+04  0.11192347226E+04  0.00000000000E+00 0. -1.
         25    2    1    2    0    0 -0.34824062478E+02  0.24566270554E+02 -0.89283176794E+03  0.90255650642E+03  0.12507383609E+03 0.  0.
          5    1    3    3  502    0 -0.26307205353E+02 -0.18818706740E+02 -0.57972563375E+02  0.66516939805E+02  0.41800000000E+01 0. -1.
         -5    1    3    3    0  502 -0.85168571255E+01  0.43384977294E+02 -0.83485920456E+03  0.83603956662E+03  0.41800000000E+01 0. -1.
        -11    1    1    2    0    0  0.60014519423E+02 -0.37287575392E+02 -0.14171650536E+03  0.15835300348E+03  0.00000000000E+00 0.  1.
         11    1    1    2    0    0 -0.25190456945E+02  0.12721304838E+02 -0.68721475171E+02  0.74290186886E+02  0.00000000000E+00 0. -1.
</event>
<event>
 7    1  0.2556591E-009  0.2476797E+03  0.7561462E-02  0.1114780E+00
          2   -1    0    0  501    0  0.00000000000E+00  0.00000000000E+00  0.15281996824E+03  0.15281996824E+03  0.00000000000E+00 0. -1.
         -2   -1    0    0    0  501 -0.00000000000E+00 -0.00000000000E+00 -0.44771879746E+03  0.44771879746E+03  0.00000000000E+00 0.  1.
         25    2    1    2    0    0 -0.22520995119E+03  0.36094562557E+02 -0.72932847693E+02  0.27015977851E+03  0.12507903936E+03 0.  0.
          5    1    3    3  502    0 -0.61029560380E+02 -0.45801323258E+02 -0.16757823398E+02  0.78234682191E+02  0.41800000000E+01 0.  1.
         -5    1    3    3    0  502 -0.16418039081E+03  0.81895885815E+02 -0.56175024296E+02  0.19192509632E+03  0.41800000000E+01 0.  1.
        -11    1    1    2    0    0  0.66304256789E+02 -0.38160136824E+02 -0.11746366173E+03  0.14017903673E+03  0.00000000000E+00 0.  1.
         11    1    1    2    0    0  0.15890569440E+03  0.20655742675E+01 -0.10450231980E+03  0.19019995046E+03  0.00000000000E+00 0. -1.
</event>
<event>
 7    1  0.2556591E-009  0.1446141E+03  0.7561462E-02  0.1207252E+00
          2   -1    0    0  501    0  0.00000000000E+00  0.00000000000E+00  0.13325975826E+04  0.13325975826E+04  0.00000000000E+00 0. -1.
         -2   -1    0    0    0  501 -0.00000000000E+00 -0.00000000000E+00 -0.19922568918E+02  0.19922568918E+02  0.00000000000E+00 0.  1.
         25    2    1    2    0    0 -0.11498178139E+03  0.32767781139E+02  0.58478236092E+03  0.60984636239E+03  0.12509052140E+03 0.  0.
          5    1    3    3  502    0 -0.49765245134E+02 -0.24429169777E+02  0.78639005857E+02  0.96306435930E+02  0.41800000000E+01 0.  1.
         -5    1    3    3    0  502 -0.65216536260E+02  0.57196950916E+02  0.50614335506E+03  0.51353992646E+03  0.41800000000E+01 0.  1.
        -11    1    1    2    0    0  0.80322554914E+02  0.20811582393E+02  0.37660533638E+03  0.38563767214E+03  0.00000000000E+00 0. -1.
         11    1    1    2    0    0  0.34659226479E+02 -0.53579363532E+02  0.35128731636E+03  0.35703611696E+03  0.00000000000E+00 0.  1.
</event>
<event>
 7    1  0.2556591E-009  0.1936760E+03  0.7561462E-02  0.1155187E+00
          1   -1    0    0  501    0  0.00000000000E+00  0.00000000000E+00  0.29001204013E+03  0.29001204013E+03  0.00000000000E+00 0. -1.
         -1   -1    0    0    0  501 -0.00000000000E+00 -0.00000000000E+00 -0.16351908067E+03  0.16351908067E+03  0.00000000000E+00 0.  1.
         25    2    1    2    0    0  0.17520632687E+03 -0.44084507714E+02  0.11089839443E+02  0.22002633598E+03  0.12509157922E+03 0.  0.
          5    1    3    3  502    0  0.10670979067E+03  0.12960115525E+02  0.54721525849E+02  0.12069325503E+03  0.41800000000E+01 0.  1.
         -5    1    3    3    0  502  0.68496536199E+02 -0.57044623239E+02 -0.43631686406E+02  0.99333080947E+02  0.41800000000E+01 0.  1.
        -11    1    1    2    0    0 -0.42651558953E+02  0.39145920329E+02  0.75192672956E+02  0.94897295145E+02  0.00000000000E+00 0. -1.
         11    1    1    2    0    0 -0.13255476792E+03  0.49385873852E+01  0.40210447052E+02  0.13860748968E+03  0.00000000000E+00 0.  1.
</event>
<event>
 7    1  0.2556591E-009  0.1222501E+03  0.7561462E-02  0.1239431E+00
         -2   -1    0    0    0  501 -0.00000000000E+00  0.00000000000E+00  0.26003882940E+03  0.26003882940E+03  0.00000000000E+00 0.  1.
          2   -1    0    0  501    0  0.00000000000E+00 -0.00000000000E+00 -0.66569602686E+02  0.66569602686E+02  0.00000000000E+00 0. -1.
         25    2    1    2    0    0 -0.70525514835E+02 -0.22777079008E+02  0.10932665464E+03  0.18192623558E+03  0.12510872953E+03 0.  0.
          5    1    3    3  502    0  0.26130058342E+02  0.88358971407E+01 -0.55522025063E+01  0.28445603877E+02  0.41800000000E+01 0. -1.
         -5    1    3    3    0  502 -0.96655573177E+02 -0.31612976149E+02  0.11487885715E+03  0.15348063170E+03  0.41800000000E+01 0. -1.
        -11    1    1    2    0    0  0.33836149253E+02  0.55932651702E+02  0.31872453540E+02  0.72726885107E+02  0.00000000000E+00 0.  1.
         11    1    1    2    0    0  0.36689365582E+02 -0.33155572694E+02  0.52270118527E+02  0.71955311398E+02  0.00000000000E+00 0. -1.
</event>
<event>
 7    1  0.2556591E-009  0.1376515E+03  0.7561462E-02  0.1216524E+00
         -3   -1    0    0    0  501 -0.00000000000E+00  0.00000000000E+00  0.86522044299E+02  0.86522044299E+02  0.00000000000E+00 0.  1.
          3   -1    0    0  501    0  0.00000000000E+00 -0.00000000000E+00 -0.27546322853E+03  0.27546322853E+03  0.00000000000E+00 0. -1.
         25    2    1    2    0    0  0.44527894332E+02 -0.77641998220E+02 -0.28716669422E+02  0.15647219247E+03  0.12509151311E+03 0.  0.
          5    1    3    3  502    0  0.71647474228E+01 -0.10425866981E+03 -0.51141112195E+01  0.10471308595E+03  0.41800000000E+01 0. -1.
         -5    1    3    3    0  502  0.37363146909E+02  0.26616671590E+02 -0.23602558203E+02  0.51759106515E+02  0.41800000000E+01 0. -1.
        -11    1    1    2    0    0 -0.57066378164E+02  0.12638908757E+02 -0.10096612567E+03  0.11666392786E+03  0.00000000000E+00 0. -1.
         11    1    1    2    0    0  0.12538483832E+02  0.65003089463E+02 -0.59258389134E+02  0.88849152496E+02  0.00000000000E+00 0.  1.
</event>
<event>
 7    1  0.2556591E-009  0.1243508E+03  0.7561462E-02  0.1236087E+00
          2   -1    0    0  501    0  0.00000000000E+00  0.00000000000E+00  0.14211328736E+03  0.14211328736E+03  0.00000000000E+00 0. -1.
         -2   -1    0    0    0  501 -0.00000000000E+00 -0.00000000000E+00 -0.12834223596E+03  0.12834223596E+03  0.00000000000E+00 0.  1.
         25    2    1    2    0    0 -0.64980965559E+02  0.36115005715E+02 -0.25189738404E+02  0.14767836750E+03  0.12509019859E+03 0.  0.
          5    1    3    3  502    0 -0.94045001170E+02 -0.39721626902E+01 -0.60050903596E+01  0.94412784260E+02  0.41800000000E+01 0. -1.
         -5    1    3    3    0  502  0.29064035611E+02  0.40087168405E+02 -0.19184648045E+02  0.53265583235E+02  0.41800000000E+01 0. -1.
        -11    1    1    2    0    0 -0.16694041613E+02 -0.60801286230E+01 -0.12457703404E+02  0.21699155826E+02  0.00000000000E+00 0.  1.
         11    1    1    2    0    0  0.81675007172E+02 -0.30034877092E+02  0.51418493209E+02  0.10107799999E+03  0.00000000000E+00 0. -1.
</event>
<event>
 7    1  0.2556591E-009  0.9913019E+02  0.7561462E-02  0.1282136E+00
         -2   -1    0    0    0  501 -0.00000000000E+00  0.00000000000E+00  0.26714902204E+03  0.26714902204E+03  0.00000000000E+00 0.  1.
          2   -1    0    0  501    0  0.00000000000E+00 -0.00000000000E+00 -0.71211198648E+02  0.71211198648E+02  0.00000000000E+00 0. -1.
         25    2    1    2    0    0 -0.26485357994E+02  0.63489289790E+02  0.16673184942E+03  0.21949812812E+03  0.12509018558E+03 0.  0.
          5    1    3    3  502    0 -0.74760675852E+01 -0.10348844305E+02  0.13683645851E+03  0.13749428695E+03  0.41800000000E+01 0. -1.
         -5    1    3    3    0  502 -0.19009290409E+02  0.73838134094E+02  0.29895390910E+02  0.82003841166E+02  0.41800000000E+01 0. -1.
        -11    1    1    2    0    0  0.56488642986E+02 -0.50504807384E+02  0.11518542898E+01  0.75782775904E+02  0.00000000000E+00 0. -1.
         11    1    1    2    0    0 -0.30003284992E+02 -0.12984482405E+02  0.28054119678E+02  0.43079316668E+02  0.00000000000E+00 0.  1.
</event>
<event>
 7    1  0.2556591E-009  0.1133600E+03  0.7561462E-02  0.1254471E+00
          1   -1    0    0  501    0  0.00000000000E+00  0.00000000000E+00  0.45214612290E+03  0.45214612290E+03  0.00000000000E+00 0. -1.
         -1   -1    0    0    0  501 -0.00000000000E+00 -0.00000000000E+00 -0.33657487028E+02  0.33657487028E+02  0.00000000000E+00 0.  1.
         25    2    1    2    0    0 -0.33051455729E+02  0.22360456418E+02  0.32477077119E+03  0.35030730776E+03  0.12508703895E+03 0.  0.
          5    1    3    3  502    0 -0.61845068189E+02 -0.30643400822E+02  0.14506345226E+03  0.16070067845E+03  0.41800000000E+01 0. -1.
         -5    1    3    3    0  502  0.28793612460E+02  0.53003857240E+02  0.17970731893E+03  0.18960662931E+03  0.41800000000E+01 0. -1.
        -11    1    1    2    0    0 -0.25136346346E+02  0.13725426556E+02  0.20288422552E+02  0.35097625723E+02  0.00000000000E+00 0.  1.
         11    1    1    2    0    0  0.58187802075E+02 -0.36085882974E+02  0.73429442134E+02  0.10039867645E+03  0.00000000000E+00 0. -1.
</event>
<event>
 7    1  0.2556591E-009  0.9989013E+02  0.7561462E-02  0.1280527E+00
          2   -1    0    0  501    0  0.00000000000E+00  0.00000000000E+00  0.66007706822E+03  0.66007706822E+03  0.00000000000E+00 0. -1.
         -2   -1    0    0    0  501 -0.00000000000E+00 -0.00000000000E+00 -0.25417359497E+02  0.25417359497E+02  0.00000000000E+00 0.  1.
         25    2    1    2    0    0 -0.77376536862E+02  0.19746897144E+01  0.37328065806E+03  0.40122081032E+03  0.12509460856E+03 0.  0.
          5    1    3    3  502    0 -0.64514238890E+02  0.19030215670E+02  0.37342087068E+03  0.37945336365E+03  0.41800000000E+01 0.  1.
         -5    1    3    3    0  502 -0.12862297971E+02 -0.17055525956E+02 -0.14021261571E+00  0.21767446665E+02  0.41800000000E+01 0.  1.
        -11    1    1    2    0    0  0.93875147150E+02 -0.42223155040E+01  0.20549000061E+03  0.22595687985E+03  0.00000000000E+00 0.  1.
         11    1    1    2    0    0 -0.16498610288E+02  0.22476257896E+01  0.55889050055E+02  0.58316737556E+02  0.00000000000E+00 0. -1.
</event>
<event>
 7    1  0.2556591E-009  0.1273731E+03  0.7561462E-02  0.1231406E+00
          2   -1    0    0  501    0  0.00000000000E+00  0.00000000000E+00  0.64029892403E+03  0.64029892403E+03  0.00000000000E+00 0. -1.
         -2   -1    0    0    0  501 -0.00000000000E+00 -0.00000000000E+00 -0.34237996130E+02  0.34237996130E+02  0.00000000000E+00 0.  1.
         25    2    1    2    0    0  0.37010354424E+02  0.88753769666E+02  0.25636775970E+03  0.30103030532E+03  0.12509124087E+03 0.  0.
          5    1    3    3  502    0  0.37021317775E+02 -0.13893594925E+02  0.22723358131E+02  0.45797743989E+02  0.41800000000E+01 0. -1.
         -5    1    3    3    0  502 -0.10963351347E-01  0.10264736459E+03  0.23364440157E+03  0.25523256133E+03  0.41800000000E+01 0. -1.
        -11    1    1    2    0    0  0.12988435280E+02 -0.41389529466E+02  0.24069686068E+03  0.24457467437E+03  0.00000000000E+00 0. -1.
         11    1    1    2    0    0 -0.49998789704E+02 -0.47364240200E+02  0.10899630752E+03  0.12893194047E+03  0.00000000000E+00 0.  1.
</event>
<event>
 7    1  0.2556591E-009  0.2201614E+03  0.7561462E-02  0.1133763E+00
         -2   -1    0    0    0  501 -0.00000000000E+00  0.00000000000E+00  0.66415392429E+02  0.66415392429E+02  0.00000000000E+00 0.  1.
          2   -1    0    0  501    0  0.00000000000E+00 -0.00000000000E+00 -0.77211381442E+03  0.77211381442E+03  0.00000000000E+00 0. -1.
         25    2    1    2    0    0 -0.18729257045E+03 -0.65630744402E+02 -0.35531238526E+03  0.42576978661E+03  0.12508844276E+03 0.  0.
          5    1    3    3  502    0 -0.12541750987E+03 -0.10127851324E+03 -0.22075867113E+03  0.27338389182E+03  0.41800000000E+01 0.  1.
         -5    1    3    3    0  502 -0.61875060583E+02  0.35647768840E+02 -0.13455371413E+03  0.15238589479E+03  0.41800000000E+01 0.  1.
        -11    1    1    2    0    0  0.11235496397E+03  0.70154274617E+02 -0.15759850333E+03  0.20587022230E+03  0.00000000000E+00 0.  1.
         11    1    1    2    0    0  0.74937606479E+02 -0.45235302148E+01 -0.19278753340E+03  0.20688919794E+03  0.00000000000E+00 0. -1.
</event>
<event>
 7    1  0.2556591E-009  0.1122049E+03  0.7561462E-02  0.1256540E+00
          4   -1    0    0  501    0  0.00000000000E+00  0.00000000000E+00  0.11861789341E+03  0.11861789341E+03  0.00000000000E+00 0.  1.
         -4   -1    0    0    0  501 -0.00000000000E+00 -0.00000000000E+00 -0.13449272363E+03  0.13449272363E+03  0.00000000000E+00 0. -1.
         25    2    1    2    0    0  0.21954195135E+01  0.50940105002E+02 -0.59632394075E+02  0.14766747698E+03  0.12509974888E+03 0.  0.
          5    1    3    3  502    0 -0.43982924636E+02  0.68338267691E+02 -0.54362558781E+02  0.97864072507E+02  0.41800000000E+01 0.  1.
         -5    1    3    3    0  502  0.46178344149E+02 -0.17398162689E+02 -0.52698352942E+01  0.49803404475E+02  0.41800000000E+01 0.  1.
        -11    1    1    2    0    0  0.37131999158E+02 -0.35151668689E+02  0.35555096579E+02  0.62278327417E+02  0.00000000000E+00 0.  1.
         11    1    1    2    0    0 -0.39327418672E+02 -0.15788436313E+02  0.82024672713E+01  0.43164812636E+02  0.00000000000E+00 0. -1.
</event>
<event>
 7    1  0.2556591E-009  0.7699413E+02  0.7561462E-02  0.1337805E+00
          1   -1    0    0  501    0  0.00000000000E+00  0.00000000000E+00  0.31317552948E+03  0.31317552948E+03  0.00000000000E+00 0. -1.
         -1   -1    0    0    0  501 -0.00000000000E+00 -0.00000000000E+00 -0.40962766066E+02  0.40962766066E+02  0.00000000000E+00 0.  1.
         25    2    1    2    0    0  0.37245111423E+02  0.80215929369E+01  0.18716345393E+03  0.22832021630E+03  0.12509363855E+03 0.  0.
          5    1    3    3  502    0  0.75004009814E+02  0.15154019562E+01  0.17051613194E+03  0.18633604478E+03  0.41800000000E+01 0. -1.
         -5    1    3    3    0  502 -0.37758898390E+02  0.65061909806E+01  0.16647321986E+02  0.41984171518E+02  0.41800000000E+01 0. -1.
        -11    1    1    2    0    0 -0.14682357216E+02 -0.98388179362E+01 -0.15036206704E+02  0.23204772437E+02  0.00000000000E+00 0.  1.
         11    1    1    2    0    0 -0.22562754208E+02  0.18172249994E+01  0.10008551618E+03  0.10261330681E+03  0.00000000000E+00 0. -1.
</event>
<event>
 7    1  0.2556591E-009  0.8114588E+02  0.7561462E-02  0.1325831E+00
         -1   -1    0    0    0  501 -0.00000000000E+00  0.00000000000E+00  0.88677123567E+02  0.88677123567E+02  0.00000000000E+00 0.  1.
          1   -1    0    0  501    0  0.00000000000E+00 -0.00000000000E+00 -0.14962629264E+03  0.14962629264E+03  0.00000000000E+00 0. -1.
         25    2    1    2    0    0  0.11848245242E+02  0.23361508077E+02 -0.16061906448E+02  0.12880997770E+03  0.12509150468E+03 0.  0.
          5    1    3    3  502    0 -0.22475099945E+02  0.31445388968E+01 -0.63007112420E+02  0.67099827555E+02  0.41800000000E+01 0.  1.
         -5    1    3    3    0  502  0.34323345187E+02  0.20216969181E+02  0.46945205972E+02  0.61710150149E+02  0.41800000000E+01 0.  1.
        -11    1    1    2    0    0  0.41033376635E+02  0.75706718714E+00 -0.12224031416E+02  0.42822168241E+02  0.00000000000E+00 0.  1.
         11    1    1    2    0    0 -0.52881621878E+02 -0.24118575265E+02 -0.32663231210E+02  0.66671270262E+02  0.00000000000E+00 0. -1.
</event>
<event>
 7    1  0.2556591E-009  0.1455126E+03  0.7561462E-02  0.1206098E+00
          2   -1    0    0  501    0  0.00000000000E+00  0.00000000000E+00  0.61658396646E+03  0.61658396646E+03  0.00000000000E+00 0. -1.
         -2   -1    0    0    0  501 -0.00000000000E+00 -0.00000000000E+00 -0.38183606930E+02  0.38183606930E+02  0.00000000000E+00 0.  1.
         25    2    1    2    0    0 -0.10094121019E+03  0.26629456764E+01  0.40410884320E+03  0.43491112633E+03  0.12509001341E+03 0.  0.
          5    1    3    3  502    0 -0.96313846720E+02 -0.49200722092E+02  0.28452372318E+03  0.30441466715E+03  0.41800000000E+01 0.  1.
         -5    1    3    3    0  502 -0.46273634746E+01  0.51863667768E+02  0.11958512003E+03  0.13049645918E+03  0.41800000000E+01 0.  1.
        -11    1    1    2    0    0  0.84087382109E+02 -0.37334887132E+02  0.98255508161E+02  0.13460581901E+03  0.00000000000E+00 0.  1.
         11    1    1    2    0    0  0.16853828086E+02  0.34671941456E+02  0.76036008168E+02  0.85250628054E+02  0.00000000000E+00 0. -1.
</event>
<event>
 7    1  0.2556591E-009  0.1073759E+03  0.7561462E-02  0.1265508E+00
          1   -1    0    0  501    0  0.00000000000E+00  0.00000000000E+00  0.46212881692E+03  0.46212881692E+03  0.00000000000E+00 0. -1.
         -1   -1    0    0    0  501 -0.00000000000E+00 -0.00000000000E+00 -0.31989165161E+02  0.31989165161E+02  0.00000000000E+00 0.  1.
         25    2    1    2    0    0 -0.22676665853E+01  0.47853088400E+02  0.18172658737E+03  0.22575513747E+03  0.12508304902E+03 0.  0.
          5    1    3    3  502    0  0.55841364191E+02  0.23130790515E+02  0.13209741737E+03  0.14532890800E+03  0.41800000000E+01 0. -1.
         -5    1    3    3    0  502 -0.58109030777E+02  0.24722297885E+02  0.49629170000E+02  0.80426229461E+02  0.41800000000E+01 0. -1.
        -11    1    1    2    0    0 -0.29993494296E+02 -0.50257142147E+02  0.21068962604E+03  0.21866757546E+03  0.00000000000E+00 0. -1.
         11    1    1    2    0    0  0.32261160881E+02  0.24040537473E+01  0.37723438346E+02  0.49695269156E+02  0.00000000000E+00 0.  1.
</event>
<event>
 7    1  0.2556591E-009  0.9094552E+02  0.7561462E-02  0.1300578E+00
         -1   -1    0    0    0  501 -0.00000000000E+00  0.00000000000E+00  0.33748803993E+02  0.33748803993E+02  0.00000000000E+00 0.  1.
          1   -1    0    0  501    0  0.00000000000E+00 -0.00000000000E+00 -0.34887433784E+03  0.34887433784E+03  0.00000000000E+00 0. -1.
         25    2    1    2    0    0  0.87879022639E+01 -0.12006271678E+02 -0.16154580586E+03  0.20485511851E+03  0.12508874612E+03 0.  0.
          5    1    3    3  502    0  0.48407012647E+01  0.56677840872E+02 -0.71955846671E+02  0.91820075717E+02  0.41800000000E+01 0.  1.
         -5    1    3    3    0  502  0.39472009992E+01 -0.68684112550E+02 -0.89589959190E+02  0.11303504280E+03  0.41800000000E+01 0.  1.
        -11    1    1    2    0    0 -0.99607298311E+01 -0.20821009063E+02 -0.25661325343E+01  0.23223169322E+02  0.00000000000E+00 0.  1.
         11    1    1    2    0    0  0.11728275672E+01  0.32827280740E+02 -0.15101359546E+03  0.15454485400E+03  0.00000000000E+00 0. -1.
</event>
<event>
 7    1  0.2556591E-009  0.5961693E+02  0.7561462E-02  0.1399446E+00
         -1   -1    0    0    0  501 -0.00000000000E+00  0.00000000000E+00  0.21237858575E+02  0.21237858575E+02  0.00000000000E+00 0.  1.
          1   -1    0    0  501    0  0.00000000000E+00 -0.00000000000E+00 -0.62332925881E+03  0.62332925881E+03  0.00000000000E+00 0. -1.
         25    2    1    2    0    0  0.25371288347E+02  0.28383068370E+02 -0.33380289711E+03  0.35849802310E+03  0.12508859904E+03 0.  0.
          5    1    3    3  502    0  0.16835756992E+02 -0.54344977147E+01  0.42143641230E+01  0.18660378985E+02  0.41800000000E+01 0. -1.
         -5    1    3    3    0  502  0.85355313553E+01  0.33817566085E+02 -0.33801726123E+03  0.33983764412E+03  0.41800000000E+01 0. -1.
        -11    1    1    2    0    0 -0.10673736365E+02 -0.43531627847E+02 -0.25927105404E+03  0.26311672455E+03  0.00000000000E+00 0. -1.
         11    1    1    2    0    0 -0.14697551982E+02  0.15148559476E+02 -0.90174490864E+01  0.22952369736E+02  0.00000000000E+00 0.  1.
</event>
<event>
 7    1  0.2556591E-009  0.2127180E+03  0.7561462E-02  0.1139432E+00
         -1   -1    0    0    0  501 -0.00000000000E+00  0.00000000000E+00  0.52256886182E+02  0.52256886182E+02  0.00000000000E+00 0.  1.
          1   -1    0    0  501    0  0.00000000000E+00 -0.00000000000E+00 -0.11420947620E+04  0.11420947620E+04  0.00000000000E+00 0. -1.
         25    2    1    2    0    0 -0.12877225099E+03  0.15836997746E+03 -0.41229284086E+03  0.47675636776E+03  0.12509158721E+03 0.  0.
          5    1    3    3  502    0  0.57594110138E+01  0.29590884194E+02 -0.16154423140E+03  0.16438613792E+03  0.41800000000E+01 0.  1.
         -5    1    3    3    0  502 -0.13453166200E+03  0.12877909327E+03 -0.25074860946E+03  0.31237022984E+03  0.41800000000E+01 0.  1.
        -11    1    1    2    0    0  0.36968871760E+02 -0.79561498070E+02 -0.46342614216E+03  0.47165720464E+03  0.00000000000E+00 0. -1.
         11    1    1    2    0    0  0.91803379227E+02 -0.78808479391E+02 -0.21411889275E+03  0.24593807573E+03  0.00000000000E+00 0.  1.
</event>
<event>
 7    1  0.2556591E-009  0.9279029E+02  0.7561462E-02  0.1296232E+00
          3   -1    0    0  501    0  0.00000000000E+00  0.00000000000E+00  0.21035043670E+03  0.21035043670E+03  0.00000000000E+00 0. -1.
         -3   -1    0    0    0  501 -0.00000000000E+00 -0.00000000000E+00 -0.99884815169E+02  0.99884815169E+02  0.00000000000E+00 0.  1.
         25    2    1    2    0    0  0.23797829645E+02  0.93451045327E+01 -0.36150670582E+02  0.13269330880E+03  0.12508787129E+03 0.  0.
          5    1    3    3  502    0 -0.20639017319E+02 -0.23289248239E+02  0.32069285719E+02  0.44880615035E+02  0.41800000000E+01 0.  1.
         -5    1    3    3    0  502  0.44436846964E+02  0.32634352771E+02 -0.68219956301E+02  0.87812693767E+02  0.41800000000E+01 0.  1.
        -11    1    1    2    0    0 -0.61053251876E+02 -0.32397232053E+01  0.10372177251E+03  0.12040017219E+03  0.00000000000E+00 0.  1.
         11    1    1    2    0    0  0.37255422230E+02 -0.61053813275E+01  0.42894519602E+02  0.57141770874E+02  0.00000000000E+00 0. -1.
</event>
<event>
 7    1  0.2556591E-009  0.1147493E+03  0.7561462E-02  0.1252019E+00
          2   -1    0    0  501    0  0.00000000000E+00  0.00000000000E+00  0.29257703403E+02  0.29257703403E+02  0.00000000000E+00 0. -1.
         -2   -1    0    0    0  501 -0.00000000000E+00 -0.00000000000E+00 -0.54033229359E+03  0.54033229359E+03  0.00000000000E+00 0.  1.
         25    2    1    2    0    0  0.31009965210E+02  0.40881411373E+02 -0.20087913377E+03  0.24214243595E+03  0.12509046793E+03 0.  0.
          5    1    3    3  502    0 -0.47448977913E+02  0.26933502409E+02 -0.93880128560E+02  0.10866356333E+03  0.41800000000E+01 0.  1.
         -5    1    3    3    0  502  0.78458943123E+02  0.13947908964E+02 -0.10699900521E+03  0.13347887262E+03  0.41800000000E+01 0.  1.
        -11    1    1    2    0    0  0.26985059455E+02 -0.18960510139E+02 -0.18297784820E+03  0.18592629537E+03  0.00000000000E+00 0.  1.
         11    1    1    2    0    0 -0.57995024665E+02 -0.21920901234E+02 -0.12721760822E+03  0.14152126568E+03  0.00000000000E+00 0. -1.
</event>
<event>
 7    1  0.2556591E-009  0.9290774E+02  0.7561462E-02  0.1295959E+00
          1   -1    0    0  501    0  0.00000000000E+00  0.00000000000E+00  0.41009975719E+03  0.41009975719E+03  0.00000000000E+00 0. -1.
         -1   -1    0    0    0  501 -0.00000000000E+00 -0.00000000000E+00 -0.30190972915E+02  0.30190972915E+02  0.00000000000E+00 0.  1.
         25    2    1    2    0    0  0.17119934349E+02 -0.20277976771E+02  0.22848418999E+03  0.26182995345E+03  0.12508241666E+03 0.  0.
          5    1    3    3  502    0  0.35699580582E+02 -0.46696913774E+02  0.22058186632E+03  0.22831752880E+03  0.41800000000E+01 0.  1.
         -5    1    3    3    0  502 -0.18579646233E+02  0.26418937003E+02  0.79023236672E+01  0.33512424649E+02  0.41800000000E+01 0.  1.
        -11    1    1    2    0    0 -0.35098975308E+02  0.49096852473E+02  0.10115191595E+03  0.11778857793E+03  0.00000000000E+00 0.  1.
         11    1    1    2    0    0  0.17979040958E+02 -0.28818875702E+02  0.50272678332E+02  0.60672198717E+02  0.00000000000E+00 0. -1.
</event>
<event>
 7    1  0.2556591E-009  0.9414543E+02  0.7561462E-02  0.1293112E+00
          3   -1    0    0  501    0  0.00000000000E+00  0.00000000000E+00  0.28868463464E+03  0.28868463464E+03  0.00000000000E+00 0. -1.
         -3   -1    0    0    0  501 -0.00000000000E+00 -0.00000000000E+00 -0.56098547377E+02  0.56098547377E+02  0.00000000000E+00 0.  1.
         25    2    1    2    0    0 -0.57724696611E+02 -0.62726777937E+01  0.16474274593E+03  0.21484659785E+03  0.12508957264E+03 0.  0.
          5    1    3    3  502    0  0.28156830347E+02  0.18404901859E+02  0.87231028024E+01  0.35001606108E+02  0.41800000000E+01 0.  1.
         -5    1    3    3    0  502 -0.85881526959E+02 -0.24677579653E+02  0.15601964313E+03  0.17984499174E+03  0.41800000000E+01 0.  1.
        -11    1    1    2    0    0  0.13264447867E+02 -0.11009558921E+02 -0.22159218387E+02  0.28074666950E+02  0.00000000000E+00 0.  1.
         11    1    1    2    0    0  0.44460248744E+02  0.17282236714E+02  0.90002559716E+02  0.10186191722E+03  0.00000000000E+00 0. -1.
</event>
<event>
 7    1  0.2556591E-009  0.1106165E+03  0.7561462E-02  0.1259432E+00
          2   -1    0    0  501    0  0.00000000000E+00  0.00000000000E+00  0.54393108981E+02  0.54393108981E+02  0.00000000000E+00 0. -1.
         -2   -1    0    0    0  501 -0.00000000000E+00 -0.00000000000E+00 -0.36441472136E+03  0.36441472136E+03  0.00000000000E+00 0.  1.
         25    2    1    2    0    0 -0.28872889043E+02 -0.80556048854E+02 -0.20742746485E+03  0.25689595194E+03  0.12508579544E+03 0.  0.
          5    1    3    3  502    0 -0.39651155702E+02 -0.53046399325E+02 -0.21590677871E+03  0.22587462036E+03  0.41800000000E+01 0.  1.
         -5    1    3    3    0  502  0.10778266659E+02 -0.27509649528E+02  0.84793138643E+01  0.31021331579E+02  0.41800000000E+01 0.  1.
        -11    1    1    2    0    0 -0.83543613607E+01  0.86873162480E+02 -0.67073525611E+02  0.11007088421E+03  0.00000000000E+00 0.  1.
         11    1    1    2    0    0  0.37227250403E+02 -0.63171136265E+01 -0.35520621926E+02  0.51840994195E+02  0.00000000000E+00 0. -1.
</event>
<event>
 7    1  0.2556591E-009  0.1067116E+03  0.7561462E-02  0.1266783E+00
          2   -1    0    0  501    0  0.00000000000E+00  0.00000000000E+00  0.63547137731E+03  0.63547137731E+03  0.00000000000E+00 0. -1.
         -2   -1    0    0    0  501 -0.00000000000E+00 -0.00000000000E+00 -0.19890523820E+02  0.19890523820E+02  0.00000000000E+00 0.  1.
         25    2    1    2    0    0  0.15249246268E+01  0.61150047578E+01  0.43861463562E+03  0.45614710511E+03  0.12509062413E+03 0.  0.
          5    1    3    3  502    0 -0.22931942874E+02 -0.54320187147E+02  0.18264055898E+03  0.19196771323E+03  0.41800000000E+01 0.  1.
         -5    1    3    3    0  502  0.24456867500E+02  0.60435191904E+02  0.25597407663E+03  0.26417939189E+03  0.41800000000E+01 0.  1.
        -11    1    1    2    0    0 -0.42527272487E+02 -0.18168271239E+02  0.68664347595E+02  0.82785551974E+02  0.00000000000E+00 0.  1.
         11    1    1    2    0    0  0.41002347860E+02  0.12053266481E+02  0.10830187028E+03  0.11642924404E+03  0.00000000000E+00 0. -1.
</event>
<event>
 7    1  0.2556591E-009  0.1148005E+03  0.7561462E-02  0.1251930E+00
          2   -1    0    0  501    0  0.00000000000E+00  0.00000000000E+00  0.12232628211E+04  0.12232628211E+04  0.00000000000E+00 0.  1.
         -2   -1    0    0    0  501 -0.00000000000E+00 -0.00000000000E+00 -0.21719265564E+02  0.21719265564E+02  0.00000000000E+00 0. -1.
         25    2    1    2    0    0 -0.71854747464E+02  0.20988982232E+02  0.10775376612E+04  0.10873538734E+04  0.12508953839E+03 0.  0.
          5    1    3    3  502    0 -0.88178259357E+02 -0.21252736042E+02  0.51187198725E+03  0.51986295111E+03  0.41800000000E+01 0.  1.
         -5    1    3    3    0  502  0.16323511893E+02  0.42241718274E+02  0.56566567395E+03  0.56749092229E+03  0.41800000000E+01 0.  1.
        -11    1    1    2    0    0  0.51664819216E+02  0.13463611840E+02  0.48112395040E+02  0.71870195108E+02  0.00000000000E+00 0.  1.
         11    1    1    2    0    0  0.20189928248E+02 -0.34452594072E+02  0.75893499333E+02  0.85758018179E+02  0.00000000000E+00 0. -1.
</event>
<event>
 7    1  0.2556591E-009  0.1020117E+03  0.7561462E-02  0.1276122E+00
         -4   -1    0    0    0  501 -0.00000000000E+00  0.00000000000E+00  0.96202770140E+02  0.96202770140E+02  0.00000000000E+00 0.  1.
          4   -1    0    0  501    0  0.00000000000E+00 -0.00000000000E+00 -0.13948777115E+03  0.13948777115E+03  0.00000000000E+00 0. -1.
         25    2    1    2    0    0  0.35117497759E+01  0.48475652277E+02 -0.93682732493E+01  0.13452052220E+03  0.12508311276E+03 0.  0.
          5    1    3    3  502    0  0.42632696753E+02 -0.13510515700E+02 -0.34801930470E+02  0.56821893944E+02  0.41800000000E+01 0. -1.
         -5    1    3    3    0  502 -0.39120946977E+02  0.61986167977E+02  0.25433657221E+02  0.77698628253E+02  0.41800000000E+01 0. -1.
        -11    1    1    2    0    0  0.95740045633E+01 -0.64382496624E+02 -0.44825745150E+01  0.65244623604E+02  0.00000000000E+00 0.  1.
         11    1    1    2    0    0 -0.13085754339E+02  0.15906844347E+02 -0.29434153245E+02  0.35925395488E+02  0.00000000000E+00 0. -1.
</event>
<event>
 7    1  0.2556591E-009  0.1012881E+03  0.7561462E-02  0.1277610E+00
         -2   -1    0    0    0  501 -0.00000000000E+00  0.00000000000E+00  0.19927899337E+02  0.19927899337E+02  0.00000000000E+00 0. -1.
          2   -1    0    0  501    0  0.00000000000E+00 -0.00000000000E+00 -0.98795609013E+03  0.98795609013E+03  0.00000000000E+00 0.  1.
         25    2    1    2    0    0 -0.52732464329E+02 -0.29445238805E+02 -0.75562638207E+03  0.76828849496E+03  0.12509295473E+03 0.  0.
          5    1    3    3  502    0  0.18888562703E+02 -0.14098056737E+02 -0.53985214914E+03  0.54038259440E+03  0.41800000000E+01 0.  1.
         -5    1    3    3    0  502 -0.71621027032E+02 -0.15347182068E+02 -0.21577423293E+03  0.22790590055E+03  0.41800000000E+01 0.  1.
        -11    1    1    2    0    0 -0.20622967672E+02 -0.89442738209E+01 -0.82867317900E+02  0.85862094114E+02  0.00000000000E+00 0.  1.
         11    1    1    2    0    0  0.73355432001E+02  0.38389512626E+02 -0.12953449082E+03  0.15373340039E+03  0.00000000000E+00 0. -1.
</event>
<event>
 7    1  0.2556591E-009  0.1003367E+03  0.7561462E-02  0.1279589E+00
          1   -1    0    0  501    0  0.00000000000E+00  0.00000000000E+00  0.18815136732E+03  0.18815136732E+03  0.00000000000E+00 0. -1.
         -1   -1    0    0    0  501 -0.00000000000E+00 -0.00000000000E+00 -0.88972210322E+02  0.88972210322E+02  0.00000000000E+00 0.  1.
         25    2    1    2    0    0  0.11291017482E+02 -0.18300693868E+02  0.12559123327E+03  0.17855793351E+03  0.12508946908E+03 0.  0.
          5    1    3    3  502    0  0.50222374596E+02 -0.53230906033E+02  0.61178957121E+02  0.95478549746E+02  0.41800000000E+01 0. -1.
         -5    1    3    3    0  502 -0.38931357114E+02  0.34930212166E+02  0.64412276148E+02  0.83079383768E+02  0.41800000000E+01 0. -1.
        -11    1    1    2    0    0 -0.96637055225E+01  0.46074960970E+02 -0.44984355232E+02  0.65114372058E+02  0.00000000000E+00 0.  1.
         11    1    1    2    0    0 -0.16273119597E+01 -0.27774267102E+02  0.18572278960E+02  0.33451272069E+02  0.00000000000E+00 0. -1.
</event>
<event>
 7    1  0.2556591E-009  0.1130094E+03  0.7561462E-02  0.1255096E+00
         -2   -1    0    0    0  501 -0.00000000000E+00  0.00000000000E+00  0.29572682980E+02  0.29572682980E+02  0.00000000000E+00 0.  1.
          2   -1    0    0  501    0  0.00000000000E+00 -0.00000000000E+00 -0.62241992414E+03  0.62241992414E+03  0.00000000000E+00 0. -1.
         25    2    1    2    0    0  0.24134422341E+02 -0.54231282760E+02 -0.39927981156E+03  0.42260577142E+03  0.12509103783E+03 0.  0.
          5    1    3    3  502    0  0.71345215697E+02 -0.24186594197E+02 -0.29133122375E+03  0.30094266144E+03  0.41800000000E+01 0.  1.
         -5    1    3    3    0  502 -0.47210793356E+02 -0.30044688564E+02 -0.10794858781E+03  0.12166310998E+03  0.41800000000E+01 0.  1.
        -11    1    1    2    0    0  0.76732161677E+01  0.61375464989E+02 -0.43002006394E+02  0.75332585930E+02  0.00000000000E+00 0.  1.
         11    1    1    2    0    0 -0.31807638508E+02 -0.71441822286E+01 -0.15056542321E+03  0.15405424977E+03  0.00000000000E+00 0. -1.
</event>
<event>
 7    1  0.2998767E-009  0.7727755E+02  0.7561462E-02  0.1336960E+00
         -2   -1    0    0    0  501 -0.00000000000E+00  0.00000000000E+00  0.70587131948E+02  0.70587131948E+02  0.00000000000E+00 0.  1.
          2   -1    0    0  501    0  0.00000000000E+00 -0.00000000000E+00 -0.20276862246E+03  0.20276862246E+03  0.00000000000E+00 0. -1.
         25    2    1    2    0    0 -0.17426771139E+02 -0.26730820153E+02 -0.11961058186E+03  0.17598795546E+03  0.12508732980E+03 0.  0.
          5    1    3    3  502    0 -0.54613460304E+02  0.75826556956E+01 -0.11165488887E+03  0.12459700366E+03  0.41800000000E+01 0.  1.
         -5    1    3    3    0  502  0.37186689165E+02 -0.34313475848E+02 -0.79556929952E+01  0.51390951800E+02  0.41800000000E+01 0.  1.
        -11    1    1    2    0    0 -0.10845737064E+02  0.22213279813E+01  0.35077911824E+02  0.36783477383E+02  0.00000000000E+00 0.  1.
         11    1    1    2    0    0  0.28272508203E+02  0.24509492171E+02 -0.47648820473E+02  0.60584321561E+02  0.00000000000E+00 0. -1.
</event>
<event>
 7    1  0.2556591E-009  0.1899544E+03  0.7561462E-02  0.1158502E+00
          2   -1    0    0  501    0  0.00000000000E+00  0.00000000000E+00  0.11754513031E+04  0.11754513031E+04  0.00000000000E+00 0.  1.
         -2   -1    0    0    0  501 -0.00000000000E+00 -0.00000000000E+00 -0.37728620383E+02  0.37728620383E+02  0.00000000000E+00 0. -1.
         25    2    1    2    0    0 -0.48619420858E+02 -0.17090699939E+03  0.70022771200E+03  0.73317055877E+03  0.12508864481E+03 0.  0.
          5    1    3    3  502    0 -0.37257784080E+02 -0.56348039000E+02  0.92473719951E+02  0.11459539805E+03  0.41800000000E+01 0.  1.
         -5    1    3    3    0  502 -0.11361636778E+02 -0.11455896039E+03  0.60775399205E+03  0.61857516071E+03  0.41800000000E+01 0.  1.
        -11    1    1    2    0    0 -0.22138201335E+02  0.72648816703E+02  0.18500708466E+03  0.19998892944E+03  0.00000000000E+00 0.  1.
         11    1    1    2    0    0  0.70757622193E+02  0.98258182686E+02  0.25248788603E+03  0.28002043524E+03  0.00000000000E+00 0. -1.
</event>
<event>
 7    1  0.2556591E-009  0.9942687E+02  0.7561462E-02  0.1281506E+00
         -1   -1    0    0    0  501 -0.00000000000E+00  0.00000000000E+00  0.66000927535E+02  0.66000927535E+02  0.00000000000E+00 0.  1.
          1   -1    0    0  501    0  0.00000000000E+00 -0.00000000000E+00 -0.25308869280E+03  0.25308869280E+03  0.00000000000E+00 0. -1.
         25    2    1    2    0    0 -0.10296968702E+02 -0.78729310061E+01 -0.18889167529E+03  0.22692586249E+03  0.12508905414E+03 0.  0.
          5    1    3    3  502    0 -0.65229483220E+02  0.41838160351E+01 -0.12891697229E+03  0.14460099565E+03  0.41800000000E+01 0. -1.
         -5    1    3    3    0  502  0.54932514518E+02 -0.12056747041E+02 -0.59974703001E+02  0.82324866842E+02  0.41800000000E+01 0. -1.
        -11    1    1    2    0    0  0.61285906529E+01 -0.34168582069E+02 -0.24416532847E+02  0.42440766962E+02  0.00000000000E+00 0. -1.
         11    1    1    2    0    0  0.41683780489E+01  0.42041513075E+02  0.26220442879E+02  0.49722990879E+02  0.00000000000E+00 0.  1.
</event>
<event>
 7    1  0.2556591E-009  0.1898614E+03  0.7561462E-02  0.1158586E+00
         -3   -1    0    0    0  501 -0.00000000000E+00  0.00000000000E+00  0.11349492359E+03  0.11349492359E+03  0.00000000000E+00 0.  1.
          3   -1    0    0  501    0  0.00000000000E+00 -0.00000000000E+00 -0.49000249774E+03  0.49000249774E+03  0.00000000000E+00 0. -1.
         25    2    1    2    0    0  0.81305046658E+02  0.16848234141E+03 -0.31477825233E+03  0.38694932637E+03  0.12509045950E+03 0.  0.
          5    1    3    3  502    0  0.14876238314E+02  0.50537423241E+02 -0.20765556243E+03  0.21427468031E+03  0.41800000000E+01 0. -1.
         -5    1    3    3    0  502  0.66428808344E+02  0.11794491817E+03 -0.10712268990E+03  0.17267464605E+03  0.41800000000E+01 0. -1.
        -11    1    1    2    0    0 -0.29148968112E+02 -0.23739495118E+02  0.19735363897E+02  0.42458339094E+02  0.00000000000E+00 0.  1.
         11    1    1    2    0    0 -0.52156078546E+02 -0.14474284629E+03 -0.81464685715E+02  0.17408975587E+03  0.00000000000E+00 0. -1.
</event>
<event>
 7    1  0.2556591E-009  0.1273746E+03  0.7561462E-02  0.1231404E+00
         -1   -1    0    0    0  501 -0.00000000000E+00  0.00000000000E+00  0.27064543775E+02  0.27064543775E+02  0.00000000000E+00 0.  1.
          1   -1    0    0  501    0  0.00000000000E+00 -0.00000000000E+00 -0.82634826313E+03  0.82634826313E+03  0.00000000000E+00 0. -1.
         25    2    1    2    0    0 -0.44049105758E+01 -0.97060356416E+02 -0.53005353775E+03  0.55321307751E+03  0.12509132750E+03 0.  0.
          5    1    3    3  502    0 -0.38534248482E+02 -0.60004325913E+02 -0.11704160137E+03  0.13711898587E+03  0.41800000000E+01 0.  1.
         -5    1    3    3    0  502  0.34129337907E+02 -0.37056030503E+02 -0.41301193638E+03  0.41609409163E+03  0.41800000000E+01 0.  1.
        -11    1    1    2    0    0 -0.42993889196E+02  0.50479102786E+02 -0.13109886619E+03  0.14691333174E+03  0.00000000000E+00 0.  1.
         11    1    1    2    0    0  0.47398799772E+02  0.46581253630E+02 -0.13813131541E+03  0.15328639766E+03  0.00000000000E+00 0. -1.
</event>
<event>
 7    1  0.2556591E-009  0.2253226E+03  0.7561462E-02  0.1129976E+00
          2   -1    0    0  501    0  0.00000000000E+00  0.00000000000E+00  0.89380166232E+03  0.89380166232E+03  0.00000000000E+00 0. -1.
         -2   -1    0    0    0  501 -0.00000000000E+00 -0.00000000000E+00 -0.67274180856E+02  0.67274180856E+02  0.00000000000E+00 0.  1.
         25    2    1    2    0    0 -0.21132524575E+03  0.89726609390E+01  0.31201527636E+03  0.39716447229E+03  0.12508883736E+03 0.  0.
          5    1    3    3  502    0 -0.16565453729E+03 -0.38781233157E+02  0.17036951823E+03  0.24080833647E+03  0.41800000000E+01 0. -1.
         -5    1    3    3    0  502 -0.45670708451E+02  0.47753894096E+02  0.14164575813E+03  0.15635613582E+03  0.41800000000E+01 0. -1.
        -11    1    1    2    0    0  0.15337944735E+03 -0.21746843011E+02  0.26068305027E+03  0.30323890375E+03  0.00000000000E+00 0.  1.
         11    1    1    2    0    0  0.57945798393E+02  0.12774182072E+02  0.25382915483E+03  0.26067246713E+03  0.00000000000E+00 0. -1.
</event>
<event>
 7    1  0.2556591E-009  0.1334992E+03  0.7561462E-02  0.1222354E+00
         -1   -1    0    0    0  501 -0.00000000000E+00  0.00000000000E+00  0.10061083338E+03  0.10061083338E+03  0.00000000000E+00 0.  1.
          1   -1    0    0  501    0  0.00000000000E+00 -0.00000000000E+00 -0.26157398212E+03  0.26157398212E+03  0.00000000000E+00 0. -1.
         25    2    1    2    0    0 -0.91608722385E+02 -0.54268196509E+02 -0.14140197809E+03  0.21674743035E+03  0.12509090289E+03 0.  0.
          5    1    3    3  502    0 -0.77704699172E+02 -0.89604997450E+02 -0.75761282173E+02  0.14079886405E+03  0.41800000000E+01 0. -1.
         -5    1    3    3    0  502 -0.13904023213E+02  0.35336800941E+02 -0.65640695915E+02  0.75948566296E+02  0.41800000000E+01 0. -1.
        -11    1    1    2    0    0  0.43051797265E+02  0.95340603914E+01 -0.55009231704E+02  0.70500859058E+02  0.00000000000E+00 0. -1.
         11    1    1    2    0    0  0.48556925120E+02  0.44734136118E+02  0.35448061054E+02  0.74936526099E+02  0.00000000000E+00 0.  1.
</event>
<event>
 7    1  0.2556591E-009  0.2619330E+03  0.7561462E-02  0.1105987E+00
         -2   -1    0    0    0  501 -0.00000000000E+00  0.00000000000E+00  0.46485832526E+02  0.46485832526E+02  0.00000000000E+00 0.  1.
          2   -1    0    0  501    0  0.00000000000E+00 -0.00000000000E+00 -0.15811339589E+04  0.15811339589E+04  0.00000000000E+00 0. -1.
         25    2    1    2    0    0 -0.21502544265E+02 -0.24644286833E+03 -0.72786513492E+03  0.77886632908E+03  0.12509459295E+03 0.  0.
          5    1    3    3  502    0 -0.67386165038E+02 -0.11701965161E+03 -0.28935939896E+03  0.31934437253E+03  0.41800000000E+01 0.  1.
         -5    1    3    3    0  502  0.45883620774E+02 -0.12942321671E+03 -0.43850573596E+03  0.45952195655E+03  0.41800000000E+01 0.  1.
        -11    1    1    2    0    0 -0.11168190948E+02  0.12904749376E+03 -0.54220395912E+03  0.55746131473E+03  0.00000000000E+00 0. -1.
         11    1    1    2    0    0  0.32670735213E+02  0.11739537456E+03 -0.26457903230E+03  0.29129214758E+03  0.00000000000E+00 0.  1.
</event>
<event>
 7    1  0.2556591E-009  0.8959682E+02  0.7561462E-02  0.1303831E+00
          1   -1    0    0  501    0  0.00000000000E+00  0.00000000000E+00  0.77314031120E+02  0.77314031120E+02  0.00000000000E+00 0. -1.
         -1   -1    0    0    0  501 -0.00000000000E+00 -0.00000000000E+00 -0.18651843474E+03  0.18651843474E+03  0.00000000000E+00 0.  1.
         25    2    1    2    0    0 -0.40693722901E+02 -0.62223987009E+01 -0.24482607673E+02  0.13394807978E+03  0.12509193687E+03 0.  0.
          5    1    3    3  502    0 -0.39684864381E+02  0.27740760715E+02  0.38674182000E+02  0.62109604888E+02  0.41800000000E+01 0.  1.
         -5    1    3    3    0  502 -0.10088585203E+01 -0.33963159416E+02 -0.63156789672E+02  0.71838474891E+02  0.41800000000E+01 0.  1.
        -11    1    1    2    0    0  0.97059734016E+01 -0.39750585245E+02 -0.49406058691E+02  0.64150398147E+02  0.00000000000E+00 0. -1.
         11    1    1    2    0    0  0.30987749500E+02  0.45972983945E+02 -0.35315737256E+02  0.65733987935E+02  0.00000000000E+00 0.  1.
</event>
<event>
 7    1  0.2556591E-009  0.1785595E+03  0.7561462E-02  0.1169204E+00
         -2   -1    0    0    0  501 -0.00000000000E+00  0.00000000000E+00  0.26192812390E+03  0.26192812390E+03  0.00000000000E+00 0.  1.
          2   -1    0    0  501    0  0.00000000000E+00 -0.00000000000E+00 -0.17778059072E+03  0.17778059072E+03  0.00000000000E+00 0. -1.
         25    2    1    2    0    0  0.45571319987E+02  0.13694707082E+03 -0.72520030141E+02  0.20429891700E+03  0.12509055642E+03 0.  0.
          5    1    3    3  502    0  0.51934714589E+02  0.65482267090E+01 -0.48509741681E+02  0.71489588685E+02  0.41800000000E+01 0.  1.
         -5    1    3    3    0  502 -0.63633946015E+01  0.13039884411E+03 -0.24010288460E+02  0.13280932831E+03  0.41800000000E+01 0.  1.
        -11    1    1    2    0    0 -0.74851380184E+02 -0.77647208694E+02  0.80782316698E+02  0.13475014221E+03  0.00000000000E+00 0. -1.
         11    1    1    2    0    0  0.29280060197E+02 -0.59299862123E+02  0.75885246624E+02  0.10065965541E+03  0.00000000000E+00 0.  1.
</event>
<event>
 7    1  0.2556591E-009  0.1875570E+03  0.7561462E-02  0.1160683E+00
         -1   -1    0    0    0  501 -0.00000000000E+00  0.00000000000E+00  0.99060011804E+02  0.99060011804E+02  0.00000000000E+00 0.  1.
          1   -1    0    0  501    0  0.00000000000E+00 -0.00000000000E+00 -0.40197703266E+03  0.40197703266E+03  0.00000000000E+00 0. -1.
         25    2    1    2    0    0  0.88728134329E+02 -0.14098331860E+03 -0.18774937936E+03  0.28044339748E+03  0.12509872819E+03 0.  0.
          5    1    3    3  502    0 -0.44589498552E+01  0.14407846725E+02 -0.51152377227E+02  0.53493049801E+02  0.41800000000E+01 0. -1.
         -5    1    3    3    0  502  0.93187084184E+02 -0.15539116532E+03 -0.13659700213E+03  0.22695034768E+03  0.41800000000E+01 0. -1.
        -11    1    1    2    0    0 -0.11338048403E+02  0.76940994742E+02 -0.86091139209E+02  0.11601789631E+03  0.00000000000E+00 0.  1.
         11    1    1    2    0    0 -0.77390085926E+02  0.64042323856E+02 -0.29076502290E+02  0.10457575068E+03  0.00000000000E+00 0. -1.
</event>
<event>
 7    1  0.2556591E-009  0.1611797E+03  0.7561462E-02  0.1187371E+00
         -2   -1    0    0    0  501 -0.00000000000E+00  0.00000000000E+00  0.30728476678E+03  0.30728476678E+03  0.00000000000E+00 0.  1.
          2   -1    0    0  501    0  0.00000000000E+00 -0.00000000000E+00 -0.11582436329E+03  0.11582436329E+03  0.00000000000E+00 0. -1.
         25    2    1    2    0    0 -0.58704355933E+02 -0.12639541031E+03  0.17214496905E+03  0.25436890379E+03  0.12509055797E+03 0.  0.
          5    1    3    3  502    0 -0.53919544993E+02 -0.23568905360E+01  0.91401844429E+02  0.10622919481E+03  0.41800000000E+01 0. -1.
         -5    1    3    3    0  502 -0.47848109402E+01 -0.12403851977E+03  0.80743124622E+02  0.14813970898E+03  0.41800000000E+01 0. -1.
        -11    1    1    2    0    0  0.24273653238E+02  0.92793484913E+02  0.53400962503E+02  0.10977934177E+03  0.00000000000E+00 0.  1.
         11    1    1    2    0    0  0.34430702695E+02  0.33601925393E+02 -0.34085528067E+02  0.58960884507E+02  0.00000000000E+00 0. -1.
</event>
<event>
 7    1  0.2556591E-009  0.1129388E+03  0.7561462E-02  0.1255222E+00
         -2   -1    0    0    0  501 -0.00000000000E+00  0.00000000000E+00  0.64507909631E+03  0.64507909631E+03  0.00000000000E+00 0.  1.
          2   -1    0    0  501    0  0.00000000000E+00 -0.00000000000E+00 -0.30525571999E+02  0.30525571999E+02  0.00000000000E+00 0. -1.
         25    2    1    2    0    0 -0.38937300644E+02  0.75655313047E+02  0.33077603667E+03  0.36373223770E+03  0.12509402277E+03 0.  0.
          5    1    3    3  502    0  0.30164036623E+02  0.63058356556E+02  0.23282069100E+03  0.24312377916E+03  0.41800000000E+01 0. -1.
         -5    1    3    3    0  502 -0.69101337267E+02  0.12596956491E+02  0.97955345677E+02  0.12060845854E+03  0.41800000000E+01 0. -1.
        -11    1    1    2    0    0  0.17740893663E+02 -0.43446661804E+02  0.26474710814E+03  0.26887428847E+03  0.00000000000E+00 0.  1.
         11    1    1    2    0    0  0.21196406981E+02 -0.32208651243E+02  0.19030379496E+02  0.42998142141E+02  0.00000000000E+00 0. -1.
</event>
<event>
 7    1  0.2556591E-009  0.9554960E+02  0.7561462E-02  0.1289943E+00
         -1   -1    0    0    0  501 -0.00000000000E+00  0.00000000000E+00  0.32671304586E+03  0.32671304586E+03  0.00000000000E+00 0.  1.
          1   -1    0    0  501    0  0.00000000000E+00 -0.00000000000E+00 -0.57819775155E+02  0.57819775155E+02  0.00000000000E+00 0. -1.
         25    2    1    2    0    0 -0.47229310335E+02 -0.67484461590E+02  0.17323904160E+03  0.22900695584E+03  0.12509060707E+03 0.  0.
          5    1    3    3  502    0 -0.57844776698E+02 -0.32185491993E+02  0.17952068387E+03  0.19138200653E+03  0.41800000000E+01 0. -1.
         -5    1    3    3    0  502  0.10615466362E+02 -0.35298969597E+02 -0.62816422708E+01  0.37624949306E+02  0.41800000000E+01 0. -1.
        -11    1    1    2    0    0  0.47541550173E+02  0.45885867718E+02  0.95580280315E+01  0.66761274321E+02  0.00000000000E+00 0. -1.
         11    1    1    2    0    0 -0.31223983754E+00  0.21598593872E+02  0.86096201072E+02  0.88764590857E+02  0.00000000000E+00 0.  1.
</event>
<event>
 7    1  0.2556591E-009  0.1248053E+03  0.7561462E-02  0.1235374E+00
          2   -1    0    0  501    0  0.00000000000E+00  0.00000000000E+00  0.20648519625E+02  0.20648519625E+02  0.00000000000E+00 0. -1.
         -2   -1    0    0    0  501 -0.00000000000E+00 -0.00000000000E+00 -0.96682150000E+03  0.96682150000E+03  0.00000000000E+00 0.  1.
         25    2    1    2    0    0 -0.14586778609E+01 -0.85415513287E+02 -0.41152359215E+03  0.43851880911E+03  0.12509652832E+03 0.  0.
          5    1    3    3  502    0 -0.47572684542E+02 -0.58840372728E+02 -0.34498368649E+03  0.35320895532E+03  0.41800000000E+01 0.  1.
         -5    1    3    3    0  502  0.46114006681E+02 -0.26575140559E+02 -0.66539905656E+02  0.85309853784E+02  0.41800000000E+01 0.  1.
        -11    1    1    2    0    0  0.29549368186E+02  0.87420588529E+02 -0.46003455983E+03  0.46919859409E+03  0.00000000000E+00 0.  1.
         11    1    1    2    0    0 -0.28090690325E+02 -0.20050752419E+01 -0.74614828400E+02  0.79752616426E+02  0.00000000000E+00 0. -1.
</event>
<event>
 7    1  0.2556591E-009  0.9113820E+02  0.7561462E-02  0.1300119E+00
          2   -1    0    0  501    0  0.00000000000E+00  0.00000000000E+00  0.47235023060E+02  0.47235023060E+02  0.00000000000E+00 0. -1.
         -2   -1    0    0    0  501 -0.00000000000E+00 -0.00000000000E+00 -0.35036151466E+03  0.35036151466E+03  0.00000000000E+00 0.  1.
         25    2    1    2    0    0  0.43392207670E+02 -0.22796969407E+02 -0.25913075562E+03  0.29188655936E+03  0.12508568874E+03 0.  0.
          5    1    3    3  502    0  0.81091497434E+01  0.45342527911E+02 -0.45606040499E+02  0.64954495433E+02  0.41800000000E+01 0. -1.
         -5    1    3    3    0  502  0.35283057927E+02 -0.68139497318E+02 -0.21352471512E+03  0.22693206393E+03  0.41800000000E+01 0. -1.
        -11    1    1    2    0    0 -0.39964044517E+02  0.41040940070E+01 -0.65607609918E+02  0.76930663074E+02  0.00000000000E+00 0.  1.
         11    1    1    2    0    0 -0.34281631531E+01  0.18692875400E+02  0.21611873936E+02  0.28779315286E+02  0.00000000000E+00 0. -1.
</event>
<event>
 7    1  0.2556591E-009  0.8645456E+02  0.7561462E-02  0.1311672E+00
          4   -1    0    0  501    0  0.00000000000E+00  0.00000000000E+00  0.74442981309E+02  0.74442981309E+02  0.00000000000E+00 0. -1.
         -4   -1    0    0    0  501 -0.00000000000E+00 -0.00000000000E+00 -0.12335787670E+03  0.12335787670E+03  0.00000000000E+00 0.  1.
         25    2    1    2    0    0 -0.39304648073E+02  0.34922248589E+01 -0.21372006896E+02  0.13289509402E+03  0.12508913758E+03 0.  0.
          5    1    3    3  502    0 -0.75798422012E+02  0.27023355445E+02  0.69582318428E+01  0.80879860963E+02  0.41800000000E+01 0.  1.
         -5    1    3    3    0  502  0.36493773939E+02 -0.23531130586E+02 -0.28330238739E+02  0.52015233057E+02  0.41800000000E+01 0.  1.
        -11    1    1    2    0    0  0.87856869592E+01  0.11686600028E+02  0.71456802040E+01  0.16273464940E+02  0.00000000000E+00 0. -1.
         11    1    1    2    0    0  0.30518961114E+02 -0.15178824887E+02 -0.34688568701E+02  0.48632299050E+02  0.00000000000E+00 0.  1.
</event>
<event>
 7    1  0.2556591E-009  0.2291106E+03  0.7561462E-02  0.1127267E+00
         -1   -1    0    0    0  501 -0.00000000000E+00  0.00000000000E+00  0.11832617403E+03  0.11832617403E+03  0.00000000000E+00 0.  1.
          1   -1    0    0  501    0  0.00000000000E+00 -0.00000000000E+00 -0.48626329723E+03  0.48626329723E+03  0.00000000000E+00 0. -1.
         25    2    1    2    0    0 -0.20848642942E+03 -0.17973962158E+02 -0.24394691188E+03  0.34488807721E+03  0.12509210776E+03 0.  0.
          5    1    3    3  502    0 -0.22210105850E+03 -0.13365798689E+02 -0.24355349658E+03  0.32991408405E+03  0.41800000000E+01 0.  1.
         -5    1    3    3    0  502  0.13614629083E+02 -0.46081634688E+01 -0.39341530222E+00  0.14973993162E+02  0.41800000000E+01 0.  1.
        -11    1    1    2    0    0  0.56967395650E+00  0.12714304747E+02 -0.27752726363E+02  0.30531817735E+02  0.00000000000E+00 0. -1.
         11    1    1    2    0    0  0.20791675546E+03  0.52596574100E+01 -0.96237484957E+02  0.22916957631E+03  0.00000000000E+00 0.  1.
</event>
<event>
 7    1  0.2556591E-009  0.1178096E+03  0.7561462E-02  0.1246755E+00
          1   -1    0    0  501    0  0.00000000000E+00  0.00000000000E+00  0.65060461679E+03  0.65060461679E+03  0.00000000000E+00 0. -1.
         -1   -1    0    0    0  501 -0.00000000000E+00 -0.00000000000E+00 -0.25132829532E+02  0.25132829532E+02  0.00000000000E+00 0.  1.
         25    2    1    2    0    0 -0.48159420118E+02 -0.10140441187E+02  0.23120885831E+03  0.26744459926E+03  0.12508764616E+03 0.  0.
          5    1    3    3  502    0 -0.77843130879E+02  0.29487090208E+02  0.12570088474E+03  0.15082183641E+03  0.41800000000E+01 0. -1.
         -5    1    3    3    0  502  0.29683710761E+02 -0.39627531396E+02  0.10550797356E+03  0.11662276285E+03  0.41800000000E+01 0. -1.
        -11    1    1    2    0    0  0.59952903818E+01  0.46514603633E+02  0.23336886054E+03  0.23803482293E+03  0.00000000000E+00 0. -1.
         11    1    1    2    0    0  0.42164129736E+02 -0.36374162446E+02  0.16089406841E+03  0.17025802413E+03  0.00000000000E+00 0.  1.
</event>
<event>
 7    1  0.2750430E-009  0.1631054E+03  0.7561462E-02  0.1185235E+00
          1   -1    0    0  501    0  0.00000000000E+00  0.00000000000E+00  0.14212163005E+04  0.14212163005E+04  0.00000000000E+00 0. -1.
         -1   -1    0    0    0  501 -0.00000000000E+00 -0.00000000000E+00 -0.31351774822E+02  0.31351774822E+02  0.00000000000E+00 0.  1.
         25    2    1    2    0    0 -0.74689382713E+02  0.13144181234E+03  0.10626888850E+04  0.10806524257E+04  0.12508614984E+03 0.  0.
          5    1    3    3  502    0  0.10322943289E+02  0.16083210102E+02  0.19369460132E+02  0.27529642045E+02  0.41800000000E+01 0. -1.
         -5    1    3    3    0  502 -0.85012326002E+02  0.11535860223E+03  0.10433194249E+04  0.10531227837E+04  0.41800000000E+01 0. -1.
        -11    1    1    2    0    0  0.32962508926E+01 -0.67094586894E+02  0.68410723802E+02  0.95877922336E+02  0.00000000000E+00 0.  1.
         11    1    1    2    0    0  0.71393131820E+02 -0.64347225443E+02  0.25876491678E+03  0.27603772722E+03  0.00000000000E+00 0. -1.
</event>
<event>
 7    1  0.2556591E-009  0.1410122E+03  0.7561462E-02  0.1211973E+00
          3   -1    0    0  501    0  0.00000000000E+00  0.00000000000E+00  0.11732517894E+03  0.11732517894E+03  0.00000000000E+00 0. -1.
         -3   -1    0    0    0  501 -0.00000000000E+00 -0.00000000000E+00 -0.19954336945E+03  0.19954336945E+03  0.00000000000E+00 0.  1.
         25    2    1    2    0    0 -0.91733590465E+02 -0.65086083031E+02 -0.43782377190E+02  0.17383060801E+03  0.12509569898E+03 0.  0.
          5    1    3    3  502    0  0.15436865796E+02 -0.51921534676E+02 -0.36657311227E+02  0.65539098675E+02  0.41800000000E+01 0.  1.
         -5    1    3    3    0  502 -0.10717045626E+03 -0.13164548355E+02 -0.71250659630E+01  0.10829150933E+03  0.41800000000E+01 0.  1.
        -11    1    1    2    0    0  0.51985458297E+01  0.22686970820E+02 -0.40432818186E+02  0.46653363332E+02  0.00000000000E+00 0.  1.
         11    1    1    2    0    0  0.86535044635E+02  0.42399112211E+02  0.19970048663E+01  0.96384577058E+02  0.00000000000E+00 0. -1.
</event>
<event>
 7    1  0.2556591E-009  0.3717110E+03  0.7561462E-02  0.1054041E+00
          2   -1    0    0  501    0  0.00000000000E+00  0.00000000000E+00  0.26550723627E+04  0.26550723627E+04  0.00000000000E+00 0. -1.
         -2   -1    0    0    0  501 -0.00000000000E+00 -0.00000000000E+00 -0.54078556399E+02  0.54078556399E+02  0.00000000000E+00 0.  1.
         25    2    1    2    0    0  0.26047164348E+03 -0.25222214862E+03  0.13014050901E+04  0.13567475237E+04  0.12508854890E+03 0.  0.
          5    1    3    3  502    0  0.23120500135E+03 -0.16327898631E+03  0.10764188461E+04  0.11130187710E+04  0.41800000000E+01 0. -1.
         -5    1    3    3    0  502  0.29266642133E+02 -0.88943162312E+02  0.22498624400E+03  0.24372875262E+03  0.41800000000E+01 0. -1.
        -11    1    1    2    0    0 -0.25277456572E+02  0.51681967541E+02  0.32256734995E+03  0.32765785636E+03  0.00000000000E+00 0.  1.
         11    1    1    2    0    0 -0.23519418691E+03  0.20054018108E+03  0.97702136622E+03  0.10247455391E+04  0.00000000000E+00 0. -1.
</event>
<event>
 7    1  0.2556591E-009  0.1283236E+03  0.7561462E-02  0.1229965E+00
         -1   -1    0    0    0  501 -0.00000000000E+00  0.00000000000E+00  0.85168873935E+02  0.85168873935E+02  0.00000000000E+00 0.  1.
          1   -1    0    0  501    0  0.00000000000E+00 -0.00000000000E+00 -0.33381251007E+03  0.33381251007E+03  0.00000000000E+00 0. -1.
         25    2    1    2    0    0  0.38994089229E+02  0.10636856171E+03 -0.20725454204E+03  0.26727650082E+03  0.12508985881E+03 0.  0.
          5    1    3    3  502    0 -0.20734662856E+01  0.75854003321E+02 -0.28284842418E+02  0.81090281742E+02  0.41800000000E+01 0.  1.
         -5    1    3    3    0  502  0.41067555515E+02  0.30514558390E+02 -0.17896969963E+03  0.18618621908E+03  0.41800000000E+01 0.  1.
        -11    1    1    2    0    0 -0.56016017287E+02 -0.87595611811E+02 -0.94694469784E+00  0.10397923882E+03  0.00000000000E+00 0. -1.
         11    1    1    2    0    0  0.17021928058E+02 -0.18772949901E+02 -0.40442149389E+02  0.47725644364E+02  0.00000000000E+00 0.  1.
</event>
<event>
 7    1  0.2556591E-009  0.1126112E+03  0.7561462E-02  0.1255809E+00
          2   -1    0    0  501    0  0.00000000000E+00  0.00000000000E+00  0.52646930127E+03  0.52646930127E+03  0.00000000000E+00 0. -1.
         -2   -1    0    0    0  501 -0.00000000000E+00 -0.00000000000E+00 -0.50295054326E+02  0.50295054326E+02  0.00000000000E+00 0.  1.
         25    2    1    2    0    0 -0.95028357656E+02  0.54096319504E+02  0.34719638584E+03  0.38490309198E+03  0.12509300274E+03 0.  0.
          5    1    3    3  502    0 -0.79648328601E+02  0.42983278534E+02  0.35314557776E+03  0.36458289863E+03  0.41800000000E+01 0. -1.
         -5    1    3    3    0  502 -0.15380029055E+02  0.11113040970E+02 -0.59491919217E+01  0.20320193351E+02  0.41800000000E+01 0. -1.
        -11    1    1    2    0    0  0.60982440639E+02 -0.13962729126E+02  0.12154373229E+02  0.63730249172E+02  0.00000000000E+00 0.  1.
         11    1    1    2    0    0  0.34045917017E+02 -0.40133590378E+02  0.11682348788E+03  0.12813101445E+03  0.00000000000E+00 0. -1.
</event>
<event>
 7    1  0.2556591E-009  0.1208392E+03  0.7561462E-02  0.1241719E+00
          4   -1    0    0  501    0  0.00000000000E+00  0.00000000000E+00  0.18874278777E+03  0.18874278777E+03  0.00000000000E+00 0. -1.
         -4   -1    0    0    0  501 -0.00000000000E+00 -0.00000000000E+00 -0.23245364334E+03  0.23245364334E+03  0.00000000000E+00 0.  1.
         25    2    1    2    0    0 -0.21315988561E+02  0.11321837684E+03  0.11446375547E+03  0.20499042415E+03  0.12508537266E+03 0.  0.
          5    1    3    3  502    0 -0.15094048464E+02  0.84822968845E+02  0.14107744934E+03  0.16535744754E+03  0.41800000000E+01 0.  1.
         -5    1    3    3    0  502 -0.62219400978E+01  0.28395407995E+02 -0.26613693871E+02  0.39632976613E+02  0.41800000000E+01 0.  1.
        -11    1    1    2    0    0  0.32528907298E+02 -0.38075922018E+02 -0.12236329490E+03  0.13221452865E+03  0.00000000000E+00 0.  1.
         11    1    1    2    0    0 -0.11212918736E+02 -0.75142454822E+02 -0.35811316146E+02  0.83991478302E+02  0.00000000000E+00 0. -1.
</event>
<event>
 7    1  0.2556591E-009  0.8426641E+02  0.7561462E-02  0.1317362E+00
          2   -1    0    0  501    0  0.00000000000E+00  0.00000000000E+00  0.23421530283E+03  0.23421530283E+03  0.00000000000E+00 0. -1.
         -2   -1    0    0    0  501 -0.00000000000E+00 -0.00000000000E+00 -0.60588080384E+02  0.60588080384E+02  0.00000000000E+00 0.  1.
         25    2    1    2    0    0  0.40438284297E+02  0.86367731601E+01  0.11535814083E+03  0.17510897792E+03  0.12508319154E+03 0.  0.
          5    1    3    3  502    0  0.61895932292E+02  0.36083523732E+02  0.11988961754E+03  0.13972873689E+03  0.41800000000E+01 0.  1.
         -5    1    3    3    0  502 -0.21457647995E+02 -0.27446750572E+02 -0.45314767065E+01  0.35380241034E+02  0.41800000000E+01 0.  1.
        -11    1    1    2    0    0  0.27589830154E+01 -0.17384597399E+02 -0.21967468044E+02  0.28149704551E+02  0.00000000000E+00 0.  1.
         11    1    1    2    0    0 -0.43197267313E+02  0.87478242393E+01  0.80236549655E+02  0.91544700735E+02  0.00000000000E+00 0. -1.
</event>
<event>
 7    1  0.2556591E-009  0.2033334E+03  0.7561462E-02  0.1146957E+00
         -2   -1    0    0    0  501 -0.00000000000E+00  0.00000000000E+00  0.28101184528E+02  0.28101184528E+02  0.00000000000E+00 0.  1.
          2   -1    0    0  501    0  0.00000000000E+00 -0.00000000000E+00 -0.15618757742E+04  0.15618757742E+04  0.00000000000E+00 0. -1.
         25    2    1    2    0    0 -0.15078570078E+03  0.87688560819E+02 -0.93658334030E+03  0.96086462763E+03  0.12508744159E+03 0.  0.
          5    1    3    3  502    0 -0.13750453771E+03  0.11726107672E+03 -0.75288460550E+03  0.77428054322E+03  0.41800000000E+01 0. -1.
         -5    1    3    3    0  502 -0.13281163064E+02 -0.29572515899E+02 -0.18369873480E+03  0.18658408441E+03  0.41800000000E+01 0. -1.
        -11    1    1    2    0    0  0.15811332624E+03 -0.67826667962E+02 -0.56474392943E+03  0.59036936459E+03  0.00000000000E+00 0. -1.
         11    1    1    2    0    0 -0.73276254620E+01 -0.19861892856E+02 -0.32447319976E+02  0.38742966541E+02  0.00000000000E+00 0.  1.
</event>
<event>
 7    1  0.2556591E-009  0.1106388E+03  0.7561462E-02  0.1259391E+00
          1   -1    0    0  501    0  0.00000000000E+00  0.00000000000E+00  0.71459762215E+03  0.71459762215E+03  0.00000000000E+00 0. -1.
         -1   -1    0    0    0  501 -0.00000000000E+00 -0.00000000000E+00 -0.18096560183E+02  0.18096560183E+02  0.00000000000E+00 0.  1.
         25    2    1    2    0    0  0.96273108604E+01 -0.28871831173E+02  0.43424440361E+03  0.45292350773E+03  0.12508090995E+03 0.  0.
          5    1    3    3  502    0  0.49656112759E+02 -0.56286728445E+02  0.19978983285E+03  0.21346516120E+03  0.41800000000E+01 0.  1.
         -5    1    3    3    0  502 -0.40028801898E+02  0.27414897272E+02  0.23445457075E+03  0.23945834653E+03  0.41800000000E+01 0.  1.
        -11    1    1    2    0    0 -0.47567445045E+02 -0.32712628371E+01  0.13167104203E+03  0.14003794592E+03  0.00000000000E+00 0.  1.
         11    1    1    2    0    0  0.37940134184E+02  0.32143094010E+02  0.13058561633E+03  0.13973272869E+03  0.00000000000E+00 0. -1.
</event>
<event>
 7    1  0.2556591E-009  0.1048172E+03  0.7561462E-02  0.1270480E+00
          1   -1    0    0  501    0  0.00000000000E+00  0.00000000000E+00  0.62994986015E+03  0.62994986015E+03  0.00000000000E+00 0. -1.
         -1   -1    0    0    0  501 -0.00000000000E+00 -0.00000000000E+00 -0.36769492132E+02  0.36769492132E+02  0.00000000000E+00 0.  1.
         25    2    1    2    0    0  0.24866545705E+02 -0.84606056810E+02  0.18724483651E+03  0.24183488206E+03  0.12508777493E+03 0.  0.
          5    1    3    3  502    0  0.16472272284E+02 -0.23716325086E+02  0.17699109369E+03  0.17937981903E+03  0.41800000000E+01 0.  1.
         -5    1    3    3    0  502  0.83942734207E+01 -0.60889731724E+02  0.10253742814E+02  0.62455063025E+02  0.41800000000E+01 0.  1.
        -11    1    1    2    0    0  0.17561666230E+02  0.72688885799E+02  0.18399474462E+03  0.19861055432E+03  0.00000000000E+00 0.  1.
         11    1    1    2    0    0 -0.42428211935E+02  0.11917171011E+02  0.22194078690E+03  0.22627391591E+03  0.00000000000E+00 0. -1.
</event>
<event>
 7    1  0.2556591E-009  0.1564094E+03  0.7561462E-02  0.1192811E+00
          1   -1    0    0  501    0  0.00000000000E+00  0.00000000000E+00  0.27258697845E+04  0.27258697845E+04  0.00000000000E+00 0. -1.
         -1   -1    0    0    0  501 -0.00000000000E+00 -0.00000000000E+00 -0.13325147650E+02  0.13325147650E+02  0.00000000000E+00 0.  1.
         25    2    1    2    0    0  0.13311609031E+03  0.16093782250E+02  0.20052340279E+04  0.20136011540E+04  0.12508875829E+03 0.  0.
          5    1    3    3  502    0  0.68326674616E+02 -0.35226877072E+02  0.14692509511E+04  0.14712665622E+04  0.41800000000E+01 0.  1.
         -5    1    3    3    0  502  0.64789415693E+02  0.51320659323E+02  0.53598307686E+03  0.54233459187E+03  0.41800000000E+01 0.  1.
        -11    1    1    2    0    0 -0.13431320422E+02  0.23451249111E+02  0.55778272652E+02  0.61980457833E+02  0.00000000000E+00 0.  1.
         11    1    1    2    0    0 -0.11968476989E+03 -0.39545031361E+02  0.65153233625E+03  0.66361332026E+03  0.00000000000E+00 0. -1.
</event>
<event>
 7    1  0.2556591E-009  0.1866066E+03  0.7561462E-02  0.1161558E+00
          1   -1    0    0  501    0  0.00000000000E+00  0.00000000000E+00  0.11398984765E+04  0.11398984765E+04  0.00000000000E+00 0. -1.
         -1   -1    0    0    0  501 -0.00000000000E+00 -0.00000000000E+00 -0.33684760833E+02  0.33684760833E+02  0.00000000000E+00 0.  1.
         25    2    1    2    0    0 -0.60867693181E+02 -0.14896285931E+03  0.60726766341E+03  0.64055922752E+03  0.12508916585E+03 0.  0.
          5    1    3    3  502    0  0.30040534841E+02 -0.75349683713E+02  0.32475385542E+03  0.33475744590E+03  0.41800000000E+01 0. -1.
         -5    1    3    3    0  502 -0.90908228021E+02 -0.73613175597E+02  0.28251380798E+03  0.30580178162E+03  0.41800000000E+01 0. -1.
        -11    1    1    2    0    0 -0.11969709505E+02  0.53715202138E+02  0.25904843724E+03  0.26482954843E+03  0.00000000000E+00 0. -1.
         11    1    1    2    0    0  0.72837402686E+02  0.95247657173E+02  0.23989761507E+03  0.26819446144E+03  0.00000000000E+00 0.  1.
</event>
<event>
 7    1  0.2556591E-009  0.1054938E+03  0.7561462E-02  0.1269150E+00
          4   -1    0    0  501    0  0.00000000000E+00  0.00000000000E+00  0.47352788651E+02  0.47352788651E+02  0.00000000000E+00 0. -1.
         -4   -1    0    0    0  501 -0.00000000000E+00 -0.00000000000E+00 -0.40350188280E+03  0.40350188280E+03  0.00000000000E+00 0.  1.
         25    2    1    2    0    0  0.40696780342E+02 -0.71357859144E+02 -0.23227141449E+03  0.27630617832E+03  0.12508765804E+03 0.  0.
          5    1    3    3  502    0  0.23043888938E+01  0.71388968253E+01  0.13179923504E+02  0.15730760936E+02  0.41800000000E+01 0. -1.
         -5    1    3    3    0  502  0.38392391448E+02 -0.78496755969E+02 -0.24545133800E+03  0.26057541738E+03  0.41800000000E+01 0. -1.
        -11    1    1    2    0    0 -0.18623140371E+02  0.86284076755E+02 -0.64066279298E+02  0.10906993812E+03  0.00000000000E+00 0.  1.
         11    1    1    2    0    0 -0.22073639971E+02 -0.14926217611E+02 -0.59811400354E+02  0.65478555009E+02  0.00000000000E+00 0. -1.
</event>
<event>
 7    1  0.2556591E-009  0.1466605E+03  0.7561462E-02  0.1204638E+00
         -1   -1    0    0    0  501 -0.00000000000E+00  0.00000000000E+00  0.62948410950E+02  0.62948410950E+02  0.00000000000E+00 0.  1.
          1   -1    0    0  501    0  0.00000000000E+00 -0.00000000000E+00 -0.47120506277E+03  0.47120506277E+03  0.00000000000E+00 0. -1.
         25    2    1    2    0    0  0.13194238380E+03  0.10105759421E+02 -0.23903028380E+03  0.30048989247E+03  0.12509108637E+03 0.  0.
          5    1    3    3  502    0  0.87635567486E+02 -0.36208926082E+01 -0.23824389105E+03  0.25391086542E+03  0.41800000000E+01 0. -1.
         -5    1    3    3    0  502  0.44306816316E+02  0.13726652029E+02 -0.78639274255E+00  0.46579027056E+02  0.41800000000E+01 0. -1.
        -11    1    1    2    0    0 -0.55107801801E+02 -0.48169445835E+02 -0.97230484929E+02  0.12170017474E+03  0.00000000000E+00 0.  1.
         11    1    1    2    0    0 -0.76834582001E+02  0.38063686415E+02 -0.71995883095E+02  0.11196340651E+03  0.00000000000E+00 0. -1.
</event>
<event>
 7    1  0.2556591E-009  0.1131079E+03  0.7561462E-02  0.1254920E+00
         -1   -1    0    0    0  501 -0.00000000000E+00  0.00000000000E+00  0.10187475377E+03  0.10187475377E+03  0.00000000000E+00 0.  1.
          1   -1    0    0  501    0  0.00000000000E+00 -0.00000000000E+00 -0.16836217111E+03  0.16836217111E+03  0.00000000000E+00 0. -1.
         25    2    1    2    0    0 -0.49993937984E+02 -0.28305043958E+02 -0.83391557666E+02  0.16094021883E+03  0.12508810014E+03 0.  0.
          5    1    3    3  502    0 -0.44139041032E+02  0.45301078434E+02 -0.43851757609E+02  0.77077180125E+02  0.41800000000E+01 0. -1.
         -5    1    3    3    0  502 -0.58548969517E+01 -0.73606122392E+02 -0.39539800056E+02  0.83863038702E+02  0.41800000000E+01 0. -1.
        -11    1    1    2    0    0  0.38494412231E+02 -0.17035761461E+02  0.39161608424E+02  0.57494943394E+02  0.00000000000E+00 0.  1.
         11    1    1    2    0    0  0.11499525753E+02  0.45340805419E+02 -0.22257468091E+02  0.51801762657E+02  0.00000000000E+00 0. -1.
</event>
<event>
 7    1  0.2556591E-009  0.1379643E+03  0.7561462E-02  0.1216095E+00
         -3   -1    0    0    0  501 -0.00000000000E+00  0.00000000000E+00  0.52508428702E+02  0.52508428702E+02  0.00000000000E+00 0.  1.
          3   -1    0    0  501    0  0.00000000000E+00 -0.00000000000E+00 -0.49435270088E+03  0.49435270088E+03  0.00000000000E+00 0. -1.
         25    2    1    2    0    0 -0.54867815993E+01 -0.10759790601E+03 -0.31991390676E+03  0.36000384847E+03  0.12510175470E+03 0.  0.
          5    1    3    3  502    0  0.57619564880E+02 -0.61428094206E+02 -0.19669880732E+03  0.21401242538E+03  0.41800000000E+01 0.  1.
         -5    1    3    3    0  502 -0.63106346479E+02 -0.46169811803E+02 -0.12321509943E+03  0.14599142309E+03  0.41800000000E+01 0.  1.
        -11    1    1    2    0    0  0.16955232236E+02  0.93968100512E+02 -0.13457780682E+03  0.16501112054E+03  0.00000000000E+00 0. -1.
         11    1    1    2    0    0 -0.11468450637E+02  0.13629805497E+02  0.12647441395E+02  0.21846160572E+02  0.00000000000E+00 0.  1.
</event>
<event>
 7    1  0.3078726E-009  0.1040833E+03  0.7561462E-02  0.1271936E+00
          1   -1    0    0  501    0  0.00000000000E+00  0.00000000000E+00  0.65034421277E+03  0.65034421277E+03  0.00000000000E+00 0. -1.
         -1   -1    0    0    0  501 -0.00000000000E+00 -0.00000000000E+00 -0.29649198087E+02  0.29649198087E+02  0.00000000000E+00 0.  1.
         25    2    1    2    0    0 -0.37853655986E+02 -0.39057988190E+02  0.50407098269E+03  0.52219865622E+03  0.12508179426E+03 0.  0.
          5    1    3    3  502    0 -0.37584194980E+02 -0.65539317222E+02  0.48073870890E+03  0.48665712000E+03  0.41800000000E+01 0. -1.
         -5    1    3    3    0  502 -0.26946100571E+00  0.26481329032E+02  0.23332273788E+02  0.35541536217E+02  0.41800000000E+01 0. -1.
        -11    1    1    2    0    0  0.67952238717E+02  0.24290923053E+02  0.87204887072E+02  0.11319120115E+03  0.00000000000E+00 0. -1.
         11    1    1    2    0    0 -0.30098582732E+02  0.14767065137E+02  0.29419144916E+02  0.44603553477E+02  0.00000000000E+00 0.  1.
</event>
<event>
 7    1  0.3557178E-009  0.1157106E+03  0.7561462E-02  0.1250346E+00
          3   -1    0    0  501    0  0.00000000000E+00  0.00000000000E+00  0.47140146899E+03  0.47140146899E+03  0.00000000000E+00 0. -1.
         -3   -1    0    0    0  501 -0.00000000000E+00 -0.00000000000E+00 -0.42291487505E+02  0.42291487505E+02  0.00000000000E+00 0.  1.
         25    2    1    2    0    0  0.26715668623E+02  0.84370961477E+02  0.20326027773E+03  0.25454693616E+03  0.12508883289E+03 0.  0.
          5    1    3    3  502    0  0.66761677555E+01 -0.26546291590E+02  0.92151194322E+02  0.96221576728E+02  0.41800000000E+01 0. -1.
         -5    1    3    3    0  502  0.20039500868E+02  0.11091725307E+03  0.11110908341E+03  0.15832535943E+03  0.41800000000E+01 0. -1.
        -11    1    1    2    0    0 -0.26195402986E+02 -0.48973002473E+02  0.21509082230E+03  0.22214548374E+03  0.00000000000E+00 0. -1.
         11    1    1    2    0    0 -0.52026563705E+00 -0.35397959004E+02  0.10758881448E+02  0.37000536590E+02  0.00000000000E+00 0.  1.
</event>
<event>
 7    1  0.2556591E-009  0.6512103E+02  0.7561462E-02  0.1377517E+00
          1   -1    0    0  501    0  0.00000000000E+00  0.00000000000E+00  0.56792334698E+03  0.56792334698E+03  0.00000000000E+00 0. -1.
         -1   -1    0    0    0  501 -0.00000000000E+00 -0.00000000000E+00 -0.26103121204E+02  0.26103121204E+02  0.00000000000E+00 0.  1.
         25    2    1    2    0    0 -0.16593176010E+02  0.62275328308E+01  0.43098447307E+03  0.44912187126E+03  0.12509485825E+03 0.  0.
          5    1    3    3  502    0 -0.11400178673E+01  0.29213556074E+02  0.16771857880E+02  0.33963202381E+02  0.41800000000E+01 0. -1.
         -5    1    3    3    0  502 -0.15453158143E+02 -0.22986023243E+02  0.41421261519E+03  0.41515866888E+03  0.41800000000E+01 0. -1.
        -11    1    1    2    0    0  0.33467393410E+02  0.21829420235E+02  0.13446363314E+02  0.42159159098E+02  0.00000000000E+00 0.  1.
         11    1    1    2    0    0 -0.16874217400E+02 -0.28056953066E+02  0.97389389394E+02  0.10274543783E+03  0.00000000000E+00 0. -1.
</event>
<event>
 7    1  0.2556591E-009  0.2585710E+03  0.7561462E-02  0.1108005E+00
          1   -1    0    0  501    0  0.00000000000E+00  0.00000000000E+00  0.18074432440E+03  0.18074432440E+03  0.00000000000E+00 0. -1.
         -1   -1    0    0    0  501 -0.00000000000E+00 -0.00000000000E+00 -0.37449547035E+03  0.37449547035E+03  0.00000000000E+00 0.  1.
         25    2    1    2    0    0  0.14513794516E+03 -0.18252557349E+03 -0.12918375825E+03  0.29447674947E+03  0.12508998553E+03 0.  0.
          5    1    3    3  502    0  0.16477294706E+03 -0.18034649118E+03 -0.12158135709E+03  0.27290012780E+03  0.41800000000E+01 0.  1.
         -5    1    3    3    0  502 -0.19635001898E+02 -0.21790823105E+01 -0.76024011597E+01  0.21576621669E+02  0.41800000000E+01 0.  1.
        -11    1    1    2    0    0 -0.31954000907E+02  0.11819948033E+03 -0.29916945721E+02  0.12604443251E+03  0.00000000000E+00 0. -1.
         11    1    1    2    0    0 -0.11318394425E+03  0.64326093152E+02 -0.34650441973E+02  0.13471861277E+03  0.00000000000E+00 0.  1.
</event>
<event>
 7    1  0.2556591E-009  0.1263000E+03  0.7561462E-02  0.1233051E+00
         -2   -1    0    0    0  501 -0.00000000000E+00  0.00000000000E+00  0.49070918473E+03  0.49070918473E+03  0.00000000000E+00 0.  1.
          2   -1    0    0  501    0  0.00000000000E+00 -0.00000000000E+00 -0.87138161080E+02  0.87138161080E+02  0.00000000000E+00 0. -1.
         25    2    1    2    0    0 -0.83997988474E+02 -0.73309515337E+02  0.21404687205E+02  0.16892333134E+03  0.12508790561E+03 0.  0.
          5    1    3    3  502    0 -0.65286058807E+02 -0.30063559156E+02 -0.46835320060E+02  0.85890084811E+02  0.41800000000E+01 0.  1.
         -5    1    3    3    0  502 -0.18711929667E+02 -0.43245956181E+02  0.68240007265E+02  0.83033246530E+02  0.41800000000E+01 0.  1.
        -11    1    1    2    0    0  0.16923423867E+02  0.63247337656E+02  0.27017931576E+03  0.27799908393E+03  0.00000000000E+00 0. -1.
         11    1    1    2    0    0  0.67074564607E+02  0.10062177681E+02  0.11198702068E+03  0.13092493054E+03  0.00000000000E+00 0.  1.
</event>
<event>
 7    1  0.2556591E-009  0.1515885E+03  0.7561462E-02  0.1198535E+00
          1   -1    0    0  501    0  0.00000000000E+00  0.00000000000E+00  0.50299736637E+03  0.50299736637E+03  0.00000000000E+00 0. -1.
         -1   -1    0    0    0  501 -0.00000000000E+00 -0.00000000000E+00 -0.51898861873E+02  0.51898861873E+02  0.00000000000E+00 0.  1.
         25    2    1    2    0    0 -0.62508205776E+02 -0.71765353054E+02  0.27644701304E+03  0.31800891222E+03  0.12509666480E+03 0.  0.
          5    1    3    3  502    0 -0.92995572130E+02 -0.61016061227E+02  0.25696394157E+03  0.28003406191E+03  0.41800000000E+01 0. -1.
         -5    1    3    3    0  502  0.30487366354E+02 -0.10749291827E+02  0.19483071470E+02  0.37974850307E+02  0.41800000000E+01 0. -1.
        -11    1    1    2    0    0  0.74472130126E+02 -0.11326099162E+02  0.94173182468E+02  0.12059422450E+03  0.00000000000E+00 0. -1.
         11    1    1    2    0    0 -0.11963924350E+02  0.83091452216E+02  0.80478308983E+02  0.11629309151E+03  0.00000000000E+00 0.  1.
</event>
<event>
 7    1  0.2556591E-009  0.2856053E+03  0.7561462E-02  0.1092666E+00
         -1   -1    0    0    0  501 -0.00000000000E+00  0.00000000000E+00  0.54082503532E+02  0.54082503532E+02  0.00000000000E+00 0.  1.
          1   -1    0    0  501    0  0.00000000000E+00 -0.00000000000E+00 -0.16738681013E+04  0.16738681013E+04  0.00000000000E+00 0. -1.
         25    2    1    2    0    0 -0.82066210398E+02  0.26105236502E+03 -0.65062460809E+03  0.71682843222E+03  0.12508964952E+03 0.  0.
          5    1    3    3  502    0 -0.67091759305E+02  0.26628667730E+03 -0.64203860166E+03  0.69831292205E+03  0.41800000000E+01 0.  1.
         -5    1    3    3    0  502 -0.14974451093E+02 -0.52343122844E+01 -0.85860064324E+01  0.18515510176E+02  0.41800000000E+01 0.  1.
        -11    1    1    2    0    0 -0.39677294326E+01 -0.75871431963E+02 -0.16853730238E+03  0.18487033120E+03  0.00000000000E+00 0. -1.
         11    1    1    2    0    0  0.86033939830E+02 -0.18518093306E+03 -0.80062368730E+03  0.82625184141E+03  0.00000000000E+00 0.  1.
</event>
<event>
 7    1  0.2556591E-009  0.1167050E+03  0.7561462E-02  0.1248634E+00
          2   -1    0    0  501    0  0.00000000000E+00  0.00000000000E+00  0.65392472542E+03  0.65392472542E+03  0.00000000000E+00 0. -1.
         -2   -1    0    0    0  501 -0.00000000000E+00 -0.00000000000E+00 -0.25453485435E+02  0.25453485435E+02  0.00000000000E+00 0.  1.
         25    2    1    2    0    0 -0.47666901984E+02 -0.48697474853E+02  0.27483524185E+03  0.30955616511E+03  0.12508809534E+03 0.  0.
          5    1    3    3  502    0 -0.36518001783E+02 -0.82597834520E+02  0.11796860292E+03  0.14862715228E+03  0.41800000000E+01 0. -1.
         -5    1    3    3    0  502 -0.11148900202E+02  0.33900359667E+02  0.15686663893E+03  0.16092901283E+03  0.41800000000E+01 0. -1.
        -11    1    1    2    0    0 -0.22861762934E+02  0.21797981231E+02  0.81379691053E+02  0.87295282267E+02  0.00000000000E+00 0. -1.
         11    1    1    2    0    0  0.70528664919E+02  0.26899493622E+02  0.27225630709E+03  0.28252676348E+03  0.00000000000E+00 0.  1.
</event>
<event>
 7    1  0.2556591E-009  0.3442646E+03  0.7561462E-02  0.1064994E+00
          2   -1    0    0  501    0  0.00000000000E+00  0.00000000000E+00  0.10613276344E+03  0.10613276344E+03  0.00000000000E+00 0.  1.
         -2   -1    0    0    0  501 -0.00000000000E+00 -0.00000000000E+00 -0.11996609720E+04  0.11996609720E+04  0.00000000000E+00 0. -1.
         25    2    1    2    0    0 -0.26641538007E+03  0.19891174160E+03 -0.68384601227E+03  0.77060734390E+03  0.12508906541E+03 0.  0.
          5    1    3    3  502    0 -0.49138466699E+01 -0.11697830352E+02 -0.70900717131E+01  0.15123711216E+02  0.41800000000E+01 0. -1.
         -5    1    3    3    0  502 -0.26150153340E+03  0.21060957196E+03 -0.67675594056E+03  0.75548363268E+03  0.41800000000E+01 0. -1.
        -11    1    1    2    0    0  0.18479689511E+03 -0.96673814603E+02 -0.29460458652E+03  0.36095371071E+03  0.00000000000E+00 0.  1.
         11    1    1    2    0    0  0.81618484953E+02 -0.10223792700E+03 -0.11507760980E+03  0.17423268086E+03  0.00000000000E+00 0. -1.
</event>
<event>
 7    1  0.2556591E-009  0.9761160E+02  0.7561462E-02  0.1285400E+00
         -3   -1    0    0    0  501 -0.00000000000E+00  0.00000000000E+00  0.47189819503E+02  0.47189819503E+02  0.00000000000E+00 0.  1.
          3   -1    0    0  501    0  0.00000000000E+00 -0.00000000000E+00 -0.39803897171E+03  0.39803897171E+03  0.00000000000E+00 0. -1.
         25    2    1    2    0    0 -0.60190133077E+02 -0.47537722459E+02 -0.24907803257E+03  0.28908542326E+03  0.12509128049E+03 0.  0.
          5    1    3    3  502    0 -0.61773630582E+02 -0.46562950064E+02 -0.26313537277E+03  0.27430236338E+03  0.41800000000E+01 0. -1.
         -5    1    3    3    0  502  0.15834975047E+01 -0.97477239579E+00  0.14057340205E+02  0.14783059873E+02  0.41800000000E+01 0. -1.
        -11    1    1    2    0    0 -0.21083525882E+02  0.13690516512E+02 -0.55905981816E+01  0.25752671590E+02  0.00000000000E+00 0.  1.
         11    1    1    2    0    0  0.81273658960E+02  0.33847205948E+02 -0.96180521461E+02  0.13039069637E+03  0.00000000000E+00 0. -1.
</event>
<event>
 7    1  0.2556591E-009  0.7801780E+02  0.7561462E-02  0.1334773E+00
          1   -1    0    0  501    0  0.00000000000E+00  0.00000000000E+00  0.33696851108E+03  0.33696851108E+03  0.00000000000E+00 0. -1.
         -1   -1    0    0    0  501 -0.00000000000E+00 -0.00000000000E+00 -0.42502936627E+02  0.42502936627E+02  0.00000000000E+00 0.  1.
         25    2    1    2    0    0 -0.48877592263E+02  0.58094638683E+00  0.18208594534E+03  0.22625576510E+03  0.12508806189E+03 0.  0.
          5    1    3    3  502    0 -0.16318858252E+02  0.17582658099E+02 -0.13065397362E+02  0.27633892391E+02  0.41800000000E+01 0.  1.
         -5    1    3    3    0  502 -0.32558734011E+02 -0.17001711712E+02  0.19515134270E+03  0.19862187271E+03  0.41800000000E+01 0.  1.
        -11    1    1    2    0    0  0.30128144243E+02 -0.40580602290E+02  0.27526127472E+02  0.57551525187E+02  0.00000000000E+00 0.  1.
         11    1    1    2    0    0  0.18749448020E+02  0.39999655903E+02  0.84853501650E+02  0.95664157424E+02  0.00000000000E+00 0. -1.
</event>
<event>
 7    1  0.2556591E-009  0.1194815E+03  0.7561462E-02  0.1243955E+00
          1   -1    0    0  501    0  0.00000000000E+00  0.00000000000E+00  0.30202103420E+03  0.30202103420E+03  0.00000000000E+00 0. -1.
         -1   -1    0    0    0  501 -0.00000000000E+00 -0.00000000000E+00 -0.52110405807E+02  0.52110405807E+02  0.00000000000E+00 0.  1.
         25    2    1    2    0    0 -0.43980163354E+01 -0.51558470382E+02  0.18988858959E+03  0.23320161745E+03  0.12509076508E+03 0.  0.
          5    1    3    3  502    0 -0.47247291488E+02 -0.72169460706E+02  0.13710156893E+03  0.16203410201E+03  0.41800000000E+01 0. -1.
         -5    1    3    3    0  502  0.42849275152E+02  0.20610990323E+02  0.52787020657E+02  0.71167515434E+02  0.41800000000E+01 0. -1.
        -11    1    1    2    0    0  0.47548780856E+02  0.20915043826E+02  0.32533293746E+02  0.61292257432E+02  0.00000000000E+00 0.  1.
         11    1    1    2    0    0 -0.43150764521E+02  0.30643426557E+02  0.27488745061E+02  0.59637565132E+02  0.00000000000E+00 0. -1.
</event>
<event>
 7    1  0.2556591E-009  0.3109147E+03  0.7561462E-02  0.1079908E+00
          2   -1    0    0  501    0  0.00000000000E+00  0.00000000000E+00  0.97569559183E+03  0.97569559183E+03  0.00000000000E+00 0. -1.
         -2   -1    0    0    0  501 -0.00000000000E+00 -0.00000000000E+00 -0.13925387375E+03  0.13925387375E+03  0.00000000000E+00 0.  1.
         25    2    1    2    0    0 -0.51114641907E+02 -0.29137035929E+03  0.71223129638E+03  0.78130041798E+03  0.12509009034E+03 0.  0.
          5    1    3    3  502    0 -0.78041065628E+02 -0.27019464924E+03  0.67077870605E+03  0.72736311516E+03  0.41800000000E+01 0.  1.
         -5    1    3    3    0  502  0.26926423721E+02 -0.21175710050E+02  0.41452590331E+02  0.53937302821E+02  0.41800000000E+01 0.  1.
        -11    1    1    2    0    0  0.12590262995E+02  0.24686703941E+03  0.11961605569E+03  0.27460854074E+03  0.00000000000E+00 0.  1.
         11    1    1    2    0    0  0.38524378912E+02  0.44503319873E+02  0.45943660155E+01  0.59040506851E+02  0.00000000000E+00 0. -1.
</event>
<event>
 7    1  0.2556591E-009  0.2287549E+03  0.7561462E-02  0.1127519E+00
         -1   -1    0    0    0  501 -0.00000000000E+00  0.00000000000E+00  0.86425684081E+03  0.86425684081E+03  0.00000000000E+00 0.  1.
          1   -1    0    0  501    0  0.00000000000E+00 -0.00000000000E+00 -0.63449810242E+02  0.63449810242E+02  0.00000000000E+00 0. -1.
         25    2    1    2    0    0 -0.18759918837E+03 -0.86885995762E+02  0.38290492586E+03  0.45277786900E+03  0.12509590192E+03 0.  0.
          5    1    3    3  502    0 -0.20561610559E+02  0.30705996703E+02  0.64528991309E+02  0.74478863993E+02  0.41800000000E+01 0.  1.
         -5    1    3    3    0  502 -0.16703757781E+03 -0.11759199247E+03  0.31837593455E+03  0.37829900501E+03  0.41800000000E+01 0.  1.
        -11    1    1    2    0    0  0.14871177461E+03  0.94740629232E+02  0.27543014985E+03  0.32703630713E+03  0.00000000000E+00 0. -1.
         11    1    1    2    0    0  0.38887413754E+02 -0.78546334698E+01  0.14247195487E+03  0.14789247492E+03  0.00000000000E+00 0.  1.
</event>
<event>
 7    1  0.2556591E-009  0.8618000E+02  0.7561462E-02  0.1312375E+00
          3   -1    0    0  501    0  0.00000000000E+00  0.00000000000E+00  0.10817246704E+03  0.10817246704E+03  0.00000000000E+00 0. -1.
         -3   -1    0    0    0  501 -0.00000000000E+00 -0.00000000000E+00 -0.12934401807E+03  0.12934401807E+03  0.00000000000E+00 0.  1.
         25    2    1    2    0    0 -0.38284263608E+02  0.30556675803E+02 -0.13493825516E+02  0.13502224381E+03  0.12509807240E+03 0.  0.
          5    1    3    3  502    0  0.10830503913E+02 -0.48880421835E+01 -0.58249518961E+02  0.59595902800E+02  0.41800000000E+01 0. -1.
         -5    1    3    3    0  502 -0.49114767521E+02  0.35444717987E+02  0.44755693445E+02  0.75426341006E+02  0.41800000000E+01 0. -1.
        -11    1    1    2    0    0  0.27873507039E+02 -0.60897588502E+02 -0.16985462224E+02  0.69093810194E+02  0.00000000000E+00 0.  1.
         11    1    1    2    0    0  0.10410756569E+02  0.30340912699E+02  0.93077367175E+01  0.33400431113E+02  0.00000000000E+00 0. -1.
</event>
<event>
 7    1  0.2556591E-009  0.1047397E+03  0.7561462E-02  0.1270633E+00
          1   -1    0    0  501    0  0.00000000000E+00  0.00000000000E+00  0.15527523319E+03  0.15527523319E+03  0.00000000000E+00 0. -1.
         -1   -1    0    0    0  501 -0.00000000000E+00 -0.00000000000E+00 -0.10463912910E+03  0.10463912910E+03  0.00000000000E+00 0.  1.
         25    2    1    2    0    0  0.43552260218E+02  0.13517241685E+02 -0.25730453247E+02  0.13560537277E+03  0.12508895118E+03 0.  0.
          5    1    3    3  502    0 -0.25580577666E+02  0.48744045652E+02 -0.67530895434E+01  0.55618563076E+02  0.41800000000E+01 0. -1.
         -5    1    3    3    0  502  0.69132837884E+02 -0.35226803967E+02 -0.18977363704E+02  0.79986809693E+02  0.41800000000E+01 0. -1.
        -11    1    1    2    0    0  0.70468951926E+01  0.16356221794E+02  0.61037529839E+02  0.63582739576E+02  0.00000000000E+00 0. -1.
         11    1    1    2    0    0 -0.50599155410E+02 -0.29873463480E+02  0.15329027497E+02  0.60726249946E+02  0.00000000000E+00 0.  1.
</event>
<event>
 7    1  0.2556591E-009  0.1218088E+03  0.7561462E-02  0.1240143E+00
          2   -1    0    0  501    0  0.00000000000E+00  0.00000000000E+00  0.36835282551E+03  0.36835282551E+03  0.00000000000E+00 0. -1.
         -2   -1    0    0    0  501 -0.00000000000E+00 -0.00000000000E+00 -0.41794740288E+02  0.41794740288E+02  0.00000000000E+00 0.  1.
         25    2    1    2    0    0 -0.14703622162E+02  0.58889372310E+02  0.17731117792E+03  0.22532651837E+03  0.12509448983E+03 0.  0.
          5    1    3    3  502    0 -0.64364014594E+02  0.84845928463E+01  0.10867911572E+03  0.12666229622E+03  0.41800000000E+01 0.  1.
         -5    1    3    3    0  502  0.49660392432E+02  0.50404779464E+02  0.68632062207E+02  0.98664222149E+02  0.41800000000E+01 0.  1.
        -11    1    1    2    0    0 -0.36116903472E+01  0.23247412126E+02  0.45609233738E+02  0.51319476613E+02  0.00000000000E+00 0.  1.
         11    1    1    2    0    0  0.18315312509E+02 -0.82136784436E+02  0.10363767356E+03  0.13350157082E+03  0.00000000000E+00 0. -1.
</event>
<event>
 7    1  0.2556591E-009  0.1092732E+03  0.7561462E-02  0.1261922E+00
         -2   -1    0    0    0  501 -0.00000000000E+00  0.00000000000E+00  0.43043503965E+02  0.43043503965E+02  0.00000000000E+00 0.  1.
          2   -1    0    0  501    0  0.00000000000E+00 -0.00000000000E+00 -0.32859163704E+03  0.32859163704E+03  0.00000000000E+00 0. -1.
         25    2    1    2    0    0  0.39782482035E+02 -0.47185169294E+01 -0.21014439375E+03  0.24781697360E+03  0.12509067070E+03 0.  0.
          5    1    3    3  502    0  0.68101161048E+02  0.37097971466E+02 -0.15197955419E+03  0.17067303512E+03  0.41800000000E+01 0. -1.
         -5    1    3    3    0  502 -0.28318679013E+02 -0.41816488396E+02 -0.58164839560E+02  0.77143938478E+02  0.41800000000E+01 0. -1.
        -11    1    1    2    0    0 -0.59407658974E+02 -0.16147321026E+02 -0.26247843612E+02  0.66924996939E+02  0.00000000000E+00 0.  1.
         11    1    1    2    0    0  0.19625176938E+02  0.20865837955E+02 -0.49155895712E+02  0.56893170475E+02  0.00000000000E+00 0. -1.
</event>
<event>
 7    1  0.2556591E-009  0.9177700E+02  0.7561462E-02  0.1298605E+00
         -2   -1    0    0    0  501 -0.00000000000E+00  0.00000000000E+00  0.22683449627E+02  0.22683449627E+02  0.00000000000E+00 0.  1.
          2   -1    0    0  501    0  0.00000000000E+00 -0.00000000000E+00 -0.51817706322E+03  0.51817706322E+03  0.00000000000E+00 0. -1.
         25    2    1    2    0    0  0.80391922062E+01 -0.15188137940E+01 -0.29863679293E+03  0.32388135681E+03  0.12509302055E+03 0.  0.
          5    1    3    3  502    0  0.58247895069E+02 -0.31114456126E+02 -0.14072090867E+03  0.15550168230E+03  0.41800000000E+01 0. -1.
         -5    1    3    3    0  502 -0.50208702862E+02  0.29595642332E+02 -0.15791588425E+03  0.16837967451E+03  0.41800000000E+01 0. -1.
        -11    1    1    2    0    0  0.21684062984E+02 -0.13609261563E+02 -0.10515093030E+02  0.27676303387E+02  0.00000000000E+00 0.  1.
         11    1    1    2    0    0 -0.29723255190E+02  0.15128075357E+02 -0.18634172764E+03  0.18930285265E+03  0.00000000000E+00 0. -1.
</event>
<event>
 7    1  0.2556591E-009  0.8614469E+02  0.7561462E-02  0.1312466E+00
          2   -1    0    0  501    0  0.00000000000E+00  0.00000000000E+00  0.34247181380E+03  0.34247181380E+03  0.00000000000E+00 0. -1.
         -2   -1    0    0    0  501 -0.00000000000E+00 -0.00000000000E+00 -0.36060961345E+02  0.36060961345E+02  0.00000000000E+00 0.  1.
         25    2    1    2    0    0 -0.12058357107E+02 -0.17982877396E+02  0.15006100153E+03  0.19655615744E+03  0.12508889236E+03 0.  0.
          5    1    3    3  502    0 -0.35862502984E+02 -0.43852528714E+02  0.15080222818E+03  0.16114573472E+03  0.41800000000E+01 0. -1.
         -5    1    3    3    0  502  0.23804145878E+02  0.25869651318E+02 -0.74122664995E+00  0.35410422721E+02  0.41800000000E+01 0. -1.
        -11    1    1    2    0    0  0.36664436767E-01 -0.30313306228E+02  0.18728449256E+02  0.35632186156E+02  0.00000000000E+00 0.  1.
         11    1    1    2    0    0  0.12021692670E+02  0.48296183623E+02  0.13762140167E+03  0.14634443155E+03  0.00000000000E+00 0. -1.
</event>
<event>
 7    1  0.2556591E-009  0.1601681E+03  0.7561462E-02  0.1188507E+00
         -1   -1    0    0    0  501 -0.00000000000E+00  0.00000000000E+00  0.33795816069E+02  0.33795816069E+02  0.00000000000E+00 0.  1.
          1   -1    0    0  501    0  0.00000000000E+00 -0.00000000000E+00 -0.88864215789E+03  0.88864215789E+03  0.00000000000E+00 0. -1.
         25    2    1    2    0    0  0.13295135547E+03 -0.47225934106E+01 -0.50020363646E+03  0.53249398669E+03  0.12509117524E+03 0.  0.
          5    1    3    3  502    0  0.35725805243E+01 -0.30652608838E+02 -0.22632462611E+03  0.22845711751E+03  0.41800000000E+01 0. -1.
         -5    1    3    3    0  502  0.12937877494E+03  0.25930015427E+02 -0.27387901035E+03  0.30403686918E+03  0.41800000000E+01 0. -1.
        -11    1    1    2    0    0 -0.68593839005E+02  0.44269971213E+02 -0.13601637222E+03  0.15863605710E+03  0.00000000000E+00 0. -1.
         11    1    1    2    0    0 -0.64357516464E+02 -0.39547377802E+02 -0.21862633315E+03  0.23130793018E+03  0.00000000000E+00 0.  1.
</event>
<event>
 7    1  0.2556591E-009  0.7535361E+02  0.7561462E-02  0.1342780E+00
          2   -1    0    0  501    0  0.00000000000E+00  0.00000000000E+00  0.29445967617E+03  0.29445967617E+03  0.00000000000E+00 0. -1.
         -2   -1    0    0    0  501 -0.00000000000E+00 -0.00000000000E+00 -0.67842877450E+02  0.67842877450E+02  0.00000000000E+00 0.  1.
         25    2    1    2    0    0 -0.48596970929E+02  0.51446125739E+02  0.19385090442E+03  0.24131731013E+03  0.12508997397E+03 0.  0.
          5    1    3    3  502    0  0.40628286377E+01  0.14058378393E+02 -0.15780411003E+02  0.21923465762E+02  0.41800000000E+01 0. -1.
         -5    1    3    3    0  502 -0.52659799567E+02  0.37387747346E+02  0.20963131542E+03  0.21939384437E+03  0.41800000000E+01 0. -1.
        -11    1    1    2    0    0  0.11589868102E+02 -0.12062410949E+02 -0.32317030379E+02  0.36389796002E+02  0.00000000000E+00 0.  1.
         11    1    1    2    0    0  0.37007102827E+02 -0.39383714790E+02  0.65082924677E+02  0.84595447483E+02  0.00000000000E+00 0. -1.
</event>
<event>
 7    1  0.2556591E-009  0.8109079E+02  0.7561462E-02  0.1325984E+00
          1   -1    0    0  501    0  0.00000000000E+00  0.00000000000E+00  0.51695283129E+02  0.51695283129E+02  0.00000000000E+00 0. -1.
         -1   -1    0    0    0  501 -0.00000000000E+00 -0.00000000000E+00 -0.50277914500E+03  0.50277914500E+03  0.00000000000E+00 0.  1.
         25    2    1    2    0    0  0.46007009551E+02 -0.23446116036E+02 -0.42372382494E+03  0.44481185964E+03  0.12509734359E+03 0.  0.
          5    1    3    3  502    0  0.51198564794E+02 -0.24011266894E+02 -0.65949279205E+02  0.86974788315E+02  0.41800000000E+01 0.  1.
         -5    1    3    3    0  502 -0.51915552433E+01  0.56515085787E+00 -0.35777454573E+03  0.35783707133E+03  0.41800000000E+01 0.  1.
        -11    1    1    2    0    0  0.18610501765E+02 -0.14731894083E+02 -0.25142860440E+02  0.34576623756E+02  0.00000000000E+00 0.  1.
         11    1    1    2    0    0 -0.64617511316E+02  0.38178010119E+02 -0.22171764985E+01  0.75085944737E+02  0.00000000000E+00 0. -1.
</event>
<event>
 7    1  0.2556591E-009  0.1323136E+03  0.7561462E-02  0.1224063E+00
          2   -1    0    0  501    0  0.00000000000E+00  0.00000000000E+00  0.35702740054E+03  0.35702740054E+03  0.00000000000E+00 0. -1.
         -2   -1    0    0    0  501 -0.00000000000E+00 -0.00000000000E+00 -0.10766470211E+03  0.10766470211E+03  0.00000000000E+00 0.  1.
         25    2    1    2    0    0  0.92194334544E+02  0.89500776334E+01 -0.26719177618E+02  0.15792035389E+03  0.12508007238E+03 0.  0.
          5    1    3    3  502    0  0.20631761468E+00  0.38110667555E+02  0.27472822136E+02  0.47166660943E+02  0.41800000000E+01 0. -1.
         -5    1    3    3    0  502  0.91988016929E+02 -0.29160589922E+02 -0.54191999754E+02  0.11075369294E+03  0.41800000000E+01 0. -1.
        -11    1    1    2    0    0 -0.58716646591E+02  0.39528854014E+02  0.11261774272E+03  0.13301477685E+03  0.00000000000E+00 0.  1.
         11    1    1    2    0    0 -0.33477687953E+02 -0.48478931647E+02  0.16346413333E+03  0.17375697192E+03  0.00000000000E+00 0. -1.
</event>
<event>
 7    1  0.2556591E-009  0.1619126E+03  0.7561462E-02  0.1186554E+00
          1   -1    0    0  501    0  0.00000000000E+00  0.00000000000E+00  0.17921391655E+03  0.17921391655E+03  0.00000000000E+00 0. -1.
         -1   -1    0    0    0  501 -0.00000000000E+00 -0.00000000000E+00 -0.15160884106E+03  0.15160884106E+03  0.00000000000E+00 0.  1.
         25    2    1    2    0    0  0.11919102072E+03 -0.28906943599E+02 -0.82020801511E+01  0.17537794404E+03  0.12509211936E+03 0.  0.
          5    1    3    3  502    0  0.50803134696E+02  0.49368144607E+02  0.76486969715E+00  0.70966397841E+02  0.41800000000E+01 0.  1.
         -5    1    3    3    0  502  0.68387886029E+02 -0.78275088207E+02 -0.89669498483E+01  0.10441154620E+03  0.41800000000E+01 0.  1.
        -11    1    1    2    0    0 -0.11132345209E+03  0.53141873532E+02  0.18728877371E+02  0.12477075200E+03  0.00000000000E+00 0.  1.
         11    1    1    2    0    0 -0.78675686389E+01 -0.24234929933E+02  0.17078278272E+02  0.30674061581E+02  0.00000000000E+00 0. -1.
</event>
<event>
 7    1  0.2556591E-009  0.9441421E+02  0.7561462E-02  0.1292501E+00
         -1   -1    0    0    0  501 -0.00000000000E+00  0.00000000000E+00  0.16877368549E+03  0.16877368549E+03  0.00000000000E+00 0.  1.
          1   -1    0    0  501    0  0.00000000000E+00 -0.00000000000E+00 -0.10718463167E+03  0.10718463167E+03  0.00000000000E+00 0. -1.
         25    2    1    2    0    0 -0.49771880658E+02  0.58090933496E+02  0.10924824995E+02  0.14703388003E+03  0.12509122038E+03 0.  0.
          5    1    3    3  502    0 -0.56134094871E+01  0.28479933629E+02 -0.54944288928E+02  0.62281331644E+02  0.41800000000E+01 0. -1.
         -5    1    3    3    0  502 -0.44158471171E+02  0.29610999867E+02  0.65869113923E+02  0.84752548388E+02  0.41800000000E+01 0. -1.
        -11    1    1    2    0    0  0.57912561337E+02 -0.11716270526E+02 -0.90687245686E+00  0.59092792905E+02  0.00000000000E+00 0. -1.
         11    1    1    2    0    0 -0.81406806792E+01 -0.46374662970E+02  0.51571101282E+02  0.69831644223E+02  0.00000000000E+00 0.  1.
</event>
<event>
 7    1  0.2556591E-009  0.8636967E+02  0.7561462E-02  0.1311889E+00
         -2   -1    0    0    0  501 -0.00000000000E+00  0.00000000000E+00  0.20182311020E+02  0.20182311020E+02  0.00000000000E+00 0.  1.
          2   -1    0    0  501    0  0.00000000000E+00 -0.00000000000E+00 -0.70972238674E+03  0.70972238674E+03  0.00000000000E+00 0. -1.
         25    2    1    2    0    0  0.40350561109E+02 -0.30101755221E+02 -0.39786186314E+03  0.42009254371E+03  0.12509756070E+03 0.  0.
          5    1    3    3  502    0  0.40053470846E+02  0.85639663154E+01 -0.36991886810E+03  0.37220298685E+03  0.41800000000E+01 0. -1.
         -5    1    3    3    0  502  0.29709026361E+00 -0.38665721536E+02 -0.27942995040E+02  0.47889556861E+02  0.41800000000E+01 0. -1.
        -11    1    1    2    0    0 -0.15434741734E+02 -0.26592927493E+02 -0.17536537522E+03  0.17804052873E+03  0.00000000000E+00 0.  1.
         11    1    1    2    0    0 -0.24915819375E+02  0.56694682714E+02 -0.11631283736E+03  0.13177162531E+03  0.00000000000E+00 0. -1.
</event>
<event>
 7    1  0.2556591E-009  0.1124016E+03  0.7561462E-02  0.1256186E+00
          1   -1    0    0  501    0  0.00000000000E+00  0.00000000000E+00  0.31025286795E+03  0.31025286795E+03  0.00000000000E+00 0. -1.
         -1   -1    0    0    0  501 -0.00000000000E+00 -0.00000000000E+00 -0.63356131684E+02  0.63356131684E+02  0.00000000000E+00 0.  1.
         25    2    1    2    0    0  0.89399692357E+02  0.58830635375E+01  0.14059925682E+03  0.20842774578E+03  0.12508820393E+03 0.  0.
          5    1    3    3  502    0 -0.65965141462E+01 -0.12415633106E+02 -0.17303538028E+02  0.22683623445E+02  0.41800000000E+01 0.  1.
         -5    1    3    3    0  502  0.95996206503E+02  0.18298696644E+02  0.15790279484E+03  0.18574412233E+03  0.41800000000E+01 0.  1.
        -11    1    1    2    0    0 -0.48769741419E+02  0.30717432392E+02  0.92159496064E+02  0.10869876285E+03  0.00000000000E+00 0. -1.
         11    1    1    2    0    0 -0.40629950937E+02 -0.36600495929E+02  0.14137983383E+02  0.56482491000E+02  0.00000000000E+00 0.  1.
</event>
<event>
 7    1  0.2556591E-009  0.1314524E+03  0.7561462E-02  0.1225316E+00
         -2   -1    0    0    0  501 -0.00000000000E+00  0.00000000000E+00  0.36597781129E+02  0.36597781129E+02  0.00000000000E+00 0.  1.
          2   -1    0    0  501    0  0.00000000000E+00 -0.00000000000E+00 -0.53019036505E+03  0.53019036505E+03  0.00000000000E+00 0. -1.
         25    2    1    2    0    0  0.22397856973E+02  0.83105815451E+02 -0.23296269613E+03  0.27807833631E+03  0.12509077815E+03 0.  0.
          5    1    3    3  502    0  0.53861113406E+02  0.10034975604E+03 -0.19359627923E+03  0.22465102894E+03  0.41800000000E+01 0.  1.
         -5    1    3    3    0  502 -0.31463256433E+02 -0.17243940591E+02 -0.39366416905E+02  0.53427307367E+02  0.41800000000E+01 0.  1.
        -11    1    1    2    0    0 -0.48933095455E+02 -0.45705129478E+02 -0.90931508269E+02  0.11292451411E+03  0.00000000000E+00 0.  1.
         11    1    1    2    0    0  0.26535238482E+02 -0.37400685973E+02 -0.16969837951E+03  0.17578529575E+03  0.00000000000E+00 0. -1.
</event>
<event>
 7    1  0.2556591E-009  0.1731680E+03  0.7561462E-02  0.1174584E+00
          2   -1    0    0  501    0  0.00000000000E+00  0.00000000000E+00  0.18433878131E+03  0.18433878131E+03  0.00000000000E+00 0. -1.
         -2   -1    0    0    0  501 -0.00000000000E+00 -0.00000000000E+00 -0.35600119442E+03  0.35600119442E+03  0.00000000000E+00 0.  1.
         25    2    1    2    0    0  0.11291234471E+03 -0.11585522656E+03 -0.26324296463E+03  0.33334229431E+03  0.12509434695E+03 0.  0.
          5    1    3    3  502    0  0.10257452883E+03 -0.10848923182E+03 -0.12588430475E+03  0.19533504029E+03  0.41800000000E+01 0. -1.
         -5    1    3    3    0  502  0.10337815880E+02 -0.73659947355E+01 -0.13735865988E+03  0.13800725401E+03  0.41800000000E+01 0. -1.
        -11    1    1    2    0    0 -0.21678338821E+02  0.84347492213E+02  0.28256717467E+02  0.91558133985E+02  0.00000000000E+00 0. -1.
         11    1    1    2    0    0 -0.91234005886E+02  0.31507734342E+02  0.63323834050E+02  0.11543954744E+03  0.00000000000E+00 0.  1.
</event>
<event>
 7    1  0.2643194E-009  0.3014522E+03  0.7561462E-02  0.1084517E+00
          2   -1    0    0  501    0  0.00000000000E+00  0.00000000000E+00  0.10270507105E+04  0.10270507105E+04  0.00000000000E+00 0. -1.
         -2   -1    0    0    0  501 -0.00000000000E+00 -0.00000000000E+00 -0.92335579861E+02  0.92335579861E+02  0.00000000000E+00 0.  1.
         25    2    1    2    0    0  0.23456242125E+03  0.16020032049E+03  0.39251373868E+03  0.50039723508E+03  0.12508671263E+03 0.  0.
          5    1    3    3  502    0  0.96866979771E+02  0.13183873212E+03  0.25962641135E+03  0.30690064993E+03  0.41800000000E+01 0. -1.
         -5    1    3    3    0  502  0.13769544148E+03  0.28361588365E+02  0.13288732733E+03  0.19349658515E+03  0.41800000000E+01 0. -1.
        -11    1    1    2    0    0 -0.73902063284E+02 -0.10565618250E+03  0.23509813361E+03  0.26813406402E+03  0.00000000000E+00 0. -1.
         11    1    1    2    0    0 -0.16066035797E+03 -0.54544137988E+02  0.30710325839E+03  0.35085499130E+03  0.00000000000E+00 0.  1.
</event>
<event>
 7    1  0.2556591E-009  0.1155676E+03  0.7561462E-02  0.1250594E+00
         -2   -1    0    0    0  501 -0.00000000000E+00  0.00000000000E+00  0.14492854034E+03  0.14492854034E+03  0.00000000000E+00 0.  1.
          2   -1    0    0  501    0  0.00000000000E+00 -0.00000000000E+00 -0.11257701578E+03  0.11257701578E+03  0.00000000000E+00 0. -1.
         25    2    1    2    0    0 -0.28445491648E+02  0.48419729264E+02 -0.20808432731E+02  0.13868403766E+03  0.12508659101E+03 0.  0.
          5    1    3    3  502    0 -0.71556873060E+02  0.16746741701E+02  0.13718878463E+02  0.74876695080E+02  0.41800000000E+01 0. -1.
         -5    1    3    3    0  502  0.43111381413E+02  0.31672987562E+02 -0.34527311194E+02  0.63807342577E+02  0.41800000000E+01 0. -1.
        -11    1    1    2    0    0  0.50009896165E+02 -0.61017292615E+02  0.50578923877E+02  0.93714071799E+02  0.00000000000E+00 0. -1.
         11    1    1    2    0    0 -0.21564404517E+02  0.12597563352E+02  0.25810334168E+01  0.25107446666E+02  0.00000000000E+00 0.  1.
</event>
<event>
 7    1  0.2556591E-009  0.1013386E+03  0.7561462E-02  0.1277506E+00
          2   -1    0    0  501    0  0.00000000000E+00  0.00000000000E+00  0.12885692391E+02  0.12885692391E+02  0.00000000000E+00 0. -1.
         -2   -1    0    0    0  501 -0.00000000000E+00 -0.00000000000E+00 -0.10282287117E+04  0.10282287117E+04  0.00000000000E+00 0.  1.
         25    2    1    2    0    0 -0.25663253918E+02 -0.10527903972E+02 -0.69810669273E+03  0.70976755736E+03  0.12509033410E+03 0.  0.
          5    1    3    3  502    0  0.13985051567E+02  0.40044031332E+02 -0.49181184419E+03  0.49365521227E+03  0.41800000000E+01 0.  1.
         -5    1    3    3    0  502 -0.39648305484E+02 -0.50571935304E+02 -0.20629484854E+03  0.21611234509E+03  0.41800000000E+01 0.  1.
        -11    1    1    2    0    0 -0.26111458702E+01  0.48358839412E+02 -0.16254497090E+03  0.16960619976E+03  0.00000000000E+00 0.  1.
         11    1    1    2    0    0  0.28274399788E+02 -0.37830935440E+02 -0.15469135565E+03  0.16174064693E+03  0.00000000000E+00 0. -1.
</event>
<event>
 7    1  0.2556591E-009  0.1224328E+03  0.7561462E-02  0.1239137E+00
          1   -1    0    0  501    0  0.00000000000E+00  0.00000000000E+00  0.74610560514E+03  0.74610560514E+03  0.00000000000E+00 0. -1.
         -1   -1    0    0    0  501 -0.00000000000E+00 -0.00000000000E+00 -0.20484596009E+02  0.20484596009E+02  0.00000000000E+00 0.  1.
         25    2    1    2    0    0 -0.80463799283E+01  0.56272146522E+02  0.35896248325E+03  0.38436045416E+03  0.12509034988E+03 0.  0.
          5    1    3    3  502    0 -0.66168624211E+02  0.36512171199E+02  0.20771948021E+03  0.22107980535E+03  0.41800000000E+01 0.  1.
         -5    1    3    3    0  502  0.58122244283E+02  0.19759975323E+02  0.15124300305E+03  0.16328064881E+03  0.41800000000E+01 0.  1.
        -11    1    1    2    0    0 -0.41309045140E+02 -0.33977250667E+02  0.16699879849E+03  0.17535532347E+03  0.00000000000E+00 0.  1.
         11    1    1    2    0    0  0.49355425068E+02 -0.22294895855E+02  0.19965972739E+03  0.20687442351E+03  0.00000000000E+00 0. -1.
</event>
<event>
 7    1  0.2556591E-009  0.8408805E+02  0.7561462E-02  0.1317835E+00
         -1   -1    0    0    0  501 -0.00000000000E+00  0.00000000000E+00  0.13339737011E+03  0.13339737011E+03  0.00000000000E+00 0.  1.
          1   -1    0    0  501    0  0.00000000000E+00 -0.00000000000E+00 -0.11655822759E+03  0.11655822759E+03  0.00000000000E+00 0. -1.
         25    2    1    2    0    0 -0.80515135023E+01  0.13704254630E+02  0.68664541210E+02  0.14358504705E+03  0.12509681472E+03 0.  0.
          5    1    3    3  502    0  0.51605705516E+02  0.27051659893E+02  0.10998151519E+02  0.59442180996E+02  0.41800000000E+01 0.  1.
         -5    1    3    3    0  502 -0.59657219018E+02 -0.13347405262E+02  0.57666389692E+02  0.84142866057E+02  0.41800000000E+01 0.  1.
        -11    1    1    2    0    0 -0.18945555854E+02 -0.19676259448E+01  0.20681026126E+02  0.28116018212E+02  0.00000000000E+00 0.  1.
         11    1    1    2    0    0  0.26997069357E+02 -0.11736628685E+02 -0.72506424816E+02  0.78254532434E+02  0.00000000000E+00 0. -1.
</event>
<event>
 7    1  0.2556591E-009  0.1115449E+03  0.7561462E-02  0.1257735E+00
          1   -1    0    0  501    0  0.00000000000E+00  0.00000000000E+00  0.23539028118E+03  0.23539028118E+03  0.00000000000E+00 0. -1.
         -1   -1    0    0    0  501 -0.00000000000E+00 -0.00000000000E+00 -0.78615759736E+02  0.78615759736E+02  0.00000000000E+00 0.  1.
         25    2    1    2    0    0 -0.34369668199E+02 -0.31311080740E+02  0.93411525696E+01  0.13377772579E+03  0.12509022710E+03 0.  0.
          5    1    3    3  502    0  0.34656240138E+02 -0.37991279764E+02 -0.23782890334E+02  0.56811007659E+02  0.41800000000E+01 0.  1.
         -5    1    3    3    0  502 -0.69025908338E+02  0.66801990234E+01  0.33124042904E+02  0.76966718126E+02  0.41800000000E+01 0.  1.
        -11    1    1    2    0    0 -0.26529514132E+02  0.31421106206E+02  0.44207770726E+02  0.60377380101E+02  0.00000000000E+00 0.  1.
         11    1    1    2    0    0  0.60899182331E+02 -0.11002546601E+00  0.10322559815E+03  0.11985093503E+03  0.00000000000E+00 0. -1.
</event>
<event>
 7    1  0.2556591E-009  0.1102006E+03  0.7561462E-02  0.1260199E+00
         -2   -1    0    0    0  501 -0.00000000000E+00  0.00000000000E+00  0.27041329043E+02  0.27041329043E+02  0.00000000000E+00 0.  1.
          2   -1    0    0  501    0  0.00000000000E+00 -0.00000000000E+00 -0.17575203005E+04  0.17575203005E+04  0.00000000000E+00 0. -1.
         25    2    1    2    0    0 -0.34880835461E+02  0.28154188959E+02 -0.16484383049E+04  0.16537852214E+04  0.12508949688E+03 0.  0.
          5    1    3    3  502    0  0.17132838033E+01  0.70067057637E+02 -0.11698883825E+04  0.11719934419E+04  0.41800000000E+01 0. -1.
         -5    1    3    3    0  502 -0.36594119265E+02 -0.41912868678E+02 -0.47854992241E+03  0.48179177947E+03  0.41800000000E+01 0. -1.
        -11    1    1    2    0    0  0.15076991061E+02  0.29664222018E+02 -0.54241581816E+02  0.63635139076E+02  0.00000000000E+00 0.  1.
         11    1    1    2    0    0  0.19803844400E+02 -0.57818410976E+02 -0.27799084659E+02  0.67141269043E+02  0.00000000000E+00 0. -1.
</event>
<event>
 7    1  0.2556591E-009  0.1972205E+03  0.7561462E-02  0.1152105E+00
          2   -1    0    0  501    0  0.00000000000E+00  0.00000000000E+00  0.80319767421E+03  0.80319767421E+03  0.00000000000E+00 0. -1.
         -2   -1    0    0    0  501 -0.00000000000E+00 -0.00000000000E+00 -0.67382317191E+02  0.67382317191E+02  0.00000000000E+00 0.  1.
         25    2    1    2    0    0 -0.10550698192E+02  0.17833024988E+03  0.57513999484E+03  0.61509908441E+03  0.12509146546E+03 0.  0.
          5    1    3    3  502    0  0.54240625012E+02  0.10190670768E+03  0.35176668600E+03  0.37024896523E+03  0.41800000000E+01 0. -1.
         -5    1    3    3    0  502 -0.64791323203E+02  0.76423542198E+02  0.22337330884E+03  0.24485011919E+03  0.41800000000E+01 0. -1.
        -11    1    1    2    0    0  0.61525814751E+01 -0.10934712582E+03  0.40354712051E+02  0.11671825465E+03  0.00000000000E+00 0.  1.
         11    1    1    2    0    0  0.43981167166E+01 -0.68983124054E+02  0.12032065013E+03  0.13876265234E+03  0.00000000000E+00 0. -1.
</event>
<event>
 7    1  0.2556591E-009  0.9487421E+02  0.7561462E-02  0.1291460E+00
          2   -1    0    0  501    0  0.00000000000E+00  0.00000000000E+00  0.68024063155E+03  0.68024063155E+03  0.00000000000E+00 0.  1.
         -2   -1    0    0    0  501 -0.00000000000E+00 -0.00000000000E+00 -0.24210413133E+02  0.24210413133E+02  0.00000000000E+00 0. -1.
         25    2    1    2    0    0  0.24394786899E+02  0.19300265522E+02  0.52272006550E+03  0.53837858598E+03  0.12509048362E+03 0.  0.
          5    1    3    3  502    0  0.18280147429E+02  0.53111360398E+02  0.10436300222E+03  0.11859211199E+03  0.41800000000E+01 0.  1.
         -5    1    3    3    0  502  0.61146394703E+01 -0.33811094877E+02  0.41835706328E+03  0.41978647400E+03  0.41800000000E+01 0.  1.
        -11    1    1    2    0    0 -0.74814568455E+01 -0.57001192360E+02  0.71972928263E+02  0.92115202490E+02  0.00000000000E+00 0. -1.
         11    1    1    2    0    0 -0.16913330054E+02  0.37700926839E+02  0.61337224658E+02  0.73957256214E+02  0.00000000000E+00 0.  1.
</event>
<event>
 7    1  0.2556591E-009  0.1023526E+03  0.7561462E-02  0.1275425E+00
          1   -1    0    0  501    0  0.00000000000E+00  0.00000000000E+00  0.28539066970E+03  0.28539066970E+03  0.00000000000E+00 0. -1.
         -1   -1    0    0    0  501 -0.00000000000E+00 -0.00000000000E+00 -0.68972942638E+02  0.68972942638E+02  0.00000000000E+00 0.  1.
         25    2    1    2    0    0  0.48048245753E+02  0.64403539212E+02  0.70739072149E+02  0.16464411374E+03  0.12508884074E+03 0.  0.
          5    1    3    3  502    0 -0.15445059025E+01 -0.23184317461E+02  0.58598027668E+02  0.63175147971E+02  0.41800000000E+01 0. -1.
         -5    1    3    3    0  502  0.49592751655E+02  0.87587856673E+02  0.12141044482E+02  0.10146896577E+03  0.41800000000E+01 0. -1.
        -11    1    1    2    0    0 -0.21004966227E+02 -0.27445048052E+02  0.13924975055E+03  0.14347450051E+03  0.00000000000E+00 0. -1.
         11    1    1    2    0    0 -0.27043279526E+02 -0.36958491159E+02  0.64289043584E+01  0.46244998082E+02  0.00000000000E+00 0.  1.
</event>
<event>
 7    1  0.2556591E-009  0.1945659E+03  0.7561462E-02  0.1154407E+00
         -2   -1    0    0    0  501 -0.00000000000E+00  0.00000000000E+00  0.11089968273E+03  0.11089968273E+03  0.00000000000E+00 0.  1.
          2   -1    0    0  501    0  0.00000000000E+00 -0.00000000000E+00 -0.47068282555E+03  0.47068282555E+03  0.00000000000E+00 0. -1.
         25    2    1    2    0    0  0.14143979692E+03  0.10506934234E+03 -0.30525385216E+03  0.37399409122E+03  0.12508750201E+03 0.  0.
          5    1    3    3  502    0  0.12378349804E+03  0.53028329200E+02 -0.11900178492E+03  0.17975888101E+03  0.41800000000E+01 0. -1.
         -5    1    3    3    0  502  0.17656298877E+02  0.52041013141E+02 -0.18625206723E+03  0.19423521022E+03  0.41800000000E+01 0. -1.
        -11    1    1    2    0    0 -0.92915666704E+02 -0.11691552117E+03 -0.31692257666E+02  0.15266616982E+03  0.00000000000E+00 0. -1.
         11    1    1    2    0    0 -0.48524130216E+02  0.11846178833E+02 -0.22837032997E+02  0.54922247243E+02  0.00000000000E+00 0.  1.
</event>
<event>
 7    1  0.2556591E-009  0.7605741E+02  0.7561462E-02  0.1340627E+00
          2   -1    0    0  501    0  0.00000000000E+00  0.00000000000E+00  0.29593216412E+03  0.29593216412E+03  0.00000000000E+00 0. -1.
         -2   -1    0    0    0  501 -0.00000000000E+00 -0.00000000000E+00 -0.49193250715E+02  0.49193250715E+02  0.00000000000E+00 0.  1.
         25    2    1    2    0    0 -0.42899459811E+02 -0.30956575481E+02  0.14186068602E+03  0.19639407559E+03  0.12508998950E+03 0.  0.
          5    1    3    3  502    0 -0.10460760063E+02 -0.22436226802E+02  0.15726101170E+03  0.15925234685E+03  0.41800000000E+01 0. -1.
         -5    1    3    3    0  502 -0.32438699748E+02 -0.85203486785E+01 -0.15400325686E+02  0.37141728745E+02  0.41800000000E+01 0. -1.
        -11    1    1    2    0    0 -0.18378842052E+02 -0.85822018849E+01  0.59443433832E+02  0.62808899450E+02  0.00000000000E+00 0. -1.
         11    1    1    2    0    0  0.61278301863E+02  0.39538777366E+02  0.45434793559E+02  0.85922439796E+02  0.00000000000E+00 0.  1.
</event>
<event>
 7    1  0.3165218E-009  0.1502166E+03  0.7561462E-02  0.1200207E+00
         -2   -1    0    0    0  501 -0.00000000000E+00  0.00000000000E+00  0.23268177896E+02  0.23268177896E+02  0.00000000000E+00 0.  1.
          2   -1    0    0  501    0  0.00000000000E+00 -0.00000000000E+00 -0.10961211510E+04  0.10961211510E+04  0.00000000000E+00 0. -1.
         25    2    1    2    0    0  0.59178952550E+02  0.98311959789E+02 -0.49767848472E+03  0.52583170802E+03  0.12509085156E+03 0.  0.
          5    1    3    3  502    0  0.59243620392E+02  0.37897112603E+01 -0.30991270108E+03  0.31557490895E+03  0.41800000000E+01 0.  1.
         -5    1    3    3    0  502 -0.64667842579E-01  0.94522248528E+02 -0.18776578364E+03  0.21025679907E+03  0.41800000000E+01 0.  1.
        -11    1    1    2    0    0  0.24420176603E+02 -0.27200796648E+02 -0.15985087887E+03  0.16397722964E+03  0.00000000000E+00 0.  1.
         11    1    1    2    0    0 -0.83599129153E+02 -0.71111163141E+02 -0.41532360947E+03  0.42958039120E+03  0.00000000000E+00 0. -1.
</event>
<event>
 7    1  0.2556591E-009  0.1547174E+03  0.7561462E-02  0.1194793E+00
         -2   -1    0    0    0  501 -0.00000000000E+00  0.00000000000E+00  0.25516271897E+02  0.25516271897E+02  0.00000000000E+00 0.  1.
          2   -1    0    0  501    0  0.00000000000E+00 -0.00000000000E+00 -0.10017665961E+04  0.10017665961E+04  0.00000000000E+00 0. -1.
         25    2    1    2    0    0  0.46696990782E+02  0.10923622647E+03 -0.52769143776E+03  0.55517407763E+03  0.12508733294E+03 0.  0.
          5    1    3    3  502    0  0.73364014241E+02  0.29564438225E+02 -0.34605689639E+03  0.35500589084E+03  0.41800000000E+01 0. -1.
         -5    1    3    3    0  502 -0.26667023459E+02  0.79671788247E+02 -0.18163454138E+03  0.20016818679E+03  0.41800000000E+01 0. -1.
        -11    1    1    2    0    0 -0.12509122545E+02  0.13673023966E+02 -0.39777822959E+02  0.43882854631E+02  0.00000000000E+00 0. -1.
         11    1    1    2    0    0 -0.34187868237E+02 -0.12290925044E+03 -0.40878106352E+03  0.42822593578E+03  0.00000000000E+00 0.  1.
</event>
<event>
 7    1  0.2556591E-009  0.1132304E+03  0.7561462E-02  0.1254702E+00
          1   -1    0    0  501    0  0.00000000000E+00  0.00000000000E+00  0.11232366180E+03  0.11232366180E+03  0.00000000000E+00 0. -1.
         -1   -1    0    0    0  501 -0.00000000000E+00 -0.00000000000E+00 -0.14312010530E+03  0.14312010530E+03  0.00000000000E+00 0.  1.
         25    2    1    2    0    0  0.70210267238E+02  0.66651927251E+01 -0.63266401298E+01  0.14373975063E+03  0.12508870100E+03 0.  0.
          5    1    3    3  502    0 -0.20449090136E+02  0.39301036553E+02 -0.14866382372E+02  0.46917144909E+02  0.41800000000E+01 0.  1.
         -5    1    3    3    0  502  0.90659357375E+02 -0.32635843828E+02  0.85397422423E+01  0.96822605726E+02  0.41800000000E+01 0.  1.
        -11    1    1    2    0    0 -0.72197246071E+02 -0.17674192373E+02 -0.46020644670E+02  0.87422646677E+02  0.00000000000E+00 0.  1.
         11    1    1    2    0    0  0.19869788325E+01  0.11008999648E+02  0.21550841300E+02  0.24281369790E+02  0.00000000000E+00 0. -1.
</event>
<event>
 7    1  0.2556591E-009  0.2569006E+03  0.7561462E-02  0.1109020E+00
          2   -1    0    0  501    0  0.00000000000E+00  0.00000000000E+00  0.16794065819E+03  0.16794065819E+03  0.00000000000E+00 0. -1.
         -2   -1    0    0    0  501 -0.00000000000E+00 -0.00000000000E+00 -0.46545933996E+03  0.46545933996E+03  0.00000000000E+00 0.  1.
         25    2    1    2    0    0  0.11798400843E+03 -0.21411087616E+03 -0.59729830742E+02  0.28103179728E+03  0.12509006702E+03 0.  0.
          5    1    3    3  502    0  0.12442985548E+02 -0.11108125488E+03 -0.71915030397E+02  0.13297788189E+03  0.41800000000E+01 0. -1.
         -5    1    3    3    0  502  0.10554102288E+03 -0.10302962128E+03  0.12185199656E+02  0.14805391539E+03  0.41800000000E+01 0. -1.
        -11    1    1    2    0    0 -0.64649349766E+02  0.49686082532E+02 -0.11222510676E+03  0.13871813079E+03  0.00000000000E+00 0.  1.
         11    1    1    2    0    0 -0.53334658663E+02  0.16442479363E+03 -0.12556374427E+03  0.21365007009E+03  0.00000000000E+00 0. -1.
</event>
<event>
 7    1  0.2556591E-009  0.3114956E+03  0.7561462E-02  0.1079631E+00
          2   -1    0    0  501    0  0.00000000000E+00  0.00000000000E+00  0.77841982225E+03  0.77841982225E+03  0.00000000000E+00 0.  1.
         -2   -1    0    0    0  501 -0.00000000000E+00 -0.00000000000E+00 -0.13871948662E+03  0.13871948662E+03  0.00000000000E+00 0. -1.
         25    2    1    2    0    0  0.30746346945E+03 -0.41889975980E+02  0.32203086039E+03  0.46436947082E+03  0.12508627125E+03 0.  0.
          5    1    3    3  502    0  0.11177308100E+03 -0.34273458378E+01  0.39822018942E+02  0.11877808690E+03  0.41800000000E+01 0.  1.
         -5    1    3    3    0  502  0.19569038845E+03 -0.38462630142E+02  0.28220884145E+03  0.34559138392E+03  0.41800000000E+01 0.  1.
        -11    1    1    2    0    0 -0.16525032532E+03  0.36836657960E+02  0.23012036753E+03  0.28569212964E+03  0.00000000000E+00 0.  1.
         11    1    1    2    0    0 -0.14221314413E+03  0.50533180194E+01  0.87549107723E+02  0.16707770842E+03  0.00000000000E+00 0. -1.
</event>
<event>
 7    1  0.2556591E-009  0.1400468E+03  0.7561462E-02  0.1213266E+00
          1   -1    0    0  501    0  0.00000000000E+00  0.00000000000E+00  0.36250216594E+02  0.36250216594E+02  0.00000000000E+00 0. -1.
         -1   -1    0    0    0  501 -0.00000000000E+00 -0.00000000000E+00 -0.73690521519E+03  0.73690521519E+03  0.00000000000E+00 0.  1.
         25    2    1    2    0    0  0.11807036079E+02 -0.10558483721E+03 -0.52026989685E+03  0.54554083356E+03  0.12508585678E+03 0.  0.
          5    1    3    3  502    0 -0.42484982294E+02 -0.40644253420E+02 -0.35446244611E+03  0.35932996974E+03  0.41800000000E+01 0. -1.
         -5    1    3    3    0  502  0.54292018373E+02 -0.64940583788E+02 -0.16580745075E+03  0.18621086382E+03  0.41800000000E+01 0. -1.
        -11    1    1    2    0    0  0.18796596617E+02  0.10407615163E+03 -0.12037918030E+03  0.16023827393E+03  0.00000000000E+00 0. -1.
         11    1    1    2    0    0 -0.30603632696E+02  0.15086855760E+01 -0.60005921448E+02  0.67376324292E+02  0.00000000000E+00 0.  1.
</event>
<event>
 7    1  0.2556591E-009  0.1336534E+03  0.7561462E-02  0.1222133E+00
          1   -1    0    0  501    0  0.00000000000E+00  0.00000000000E+00  0.18128327982E+04  0.18128327982E+04  0.00000000000E+00 0. -1.
         -1   -1    0    0    0  501 -0.00000000000E+00 -0.00000000000E+00 -0.11266880840E+02  0.11266880840E+02  0.00000000000E+00 0.  1.
         25    2    1    2    0    0 -0.48072218418E+01  0.86220432254E+02  0.11810462862E+04  0.11907888380E+04  0.12510257438E+03 0.  0.
          5    1    3    3  502    0  0.53546882287E+02  0.27415352374E+02  0.70458801866E+03  0.70716378484E+03  0.41800000000E+01 0.  1.
         -5    1    3    3    0  502 -0.58354104129E+02  0.58805079880E+02  0.47645826755E+03  0.48362505312E+03  0.41800000000E+01 0.  1.
        -11    1    1    2    0    0 -0.42062754961E+02 -0.45531547463E+02  0.24639396314E+03  0.25407160849E+03  0.00000000000E+00 0.  1.
         11    1    1    2    0    0  0.46869976803E+02 -0.40688884792E+02  0.37412566797E+03  0.37923923255E+03  0.00000000000E+00 0. -1.
</event>
<event>
 7    1  0.2556591E-009  0.1095846E+03  0.7561462E-02  0.1261341E+00
          2   -1    0    0  501    0  0.00000000000E+00  0.00000000000E+00  0.14532817897E+04  0.14532817897E+04  0.00000000000E+00 0. -1.
         -2   -1    0    0    0  501 -0.00000000000E+00 -0.00000000000E+00 -0.18654943104E+02  0.18654943104E+02  0.00000000000E+00 0.  1.
         25    2    1    2    0    0 -0.48265690882E+02  0.77475079350E+01  0.12794407602E+04  0.12864696260E+04  0.12508332862E+03 0.  0.
          5    1    3    3  502    0  0.33069060422E+02 -0.23042229297E+02  0.61735964185E+03  0.61868805295E+03  0.41800000000E+01 0. -1.
         -5    1    3    3    0  502 -0.81334751304E+02  0.30789737232E+02  0.66208111833E+03  0.66778157307E+03  0.41800000000E+01 0. -1.
        -11    1    1    2    0    0  0.42073591986E+02 -0.40409431501E+02  0.56025661647E+02  0.80882532477E+02  0.00000000000E+00 0.  1.
         11    1    1    2    0    0  0.61920988964E+01  0.32661923566E+02  0.99160424738E+02  0.10458457426E+03  0.00000000000E+00 0. -1.
</event>
<event>
 7    1  0.2556591E-009  0.1160897E+03  0.7561462E-02  0.1249691E+00
          2   -1    0    0  501    0  0.00000000000E+00  0.00000000000E+00  0.51274906794E+03  0.51274906794E+03  0.00000000000E+00 0. -1.
         -2   -1    0    0    0  501 -0.00000000000E+00 -0.00000000000E+00 -0.38104697483E+02  0.38104697483E+02  0.00000000000E+00 0.  1.
         25    2    1    2    0    0  0.80114083617E+02  0.34799295372E+02  0.24993242901E+03  0.29281740188E+03  0.12508618796E+03 0.  0.
          5    1    3    3  502    0 -0.88050025372E+01  0.11953957485E+02 -0.91391311328E+01  0.17928225988E+02  0.41800000000E+01 0. -1.
         -5    1    3    3    0  502  0.88919086154E+02  0.22845337888E+02  0.25907156014E+03  0.27488917589E+03  0.41800000000E+01 0. -1.
        -11    1    1    2    0    0 -0.24042827548E+02  0.30465605756E+02  0.92255051928E+02  0.10008598951E+03  0.00000000000E+00 0. -1.
         11    1    1    2    0    0 -0.56071256069E+02 -0.65264901128E+02  0.13245688952E+03  0.15795037403E+03  0.00000000000E+00 0.  1.
</event>
<event>
 7    1  0.2556591E-009  0.6311922E+02  0.7561462E-02  0.1385189E+00
          3   -1    0    0  501    0  0.00000000000E+00  0.00000000000E+00  0.30441447895E+03  0.30441447895E+03  0.00000000000E+00 0. -1.
         -3   -1    0    0    0  501 -0.00000000000E+00 -0.00000000000E+00 -0.42258328863E+02  0.42258328863E+02  0.00000000000E+00 0.  1.
         25    2    1    2    0    0 -0.41912126504E+01 -0.19345126598E+02  0.10601903970E+03  0.16516497972E+03  0.12509050148E+03 0.  0.
          5    1    3    3  502    0 -0.16308510336E+02 -0.10791971990E+02  0.13278377303E+03  0.13428118613E+03  0.41800000000E+01 0.  1.
         -5    1    3    3    0  502  0.12117297685E+02 -0.85531546081E+01 -0.26764733323E+02  0.30883793595E+02  0.41800000000E+01 0.  1.
        -11    1    1    2    0    0  0.28520966211E+02  0.46388036007E+02  0.75938233572E+02  0.93444693355E+02  0.00000000000E+00 0.  1.
         11    1    1    2    0    0 -0.24329753561E+02 -0.27042909409E+02  0.80198876813E+02  0.88063134737E+02  0.00000000000E+00 0. -1.
</event>
<event>
 7    1  0.2556591E-009  0.1427598E+03  0.7561462E-02  0.1209663E+00
         -1   -1    0    0    0  501 -0.00000000000E+00  0.00000000000E+00  0.49964559820E+02  0.49964559820E+02  0.00000000000E+00 0.  1.
          1   -1    0    0  501    0  0.00000000000E+00 -0.00000000000E+00 -0.74028287462E+03  0.74028287462E+03  0.00000000000E+00 0. -1.
         25    2    1    2    0    0  0.10534634789E+03  0.53914925082E+02 -0.58947790097E+03  0.61411429957E+03  0.12508998775E+03 0.  0.
          5    1    3    3  502    0  0.27305084726E+01 -0.29661667537E+02 -0.47710088006E+02  0.56400311127E+02  0.41800000000E+01 0.  1.
         -5    1    3    3    0  502  0.10261583941E+03  0.83576592619E+02 -0.54176781297E+03  0.55771398844E+03  0.41800000000E+01 0.  1.
        -11    1    1    2    0    0 -0.77028496448E+02 -0.21468584788E+02 -0.16813422961E+02  0.81712793304E+02  0.00000000000E+00 0.  1.
         11    1    1    2    0    0 -0.28317851439E+02 -0.32446340294E+02 -0.84026990863E+02  0.94420341569E+02  0.00000000000E+00 0. -1.
</event>
<event>
 7    1  0.2556591E-009  0.1242549E+03  0.7561462E-02  0.1236238E+00
          1   -1    0    0  501    0  0.00000000000E+00  0.00000000000E+00  0.52040942883E+03  0.52040942883E+03  0.00000000000E+00 0. -1.
         -1   -1    0    0    0  501 -0.00000000000E+00 -0.00000000000E+00 -0.31629679859E+02  0.31629679859E+02  0.00000000000E+00 0.  1.
         25    2    1    2    0    0 -0.11515209363E+02  0.64282447035E+02  0.27078256867E+03  0.30534327768E+03  0.12508590921E+03 0.  0.
          5    1    3    3  502    0 -0.19474407894E+02  0.10082844904E+03  0.21101103916E+03  0.23470994812E+03  0.41800000000E+01 0.  1.
         -5    1    3    3    0  502  0.79591985309E+01 -0.36546002009E+02  0.59771529508E+02  0.70633329553E+02  0.41800000000E+01 0.  1.
        -11    1    1    2    0    0 -0.12562296119E+02 -0.78923951211E+02  0.19351042058E+03  0.20936352173E+03  0.00000000000E+00 0. -1.
         11    1    1    2    0    0  0.24077505482E+02  0.14641504175E+02  0.24486759722E+02  0.37332309284E+02  0.00000000000E+00 0.  1.
</event>
<event>
 7    1  0.2556591E-009  0.9165650E+02  0.7561462E-02  0.1298889E+00
         -4   -1    0    0    0  501 -0.00000000000E+00  0.00000000000E+00  0.21659966997E+03  0.21659966997E+03  0.00000000000E+00 0.  1.
          4   -1    0    0  501    0  0.00000000000E+00 -0.00000000000E+00 -0.65901932575E+02  0.65901932575E+02  0.00000000000E+00 0. -1.
         25    2    1    2    0    0  0.14206817647E+02  0.49722800642E+02  0.81776726170E+02  0.15814018452E+03  0.12508674768E+03 0.  0.
          5    1    3    3  502    0  0.52982896289E+02  0.27206443785E+02  0.94106487462E+02  0.11144900747E+03  0.41800000000E+01 0. -1.
         -5    1    3    3    0  502 -0.38776078642E+02  0.22516356858E+02 -0.12329761293E+02  0.46691177053E+02  0.41800000000E+01 0. -1.
        -11    1    1    2    0    0  0.22257373022E+02 -0.29247359863E+02  0.73614379224E+02  0.82279253408E+02  0.00000000000E+00 0.  1.
         11    1    1    2    0    0 -0.36464190669E+02 -0.20475440780E+02 -0.46933679951E+01  0.42082164623E+02  0.00000000000E+00 0. -1.
</event>
<event>
 7    1  0.2556591E-009  0.2054975E+03  0.7561462E-02  0.1145182E+00
          2   -1    0    0  501    0  0.00000000000E+00  0.00000000000E+00  0.12722124783E+04  0.12722124783E+04  0.00000000000E+00 0. -1.
         -2   -1    0    0    0  501 -0.00000000000E+00 -0.00000000000E+00 -0.39851857245E+02  0.39851857245E+02  0.00000000000E+00 0.  1.
         25    2    1    2    0    0 -0.19390199392E+03  0.25494092395E+02  0.62093523260E+03  0.66291589442E+03  0.12509591523E+03 0.  0.
          5    1    3    3  502    0 -0.11118956682E+03  0.58193861421E+02  0.23077541682E+03  0.26272497157E+03  0.41800000000E+01 0.  1.
         -5    1    3    3    0  502 -0.82712427103E+02 -0.32699769026E+02  0.39015981577E+03  0.40019092285E+03  0.41800000000E+01 0.  1.
        -11    1    1    2    0    0  0.61587098306E+02 -0.16545580638E+02  0.35265625251E+03  0.35837572372E+03  0.00000000000E+00 0. -1.
         11    1    1    2    0    0  0.13231489562E+03 -0.89485117564E+01  0.25876913595E+03  0.29077271740E+03  0.00000000000E+00 0.  1.
</event>
<event>
 7    1  0.2556591E-009  0.1117424E+03  0.7561462E-02  0.1257377E+00
          1   -1    0    0  501    0  0.00000000000E+00  0.00000000000E+00  0.30561243069E+03  0.30561243069E+03  0.00000000000E+00 0. -1.
         -1   -1    0    0    0  501 -0.00000000000E+00 -0.00000000000E+00 -0.66254787390E+02  0.66254787390E+02  0.00000000000E+00 0.  1.
         25    2    1    2    0    0  0.30009426785E+02 -0.31033654732E+02  0.23626681875E+03  0.27080156602E+03  0.12509126706E+03 0.  0.
          5    1    3    3  502    0  0.10248384507E+02 -0.79259432813E+02  0.14506159693E+03  0.16567264825E+03  0.41800000000E+01 0.  1.
         -5    1    3    3    0  502  0.19761042278E+02  0.48225778081E+02  0.91205221821E+02  0.10512891777E+03  0.41800000000E+01 0.  1.
        -11    1    1    2    0    0  0.65986260064E+01  0.49660630921E+02 -0.20004380933E+02  0.53943446174E+02  0.00000000000E+00 0.  1.
         11    1    1    2    0    0 -0.36608052792E+02 -0.18626976189E+02  0.23095205479E+02  0.47122205883E+02  0.00000000000E+00 0. -1.
</event>
<event>
 7    1  0.2556591E-009  0.1121969E+03  0.7561462E-02  0.1256555E+00
          1   -1    0    0  501    0  0.00000000000E+00  0.00000000000E+00  0.16216771060E+03  0.16216771060E+03  0.00000000000E+00 0.  1.
         -1   -1    0    0    0  501 -0.00000000000E+00 -0.00000000000E+00 -0.12229431477E+03  0.12229431477E+03  0.00000000000E+00 0. -1.
         25    2    1    2    0    0 -0.54497519226E+02 -0.10229543760E+02 -0.51149003922E+02  0.14607755906E+03  0.12509120470E+03 0.  0.
          5    1    3    3  502    0  0.34260895594E+02 -0.18743650192E+02 -0.40103776980E+02  0.56133044791E+02  0.41800000000E+01 0. -1.
         -5    1    3    3    0  502 -0.88758414820E+02  0.85141064326E+01 -0.11045226941E+02  0.89944514274E+02  0.41800000000E+01 0. -1.
        -11    1    1    2    0    0 -0.18913703118E+02  0.12039531218E+02  0.13221939552E+01  0.22459445106E+02  0.00000000000E+00 0. -1.
         11    1    1    2    0    0  0.73411222344E+02 -0.18099874588E+01  0.89700205796E+02  0.11592502120E+03  0.00000000000E+00 0.  1.
</event>
<event>
 7    1  0.2556591E-009  0.9747808E+02  0.7561462E-02  0.1285690E+00
          4   -1    0    0  501    0  0.00000000000E+00  0.00000000000E+00  0.74048547513E+02  0.74048547513E+02  0.00000000000E+00 0. -1.
         -4   -1    0    0    0  501 -0.00000000000E+00 -0.00000000000E+00 -0.24188223020E+03  0.24188223020E+03  0.00000000000E+00 0.  1.
         25    2    1    2    0    0 -0.89100240122E+00  0.65456619268E+00 -0.96323304952E+00  0.12509581606E+03  0.12508722171E+03 0.  0.
          5    1    3    3  502    0  0.16879068514E+02 -0.56025973409E+02 -0.20938121965E+02  0.62287157599E+02  0.41800000000E+01 0.  1.
         -5    1    3    3    0  502 -0.17770070915E+02  0.56680539602E+02  0.19974888916E+02  0.62808658456E+02  0.41800000000E+01 0.  1.
        -11    1    1    2    0    0  0.33855065508E+02 -0.19202736417E+02 -0.30884456827E+02  0.49686620130E+02  0.00000000000E+00 0. -1.
         11    1    1    2    0    0 -0.32964063107E+02  0.18548170225E+02 -0.13598599281E+03  0.14114834153E+03  0.00000000000E+00 0.  1.
</event>
<event>
 7    1  0.2556591E-009  0.2192195E+03  0.7561462E-02  0.1134466E+00
         -1   -1    0    0    0  501 -0.00000000000E+00  0.00000000000E+00  0.32681853453E+02  0.32681853453E+02  0.00000000000E+00 0.  1.
          1   -1    0    0  501    0  0.00000000000E+00 -0.00000000000E+00 -0.18309510116E+04  0.18309510116E+04  0.00000000000E+00 0. -1.
         25    2    1    2    0    0  0.87177361994E+02 -0.17176121834E+03 -0.13270990851E+04  0.13468280921E+04  0.12510843052E+03 0.  0.
          5    1    3    3  502    0  0.44724591803E+02  0.50616518772E+01 -0.35401813907E+03  0.35689245526E+03  0.41800000000E+01 0. -1.
         -5    1    3    3    0  502  0.42452770191E+02 -0.17682287021E+03 -0.97308094607E+03  0.98993563687E+03  0.41800000000E+01 0. -1.
        -11    1    1    2    0    0 -0.50971983555E+02  0.16726125108E+03 -0.36943694336E+03  0.40872744505E+03  0.00000000000E+00 0.  1.
         11    1    1    2    0    0 -0.36205378439E+02  0.44999672559E+01 -0.10173312966E+03  0.10807732789E+03  0.00000000000E+00 0. -1.
</event>
<event>
 7    1  0.2556591E-009  0.1113261E+03  0.7561462E-02  0.1258134E+00
         -1   -1    0    0    0  501 -0.00000000000E+00  0.00000000000E+00  0.15681981852E+03  0.15681981852E+03  0.00000000000E+00 0.  1.
          1   -1    0    0  501    0  0.00000000000E+00 -0.00000000000E+00 -0.13572294299E+03  0.13572294299E+03  0.00000000000E+00 0. -1.
         25    2    1    2    0    0 -0.55623118898E+02 -0.39551707330E+02 -0.44700077747E+02  0.14934514186E+03  0.12509038947E+03 0.  0.
          5    1    3    3  502    0 -0.50757131931E+02 -0.76229454256E+02 -0.59482741881E+02  0.10928350799E+03  0.41800000000E+01 0.  1.
         -5    1    3    3    0  502 -0.48659869673E+01  0.36677746927E+02  0.14782664134E+02  0.40061633862E+02  0.41800000000E+01 0.  1.
        -11    1    1    2    0    0  0.50935646327E+02 -0.29121526687E+01 -0.13807066248E+02  0.52854098974E+02  0.00000000000E+00 0. -1.
         11    1    1    2    0    0  0.46874725708E+01  0.42463859998E+02  0.79604019524E+02  0.90343520683E+02  0.00000000000E+00 0.  1.
</event>
<event>
 7    1  0.2556591E-009  0.1094329E+03  0.7561462E-02  0.1261624E+00
         -2   -1    0    0    0  501 -0.00000000000E+00  0.00000000000E+00  0.69346195210E+02  0.69346195210E+02  0.00000000000E+00 0.  1.
          2   -1    0    0  501    0  0.00000000000E+00 -0.00000000000E+00 -0.25024915057E+03  0.25024915057E+03  0.00000000000E+00 0. -1.
         25    2    1    2    0    0 -0.16936613367E+02 -0.61478250820E+02 -0.54568528022E+02  0.15064866749E+03  0.12510344748E+03 0.  0.
          5    1    3    3  502    0 -0.59011553603E+02 -0.53250065760E+02  0.19102664360E+01  0.79618179330E+02  0.41800000000E+01 0. -1.
         -5    1    3    3    0  502  0.42074940236E+02 -0.82281850599E+01 -0.56478794458E+02  0.71030488163E+02  0.41800000000E+01 0. -1.
        -11    1    1    2    0    0  0.15007222372E+02  0.78066136751E+02 -0.57488657356E+02  0.98104455328E+02  0.00000000000E+00 0.  1.
         11    1    1    2    0    0  0.19293909947E+01 -0.16587885932E+02 -0.68845769983E+02  0.70842222960E+02  0.00000000000E+00 0. -1.
</event>
<event>
 7    1  0.2556591E-009  0.1091300E+03  0.7561462E-02  0.1262189E+00
          1   -1    0    0  501    0  0.00000000000E+00  0.00000000000E+00  0.43260686752E+02  0.43260686752E+02  0.00000000000E+00 0. -1.
         -1   -1    0    0    0  501 -0.00000000000E+00 -0.00000000000E+00 -0.49595521069E+03  0.49595521069E+03  0.00000000000E+00 0.  1.
         25    2    1    2    0    0 -0.79352287065E+02  0.17590061801E+02 -0.14074155177E+03  0.20509024682E+03  0.12509048409E+03 0.  0.
          5    1    3    3  502    0 -0.81116619183E+02  0.30936683966E+02 -0.27773341561E+02  0.91245905245E+02  0.41800000000E+01 0. -1.
         -5    1    3    3    0  502  0.17643321184E+01 -0.13346622165E+02 -0.11296821021E+03  0.11384434158E+03  0.41800000000E+01 0. -1.
        -11    1    1    2    0    0  0.97523594045E+02 -0.12141971261E+02 -0.28236235024E+03  0.29897621259E+03  0.00000000000E+00 0.  1.
         11    1    1    2    0    0 -0.18171306980E+02 -0.54480905396E+01 -0.29590621935E+02  0.35149438038E+02  0.00000000000E+00 0. -1.
</event>
<event>
 7    1  0.2556591E-009  0.1026087E+03  0.7561462E-02  0.1274904E+00
         -1   -1    0    0    0  501 -0.00000000000E+00  0.00000000000E+00  0.51935088651E+02  0.51935088651E+02  0.00000000000E+00 0.  1.
          1   -1    0    0  501    0  0.00000000000E+00 -0.00000000000E+00 -0.26599934141E+03  0.26599934141E+03  0.00000000000E+00 0. -1.
         25    2    1    2    0    0 -0.31139983265E+02  0.16644538719E+02 -0.89957372547E+02  0.15807065816E+03  0.12508902777E+03 0.  0.
          5    1    3    3  502    0 -0.61216566560E+02  0.37786914224E+02 -0.96560230415E+02  0.12048514185E+03  0.41800000000E+01 0. -1.
         -5    1    3    3    0  502  0.30076583295E+02 -0.21142375505E+02  0.66028578689E+01  0.37585516316E+02  0.41800000000E+01 0. -1.
        -11    1    1    2    0    0  0.62257832621E+02 -0.34428787685E+01 -0.10175446917E+03  0.11933927741E+03  0.00000000000E+00 0. -1.
         11    1    1    2    0    0 -0.31117849356E+02 -0.13201659950E+02 -0.22352411042E+02  0.40524494487E+02  0.00000000000E+00 0.  1.
</event>
<event>
 7    1  0.2556591E-009  0.1410377E+03  0.7561462E-02  0.1211939E+00
          1   -1    0    0  501    0  0.00000000000E+00  0.00000000000E+00  0.89037016511E+03  0.89037016511E+03  0.00000000000E+00 0. -1.
         -1   -1    0    0    0  501 -0.00000000000E+00 -0.00000000000E+00 -0.24359206727E+02  0.24359206727E+02  0.00000000000E+00 0.  1.
         25    2    1    2    0    0  0.93448430604E+02 -0.25294739266E+02  0.52827566979E+03  0.55144847367E+03  0.12509117796E+03 0.  0.
          5    1    3    3  502    0  0.11649836393E+03 -0.39355766597E+02  0.34791012911E+03  0.36902530469E+03  0.41800000000E+01 0. -1.
         -5    1    3    3    0  502 -0.23049933330E+02  0.14061027331E+02  0.18036554067E+03  0.18242316897E+03  0.41800000000E+01 0. -1.
        -11    1    1    2    0    0 -0.19298182791E+02  0.49970851126E+02  0.16987577823E+03  0.17812154797E+03  0.00000000000E+00 0.  1.
         11    1    1    2    0    0 -0.74150247813E+02 -0.24676111860E+02  0.16785951037E+03  0.18515935020E+03  0.00000000000E+00 0. -1.
</event>
<event>
 7    1  0.2556591E-009  0.1049456E+03  0.7561462E-02  0.1270227E+00
         -1   -1    0    0    0  501 -0.00000000000E+00  0.00000000000E+00  0.78136344909E+02  0.78136344909E+02  0.00000000000E+00 0.  1.
          1   -1    0    0  501    0  0.00000000000E+00 -0.00000000000E+00 -0.17924643928E+03  0.17924643928E+03  0.00000000000E+00 0. -1.
         25    2    1    2    0    0  0.19092360534E+02  0.38412498353E+02 -0.43403674222E+02  0.13918013841E+03  0.12508874342E+03 0.  0.
          5    1    3    3  502    0  0.16920291017E+02  0.75618285679E+02  0.52173190401E+01  0.77776051552E+02  0.41800000000E+01 0. -1.
         -5    1    3    3    0  502  0.21720695175E+01 -0.37205787326E+02 -0.48620993262E+02  0.61404086853E+02  0.41800000000E+01 0. -1.
        -11    1    1    2    0    0 -0.51029945634E+02 -0.36600810895E+02 -0.14513524817E+02  0.64453992213E+02  0.00000000000E+00 0.  1.
         11    1    1    2    0    0  0.31937585100E+02 -0.18116874581E+01 -0.43192895336E+02  0.53748653574E+02  0.00000000000E+00 0. -1.
</event>
<event>
 7    1  0.2556591E-009  0.1463483E+03  0.7561462E-02  0.1205033E+00
          1   -1    0    0  501    0  0.00000000000E+00  0.00000000000E+00  0.38205285725E+03  0.38205285725E+03  0.00000000000E+00 0. -1.
         -1   -1    0    0    0  501 -0.00000000000E+00 -0.00000000000E+00 -0.69185118080E+02  0.69185118080E+02  0.00000000000E+00 0.  1.
         25    2    1    2    0    0  0.89762999415E+02 -0.79992476568E+02  0.13496470867E+03  0.21981421454E+03  0.12508646592E+03 0.  0.
          5    1    3    3  502    0  0.77473443358E+02  0.12848499017E+02  0.74038147827E+02  0.10801082393E+03  0.41800000000E+01 0. -1.
         -5    1    3    3    0  502  0.12289556057E+02 -0.92840975584E+02  0.60926560842E+02  0.11180339061E+03  0.41800000000E+01 0. -1.
        -11    1    1    2    0    0 -0.33077958917E+02  0.32260698206E+02  0.91300754054E+01  0.47098431946E+02  0.00000000000E+00 0.  1.
         11    1    1    2    0    0 -0.56685040498E+02  0.47731778362E+02  0.16877295510E+03  0.18432532885E+03  0.00000000000E+00 0. -1.
</event>
<event>
 7    1  0.2556591E-009  0.8466491E+02  0.7561462E-02  0.1316311E+00
         -1   -1    0    0    0  501 -0.00000000000E+00  0.00000000000E+00  0.33072668549E+03  0.33072668549E+03  0.00000000000E+00 0.  1.
          1   -1    0    0  501    0  0.00000000000E+00 -0.00000000000E+00 -0.41821130058E+02  0.41821130058E+02  0.00000000000E+00 0. -1.
         25    2    1    2    0    0 -0.15269156539E+02 -0.25844247469E+02  0.12370769293E+03  0.17846227944E+03  0.12507645512E+03 0.  0.
          5    1    3    3  502    0 -0.30327551182E+02  0.25233790753E+02 -0.41554020428E+01  0.39890403891E+02  0.41800000000E+01 0.  1.
         -5    1    3    3    0  502  0.15058394643E+02 -0.51078038222E+02  0.12786309497E+03  0.13857187555E+03  0.41800000000E+01 0.  1.
        -11    1    1    2    0    0  0.20511557065E+02 -0.20853229549E+02  0.84511888915E+01  0.30446736271E+02  0.00000000000E+00 0. -1.
         11    1    1    2    0    0 -0.52424005259E+01  0.46697477018E+02  0.15674667361E+03  0.16363879983E+03  0.00000000000E+00 0.  1.
</event>
<event>
 7    1  0.2556591E-009  0.1127926E+03  0.7561462E-02  0.1255484E+00
         -2   -1    0    0    0  501 -0.00000000000E+00  0.00000000000E+00  0.12551411183E+03  0.12551411183E+03  0.00000000000E+00 0.  1.
          2   -1    0    0  501    0  0.00000000000E+00 -0.00000000000E+00 -0.13383359975E+03  0.13383359975E+03  0.00000000000E+00 0. -1.
         25    2    1    2    0    0 -0.48584200912E+02 -0.38764952225E+02 -0.36514698704E+02  0.14438100056E+03  0.12509757793E+03 0.  0.
          5    1    3    3  502    0  0.10752156622E+02 -0.67608543903E+02 -0.37696921468E+02  0.78262726562E+02  0.41800000000E+01 0.  1.
         -5    1    3    3    0  502 -0.59336357534E+02  0.28843591678E+02  0.11822227639E+01  0.66118274002E+02  0.41800000000E+01 0.  1.
        -11    1    1    2    0    0  0.32111722640E+02 -0.14429953056E+02  0.44687369599E+02  0.56888902941E+02  0.00000000000E+00 0.  1.
         11    1    1    2    0    0  0.16472478273E+02  0.53194905281E+02 -0.16492158809E+02  0.58077808072E+02  0.00000000000E+00 0. -1.
</event>
<event>
 7    1  0.2556591E-009  0.8389139E+02  0.7561462E-02  0.1318357E+00
         -1   -1    0    0    0  501 -0.00000000000E+00  0.00000000000E+00  0.88374175804E+02  0.88374175804E+02  0.00000000000E+00 0.  1.
          1   -1    0    0  501    0  0.00000000000E+00 -0.00000000000E+00 -0.16260282711E+03  0.16260282711E+03  0.00000000000E+00 0. -1.
         25    2    1    2    0    0  0.13948084753E+02  0.13451947252E+02  0.79323615130E+01  0.12682572048E+03  0.12508531914E+03 0.  0.
          5    1    3    3  502    0  0.41035684935E+02  0.53194282464E+02  0.30059130113E+02  0.73719623088E+02  0.41800000000E+01 0. -1.
         -5    1    3    3    0  502 -0.27087600182E+02 -0.39742335213E+02 -0.22126768600E+02  0.53106097395E+02  0.41800000000E+01 0. -1.
        -11    1    1    2    0    0  0.15590433913E+02  0.61309302115E+01  0.13895474162E+02  0.21765434456E+02  0.00000000000E+00 0.  1.
         11    1    1    2    0    0 -0.29538518666E+02 -0.19582877463E+02 -0.96056486980E+02  0.10238584798E+03  0.00000000000E+00 0. -1.
</event>
<event>
 7    1  0.2556591E-009  0.1484504E+03  0.7561462E-02  0.1202390E+00
          4   -1    0    0  501    0  0.00000000000E+00  0.00000000000E+00  0.94874623735E+02  0.94874623735E+02  0.00000000000E+00 0. -1.
         -4   -1    0    0    0  501 -0.00000000000E+00 -0.00000000000E+00 -0.36190687926E+03  0.36190687926E+03  0.00000000000E+00 0.  1.
         25    2    1    2    0    0 -0.90498745789E+02 -0.64410469555E+02 -0.27792035331E+02  0.16958514713E+03  0.12509193948E+03 0.  0.
          5    1    3    3  502    0  0.43914632808E+01  0.25579122171E+02 -0.28457257538E+02  0.38740990532E+02  0.41800000000E+01 0. -1.
         -5    1    3    3    0  502 -0.94890209070E+02 -0.89989591726E+02  0.66522220717E+00  0.13084415660E+03  0.41800000000E+01 0. -1.
        -11    1    1    2    0    0  0.70417443487E+02 -0.19437490344E+01 -0.18865135523E+03  0.20137459705E+03  0.00000000000E+00 0.  1.
         11    1    1    2    0    0  0.20081302302E+02  0.66354218590E+02 -0.50588864968E+02  0.85821758812E+02  0.00000000000E+00 0. -1.
</event>
<event>
 7    1  0.2556591E-009  0.1439920E+03  0.7561462E-02  0.1208056E+00
         -2   -1    0    0    0  501 -0.00000000000E+00  0.00000000000E+00  0.30597584842E+02  0.30597584842E+02  0.00000000000E+00 0.  1.
          2   -1    0    0  501    0  0.00000000000E+00 -0.00000000000E+00 -0.71484164967E+03  0.71484164967E+03  0.00000000000E+00 0. -1.
         25    2    1    2    0    0 -0.99623667046E+02 -0.93259269886E+01 -0.41483193108E+03  0.44468550521E+03  0.12509124491E+03 0.  0.
          5    1    3    3  502    0  0.19685629173E+02 -0.30433838921E+02 -0.13235132986E+03  0.13728834424E+03  0.41800000000E+01 0. -1.
         -5    1    3    3    0  502 -0.11930929622E+03  0.21107911933E+02 -0.28248060122E+03  0.30739716098E+03  0.41800000000E+01 0. -1.
        -11    1    1    2    0    0  0.29175961705E+02  0.43172972127E+02 -0.76003560642E+02  0.92150330949E+02  0.00000000000E+00 0.  1.
         11    1    1    2    0    0  0.70447705341E+02 -0.33847045139E+02 -0.19340857310E+03  0.20860339834E+03  0.00000000000E+00 0. -1.
</event>
<event>
 7    1  0.2556591E-009  0.5309440E+02  0.7561462E-02  0.1429332E+00
         -2   -1    0    0    0  501 -0.00000000000E+00  0.00000000000E+00  0.25016943220E+03  0.25016943220E+03  0.00000000000E+00 0.  1.
          2   -1    0    0  501    0  0.00000000000E+00 -0.00000000000E+00 -0.47640984360E+02  0.47640984360E+02  0.00000000000E+00 0. -1.
         25    2    1    2    0    0  0.92866291804E+01  0.43618253521E+01  0.12662762105E+03  0.17828779935E+03  0.12508684177E+03 0.  0.
          5    1    3    3  502    0 -0.40117247942E+01  0.73458326907E+01 -0.24636674365E+02  0.26353241120E+02  0.41800000000E+01 0. -1.
         -5    1    3    3    0  502  0.13298353975E+02 -0.29840073386E+01  0.15126429541E+03  0.15193455823E+03  0.41800000000E+01 0. -1.
        -11    1    1    2    0    0 -0.32124536189E+01 -0.43173799167E+02  0.66130631212E+02  0.79041490227E+02  0.00000000000E+00 0.  1.
         11    1    1    2    0    0 -0.60741755615E+01  0.38811973815E+02  0.97701955837E+01  0.40481126984E+02  0.00000000000E+00 0. -1.
</event>
<event>
 7    1  0.2556591E-009  0.9743685E+02  0.7561462E-02  0.1285780E+00
         -1   -1    0    0    0  501 -0.00000000000E+00  0.00000000000E+00  0.18318722064E+03  0.18318722064E+03  0.00000000000E+00 0.  1.
          1   -1    0    0  501    0  0.00000000000E+00 -0.00000000000E+00 -0.67437248091E+02  0.67437248091E+02  0.00000000000E+00 0. -1.
         25    2    1    2    0    0 -0.40686021576E+01  0.68318683695E+01  0.88306564681E+02  0.15333018970E+03  0.12509544259E+03 0.  0.
          5    1    3    3  502    0 -0.48355449004E+02 -0.16669807804E+02  0.89316327680E+02  0.10300976037E+03  0.41800000000E+01 0.  1.
         -5    1    3    3    0  502  0.44286846846E+02  0.23501676173E+02 -0.10097629988E+01  0.50320429329E+02  0.41800000000E+01 0.  1.
        -11    1    1    2    0    0  0.14110284038E+02 -0.48434180336E+02  0.12613947973E+02  0.52000784839E+02  0.00000000000E+00 0.  1.
         11    1    1    2    0    0 -0.10041681880E+02  0.41602311966E+02  0.14829459899E+02  0.45293494199E+02  0.00000000000E+00 0. -1.
</event>
<event>
 7    1  0.2556591E-009  0.1230060E+03  0.7561462E-02  0.1238219E+00
         -1   -1    0    0    0  501 -0.00000000000E+00  0.00000000000E+00  0.48211446327E+02  0.48211446327E+02  0.00000000000E+00 0.  1.
          1   -1    0    0  501    0  0.00000000000E+00 -0.00000000000E+00 -0.40702807650E+03  0.40702807650E+03  0.00000000000E+00 0. -1.
         25    2    1    2    0    0  0.34346712615E+02 -0.76447681915E+02 -0.14143154191E+03  0.20658025493E+03  0.12509426823E+03 0.  0.
          5    1    3    3  502    0 -0.20712499624E+02 -0.78757383501E+02 -0.12441144525E+03  0.14875285949E+03  0.41800000000E+01 0.  1.
         -5    1    3    3    0  502  0.55059212239E+02  0.23097015857E+01 -0.17020096660E+02  0.57827395446E+02  0.41800000000E+01 0.  1.
        -11    1    1    2    0    0 -0.28285681382E+02 -0.39653468877E+01 -0.18455223972E+02  0.34005867715E+02  0.00000000000E+00 0.  1.
         11    1    1    2    0    0 -0.60610312329E+01  0.80413028803E+02 -0.19892986429E+03  0.21465340018E+03  0.00000000000E+00 0. -1.
</event>
<event>
 7    1  0.2556591E-009  0.9129834E+02  0.7561462E-02  0.1299738E+00
          2   -1    0    0  501    0  0.00000000000E+00  0.00000000000E+00  0.37006019096E+02  0.37006019096E+02  0.00000000000E+00 0.  1.
         -2   -1    0    0    0  501 -0.00000000000E+00 -0.00000000000E+00 -0.34057457669E+03  0.34057457669E+03  0.00000000000E+00 0. -1.
         25    2    1    2    0    0 -0.18197457519E+02 -0.20606159249E+01 -0.13430077067E+03  0.18444370132E+03  0.12508952137E+03 0.  0.
          5    1    3    3  502    0  0.34514235628E+02 -0.13108540774E+02 -0.12400559394E+03  0.12945240836E+03  0.41800000000E+01 0. -1.
         -5    1    3    3    0  502 -0.52711693147E+02  0.11047924849E+02 -0.10295176733E+02  0.54991292964E+02  0.41800000000E+01 0. -1.
        -11    1    1    2    0    0 -0.35088836267E+02  0.12258951729E+02 -0.86800873531E+02  0.94424043410E+02  0.00000000000E+00 0. -1.
         11    1    1    2    0    0  0.53286293786E+02 -0.10198335804E+02 -0.82466913397E+02  0.98712851057E+02  0.00000000000E+00 0.  1.
</event>
<event>
 7    1  0.2556591E-009  0.9497804E+02  0.7561462E-02  0.1291226E+00
         -1   -1    0    0    0  501 -0.00000000000E+00  0.00000000000E+00  0.23715588022E+02  0.23715588022E+02  0.00000000000E+00 0.  1.
          1   -1    0    0  501    0  0.00000000000E+00 -0.00000000000E+00 -0.56125801090E+03  0.56125801090E+03  0.00000000000E+00 0. -1.
         25    2    1    2    0    0 -0.27430166140E+02  0.21853960397E+02 -0.34616619530E+03  0.36974102800E+03  0.12508950163E+03 0.  0.
          5    1    3    3  502    0 -0.11909121136E+02  0.55905071742E+02 -0.67529157021E+02  0.88571234950E+02  0.41800000000E+01 0. -1.
         -5    1    3    3    0  502 -0.15521045004E+02 -0.34051111345E+02 -0.27863703828E+03  0.28116979305E+03  0.41800000000E+01 0. -1.
        -11    1    1    2    0    0  0.54182643267E+02 -0.35680136427E+02 -0.15486474624E+03  0.16790449843E+03  0.00000000000E+00 0. -1.
         11    1    1    2    0    0 -0.26752477127E+02  0.13826176031E+02 -0.36511481342E+02  0.47328072492E+02  0.00000000000E+00 0.  1.
</event>
<event>
 7    1  0.2556591E-009  0.1574381E+03  0.7561462E-02  0.1191620E+00
         -1   -1    0    0    0  501 -0.00000000000E+00  0.00000000000E+00  0.47337688405E+03  0.47337688405E+03  0.00000000000E+00 0.  1.
          1   -1    0    0  501    0  0.00000000000E+00 -0.00000000000E+00 -0.60516165977E+02  0.60516165977E+02  0.00000000000E+00 0. -1.
         25    2    1    2    0    0  0.22017563434E+02 -0.12679191643E+03  0.23684650550E+03  0.29716076861E+03  0.12508913645E+03 0.  0.
          5    1    3    3  502    0 -0.49720727901E+02 -0.72664532252E+02  0.99004726816E+02  0.13255826403E+03  0.41800000000E+01 0.  1.
         -5    1    3    3    0  502  0.71738291335E+02 -0.54127384180E+02  0.13784177869E+03  0.16460250458E+03  0.41800000000E+01 0.  1.
        -11    1    1    2    0    0  0.13465653324E+02  0.55772766728E+02  0.18401258826E+02  0.60253893271E+02  0.00000000000E+00 0.  1.
         11    1    1    2    0    0 -0.35483216758E+02  0.71019149704E+02  0.15761295374E+03  0.17647838815E+03  0.00000000000E+00 0. -1.
</event>
<event>
 7    1  0.2556591E-009  0.9906639E+02  0.7561462E-02  0.1282272E+00
          1   -1    0    0  501    0  0.00000000000E+00  0.00000000000E+00  0.10967327754E+03  0.10967327754E+03  0.00000000000E+00 0. -1.
         -1   -1    0    0    0  501 -0.00000000000E+00 -0.00000000000E+00 -0.14490038729E+03  0.14490038729E+03  0.00000000000E+00 0.  1.
         25    2    1    2    0    0 -0.34212236296E+02 -0.25819214298E+02  0.30473952874E+02  0.13570167904E+03  0.12509666243E+03 0.  0.
          5    1    3    3  502    0  0.24456469632E+02  0.32585966005E+02  0.33267556964E+02  0.52765204763E+02  0.41800000000E+01 0.  1.
         -5    1    3    3    0  502 -0.58668705927E+02 -0.58405180303E+02 -0.27936040897E+01  0.82936474276E+02  0.41800000000E+01 0.  1.
        -11    1    1    2    0    0  0.98212513919E+01  0.43222086562E+02 -0.75327627859E+02  0.87400556431E+02  0.00000000000E+00 0.  1.
         11    1    1    2    0    0  0.24390984904E+02 -0.17402872264E+02  0.96265652324E+01  0.31471429357E+02  0.00000000000E+00 0. -1.
</event>
<event>
 7    1  0.2556591E-009  0.1828330E+03  0.7561462E-02  0.1165089E+00
          2   -1    0    0  501    0  0.00000000000E+00  0.00000000000E+00  0.27641590234E+04  0.27641590234E+04  0.00000000000E+00 0.  1.
         -2   -1    0    0    0  501 -0.00000000000E+00 -0.00000000000E+00 -0.15490153785E+02  0.15490153785E+02  0.00000000000E+00 0. -1.
         25    2    1    2    0    0  0.13547027861E+03  0.98111404552E+02  0.17981889038E+04  0.18102778478E+04  0.12507800914E+03 0.  0.
          5    1    3    3  502    0  0.67129549827E+02  0.16144849352E+02  0.28303839440E+03  0.29136787353E+03  0.41800000000E+01 0.  1.
         -5    1    3    3    0  502  0.68340728782E+02  0.81966555200E+02  0.15151505094E+04  0.15189099743E+04  0.41800000000E+01 0.  1.
        -11    1    1    2    0    0 -0.28494823676E+02  0.16491179132E+02  0.13478952036E+03  0.13875204057E+03  0.00000000000E+00 0. -1.
         11    1    1    2    0    0 -0.10697545493E+03 -0.11460258368E+03  0.81569044547E+03  0.83061928883E+03  0.00000000000E+00 0.  1.
</event>
<event>
 7    1  0.2556591E-009  0.1316011E+03  0.7561462E-02  0.1225099E+00
          1   -1    0    0  501    0  0.00000000000E+00  0.00000000000E+00  0.42052100106E+02  0.42052100106E+02  0.00000000000E+00 0. -1.
         -1   -1    0    0    0  501 -0.00000000000E+00 -0.00000000000E+00 -0.51989170070E+03  0.51989170070E+03  0.00000000000E+00 0.  1.
         25    2    1    2    0    0  0.83228717891E+02 -0.27127731148E+02 -0.17294983344E+03  0.23069944609E+03  0.12509059222E+03 0.  0.
          5    1    3    3  502    0  0.56233582076E+01 -0.52117309905E+02 -0.18039301988E+02  0.55594288964E+02  0.41800000000E+01 0. -1.
         -5    1    3    3    0  502  0.77605359684E+02  0.24989578757E+02 -0.15491053145E+03  0.17510515713E+03  0.41800000000E+01 0. -1.
        -11    1    1    2    0    0 -0.20849874574E+02 -0.35127764151E+02 -0.11053982026E+03  0.11784620887E+03  0.00000000000E+00 0.  1.
         11    1    1    2    0    0 -0.62378843318E+02  0.62255495298E+02 -0.19434994690E+03  0.21339814585E+03  0.00000000000E+00 0. -1.
</event>
<event>
 7    1  0.2556591E-009  0.1644511E+03  0.7561462E-02  0.1183761E+00
         -2   -1    0    0    0  501 -0.00000000000E+00  0.00000000000E+00  0.39303683774E+02  0.39303683774E+02  0.00000000000E+00 0.  1.
          2   -1    0    0  501    0  0.00000000000E+00 -0.00000000000E+00 -0.87408624309E+03  0.87408624309E+03  0.00000000000E+00 0. -1.
         25    2    1    2    0    0  0.11820215290E+03 -0.86833021963E+02 -0.49865503403E+03  0.53461820983E+03  0.12509222465E+03 0.  0.
          5    1    3    3  502    0  0.59835886825E+02 -0.47235420573E+01 -0.34911790715E+03  0.35426463371E+03  0.41800000000E+01 0. -1.
         -5    1    3    3    0  502  0.58366266076E+02 -0.82109479906E+02 -0.14953712687E+03  0.18035357612E+03  0.41800000000E+01 0. -1.
        -11    1    1    2    0    0 -0.43278501368E+02  0.82132054355E+02 -0.23618094916E+03  0.25377183410E+03  0.00000000000E+00 0.  1.
         11    1    1    2    0    0 -0.74923651533E+02  0.47009676076E+01 -0.99946576130E+02  0.12499988294E+03  0.00000000000E+00 0. -1.
</event>
<event>
 7    1  0.2556591E-009  0.1657300E+03  0.7561462E-02  0.1182375E+00
          2   -1    0    0  501    0  0.00000000000E+00  0.00000000000E+00  0.28122617964E+03  0.28122617964E+03  0.00000000000E+00 0. -1.
         -2   -1    0    0    0  501 -0.00000000000E+00 -0.00000000000E+00 -0.11203449081E+03  0.11203449081E+03  0.00000000000E+00 0.  1.
         25    2    1    2    0    0  0.13353741548E+02  0.13347813519E+03  0.30915981487E+02  0.18600399511E+03  0.12508778237E+03 0.  0.
          5    1    3    3  502    0 -0.49239110644E+02  0.99889042711E+02  0.27376043226E+02  0.11475726998E+03  0.41800000000E+01 0. -1.
         -5    1    3    3    0  502  0.62592852192E+02  0.33589092480E+02  0.35399382616E+01  0.71246725132E+02  0.41800000000E+01 0. -1.
        -11    1    1    2    0    0 -0.38712543469E+02 -0.62864072946E+02  0.41135042690E+02  0.84514167016E+02  0.00000000000E+00 0. -1.
         11    1    1    2    0    0  0.25358801922E+02 -0.70614062245E+02  0.97140664650E+02  0.12274250833E+03  0.00000000000E+00 0.  1.
</event>
<event>
 7    1  0.2556591E-009  0.2336585E+03  0.7561462E-02  0.1124091E+00
         -2   -1    0    0    0  501 -0.00000000000E+00  0.00000000000E+00  0.26478683605E+02  0.26478683605E+02  0.00000000000E+00 0. -1.
          2   -1    0    0  501    0  0.00000000000E+00 -0.00000000000E+00 -0.23956270707E+04  0.23956270707E+04  0.00000000000E+00 0.  1.
         25    2    1    2    0    0  0.14802637046E+03 -0.16919635664E+03 -0.13865916327E+04  0.14102551027E+04  0.12507551861E+03 0.  0.
          5    1    3    3  502    0  0.10971979908E+03 -0.10676296428E+03 -0.56480460266E+03  0.58519951849E+03  0.41800000000E+01 0.  1.
         -5    1    3    3    0  502  0.38306571388E+02 -0.62433392358E+02 -0.82178703007E+03  0.82505558424E+03  0.41800000000E+01 0.  1.
        -11    1    1    2    0    0 -0.30244290002E+01  0.57982385344E+02 -0.20127110534E+03  0.20947830920E+03  0.00000000000E+00 0. -1.
         11    1    1    2    0    0 -0.14500194146E+03  0.11121397129E+03 -0.78128564899E+03  0.80237234235E+03  0.00000000000E+00 0.  1.
</event>
<event>
 7    1  0.2556591E-009  0.1079497E+03  0.7561462E-02  0.1264415E+00
          1   -1    0    0  501    0  0.00000000000E+00  0.00000000000E+00  0.16560108804E+03  0.16560108804E+03  0.00000000000E+00 0. -1.
         -1   -1    0    0    0  501 -0.00000000000E+00 -0.00000000000E+00 -0.81322774931E+02  0.81322774931E+02  0.00000000000E+00 0.  1.
         25    2    1    2    0    0  0.29580601519E+02 -0.10233136001E+02  0.83972052650E+02  0.15388230836E+03  0.12509488455E+03 0.  0.
          5    1    3    3  502    0 -0.13647265056E+01 -0.65325836712E+02  0.46404396427E+02  0.80250656248E+02  0.41800000000E+01 0.  1.
         -5    1    3    3    0  502  0.30945328025E+02  0.55092700711E+02  0.37567656223E+02  0.73631652109E+02  0.41800000000E+01 0.  1.
        -11    1    1    2    0    0 -0.48380795848E+02 -0.19301022367E+02 -0.15901345333E+02  0.54461763235E+02  0.00000000000E+00 0.  1.
         11    1    1    2    0    0  0.18800194329E+02  0.29534158368E+02  0.16207605792E+02  0.38579791378E+02  0.00000000000E+00 0. -1.
</event>
<event>
 7    1  0.2556591E-009  0.9647008E+02  0.7561462E-02  0.1287899E+00
          1   -1    0    0  501    0  0.00000000000E+00  0.00000000000E+00  0.24732592773E+02  0.24732592773E+02  0.00000000000E+00 0. -1.
         -1   -1    0    0    0  501 -0.00000000000E+00 -0.00000000000E+00 -0.58854466856E+03  0.58854466856E+03  0.00000000000E+00 0.  1.
         25    2    1    2    0    0  0.22117221831E+01 -0.88813119253E+01 -0.45240168228E+03  0.46946302881E+03  0.12507791121E+03 0.  0.
          5    1    3    3  502    0  0.56554428565E+02  0.17626102531E+02 -0.15583211110E+03  0.16676391136E+03  0.41800000000E+01 0.  1.
         -5    1    3    3    0  502 -0.54342706382E+02 -0.26507414457E+02 -0.29656957117E+03  0.30269911745E+03  0.41800000000E+01 0.  1.
        -11    1    1    2    0    0  0.27610776280E+02  0.26533097079E+02 -0.14589540543E+02  0.40978224713E+02  0.00000000000E+00 0.  1.
         11    1    1    2    0    0 -0.29822498463E+02 -0.17651785153E+02 -0.96820852967E+02  0.10283600781E+03  0.00000000000E+00 0. -1.
</event>
<event>
 7    1  0.2556591E-009  0.1266638E+03  0.7561462E-02  0.1232492E+00
         -2   -1    0    0    0  501 -0.00000000000E+00  0.00000000000E+00  0.38969314780E+02  0.38969314780E+02  0.00000000000E+00 0.  1.
          2   -1    0    0  501    0  0.00000000000E+00 -0.00000000000E+00 -0.42734382142E+03  0.42734382142E+03  0.00000000000E+00 0. -1.
         25    2    1    2    0    0  0.69115457110E+02 -0.11636208476E+02 -0.19689572490E+03  0.24357469310E+03  0.12509339262E+03 0.  0.
          5    1    3    3  502    0  0.33549752824E+02  0.55542526869E+02 -0.11231852427E+03  0.12978243910E+03  0.41800000000E+01 0. -1.
         -5    1    3    3    0  502  0.35565704286E+02 -0.67178735345E+02 -0.84577200628E+02  0.11379225400E+03  0.41800000000E+01 0. -1.
        -11    1    1    2    0    0 -0.16057599045E+02 -0.36915961904E+02 -0.51526107185E+02  0.65387876950E+02  0.00000000000E+00 0.  1.
         11    1    1    2    0    0 -0.53057858065E+02  0.48552170381E+02 -0.13995267455E+03  0.15735056614E+03  0.00000000000E+00 0. -1.
</event>
<event>
 7    1  0.2556591E-009  0.1275875E+03  0.7561462E-02  0.1231080E+00
         -2   -1    0    0    0  501 -0.00000000000E+00  0.00000000000E+00  0.96700535092E+02  0.96700535092E+02  0.00000000000E+00 0.  1.
          2   -1    0    0  501    0  0.00000000000E+00 -0.00000000000E+00 -0.31046296973E+03  0.31046296973E+03  0.00000000000E+00 0. -1.
         25    2    1    2    0    0  0.23720151173E+02  0.11811258683E+03 -0.43107537612E+02  0.17893690530E+03  0.12508767940E+03 0.  0.
          5    1    3    3  502    0 -0.78047949132E+01 -0.25695721881E+00 -0.55079103729E+02  0.55786745004E+02  0.41800000000E+01 0.  1.
         -5    1    3    3    0  502  0.31524946086E+02  0.11836954405E+03  0.11971566117E+02  0.12315016029E+03  0.41800000000E+01 0.  1.
        -11    1    1    2    0    0 -0.29138878933E+02 -0.77839098694E+02 -0.16808201712E+03  0.18750883721E+03  0.00000000000E+00 0. -1.
         11    1    1    2    0    0  0.54187277608E+01 -0.40273488137E+02 -0.25728799018E+01  0.40717762319E+02  0.00000000000E+00 0.  1.
</event>
<event>
 7    1  0.2556591E-009  0.1234279E+03  0.7561462E-02  0.1237547E+00
         -1   -1    0    0    0  501 -0.00000000000E+00  0.00000000000E+00  0.19545150855E+02  0.19545150855E+02  0.00000000000E+00 0.  1.
          1   -1    0    0  501    0  0.00000000000E+00 -0.00000000000E+00 -0.81688885511E+03  0.81688885511E+03  0.00000000000E+00 0. -1.
         25    2    1    2    0    0 -0.39561810947E+02 -0.47427403432E+02 -0.50958034730E+03  0.52833111602E+03  0.12508853793E+03 0.  0.
          5    1    3    3  502    0 -0.80442576717E+02 -0.51828057330E+02 -0.39738468605E+03  0.40876547895E+03  0.41800000000E+01 0.  1.
         -5    1    3    3    0  502  0.40880765770E+02  0.44006538983E+01 -0.11219566125E+03  0.11956563707E+03  0.41800000000E+01 0.  1.
        -11    1    1    2    0    0 -0.19955866766E+02 -0.13871271947E+02 -0.74389646965E+02  0.78258982739E+02  0.00000000000E+00 0. -1.
         11    1    1    2    0    0  0.59517677714E+02  0.61298675379E+02 -0.21337370999E+03  0.22984390720E+03  0.00000000000E+00 0.  1.
</event>
<event>
 7    1  0.2556591E-009  0.8028924E+02  0.7561462E-02  0.1328233E+00
         -2   -1    0    0    0  501 -0.00000000000E+00  0.00000000000E+00  0.77223909232E+02  0.77223909232E+02  0.00000000000E+00 0.  1.
          2   -1    0    0  501    0  0.00000000000E+00 -0.00000000000E+00 -0.15324917111E+03  0.15324917111E+03  0.00000000000E+00 0. -1.
         25    2    1    2    0    0  0.76827926374E+01  0.26529612231E+01 -0.31541615235E+02  0.12926283588E+03  0.12509174130E+03 0.  0.
          5    1    3    3  502    0  0.40531795293E+02 -0.30399137186E+01  0.35593644203E+02  0.54188997156E+02  0.41800000000E+01 0. -1.
         -5    1    3    3    0  502 -0.32849002655E+02  0.56928749416E+01 -0.67135259438E+02  0.75073838722E+02  0.41800000000E+01 0. -1.
        -11    1    1    2    0    0  0.39194662683E+02 -0.17062418898E+01 -0.43128001064E+01  0.39468127508E+02  0.00000000000E+00 0.  1.
         11    1    1    2    0    0 -0.46877455320E+02 -0.94671933327E+00 -0.40170846533E+02  0.61742116954E+02  0.00000000000E+00 0. -1.
</event>
<event>
 7    1  0.2556591E-009  0.7787704E+02  0.7561462E-02  0.1335186E+00
         -2   -1    0    0    0  501 -0.00000000000E+00  0.00000000000E+00  0.64549732163E+02  0.64549732163E+02  0.00000000000E+00 0.  1.
          2   -1    0    0  501    0  0.00000000000E+00 -0.00000000000E+00 -0.36994198157E+03  0.36994198157E+03  0.00000000000E+00 0. -1.
         25    2    1    2    0    0 -0.64610822259E+02 -0.69569354030E+01 -0.28701697257E+03  0.31976385559E+03  0.12508886239E+03 0.  0.
          5    1    3    3  502    0  0.30396059557E+01 -0.20519227512E+02 -0.22769328438E+03  0.22867440183E+03  0.41800000000E+01 0.  1.
         -5    1    3    3    0  502 -0.67650428215E+02  0.13562292109E+02 -0.59323688193E+02  0.91089453757E+02  0.41800000000E+01 0.  1.
        -11    1    1    2    0    0  0.38471837938E+02  0.19828482497E+00 -0.56290868916E+02  0.68181988491E+02  0.00000000000E+00 0. -1.
         11    1    1    2    0    0  0.26138984321E+02  0.67586505781E+01  0.37915592081E+02  0.46545869654E+02  0.00000000000E+00 0.  1.
</event>
<event>
 7    1  0.2556591E-009  0.5027626E+02  0.7561462E-02  0.1443857E+00
          1   -1    0    0  501    0  0.00000000000E+00  0.00000000000E+00  0.57891315748E+02  0.57891315748E+02  0.00000000000E+00 0. -1.
         -1   -1    0    0    0  501 -0.00000000000E+00 -0.00000000000E+00 -0.24209936726E+03  0.24209936726E+03  0.00000000000E+00 0.  1.
         25    2    1    2    0    0 -0.13627422820E+02 -0.34482123815E+01 -0.16173045918E+03  0.20494080001E+03  0.12508554376E+03 0.  0.
          5    1    3    3  502    0 -0.42256024003E+01 -0.16338650562E+02  0.17666774844E+02  0.24786983504E+02  0.41800000000E+01 0. -1.
         -5    1    3    3    0  502 -0.94018204196E+01  0.12890438180E+02 -0.17939723403E+03  0.18015381650E+03  0.41800000000E+01 0. -1.
        -11    1    1    2    0    0 -0.26236103666E+02 -0.25539872088E+01  0.22495202418E+02  0.34653861517E+02  0.00000000000E+00 0. -1.
         11    1    1    2    0    0  0.39863526486E+02  0.60021995903E+01 -0.44972794748E+02  0.60396021486E+02  0.00000000000E+00 0.  1.
</event>
<event>
 7    1  0.2556591E-009  0.1715188E+03  0.7561462E-02  0.1176273E+00
         -1   -1    0    0    0  501 -0.00000000000E+00  0.00000000000E+00  0.37692047059E+02  0.37692047059E+02  0.00000000000E+00 0.  1.
          1   -1    0    0  501    0  0.00000000000E+00 -0.00000000000E+00 -0.11329844280E+04  0.11329844280E+04  0.00000000000E+00 0. -1.
         25    2    1    2    0    0 -0.49208901964E+02  0.14053733177E+03 -0.82372164729E+03  0.84636744505E+03  0.12509293416E+03 0.  0.
          5    1    3    3  502    0 -0.63582987575E+02  0.47161121576E+02 -0.57201082171E+03  0.57747798248E+03  0.41800000000E+01 0. -1.
         -5    1    3    3    0  502  0.14374085611E+02  0.93376210196E+02 -0.25171082558E+03  0.26888946257E+03  0.41800000000E+01 0. -1.
        -11    1    1    2    0    0  0.61666028888E+02 -0.54615586164E+02 -0.84158093186E+02  0.11776309277E+03  0.00000000000E+00 0.  1.
         11    1    1    2    0    0 -0.12457126924E+02 -0.85921745608E+02 -0.18741264042E+03  0.20654593718E+03  0.00000000000E+00 0. -1.
</event>
<event>
 7    1  0.2556591E-009  0.8212246E+02  0.7561462E-02  0.1323134E+00
          1   -1    0    0  501    0  0.00000000000E+00  0.00000000000E+00  0.32131345271E+02  0.32131345271E+02  0.00000000000E+00 0. -1.
         -1   -1    0    0    0  501 -0.00000000000E+00 -0.00000000000E+00 -0.45487583995E+03  0.45487583995E+03  0.00000000000E+00 0.  1.
         25    2    1    2    0    0  0.40870922025E+02  0.29284762723E+02 -0.20290411341E+03  0.24360884206E+03  0.12508860498E+03 0.  0.
          5    1    3    3  502    0 -0.31884453565E+01  0.20981755343E+02 -0.19701176212E+03  0.19819562824E+03  0.41800000000E+01 0. -1.
         -5    1    3    3    0  502  0.44059367381E+02  0.83030073798E+01 -0.58923512916E+01  0.45413213819E+02  0.41800000000E+01 0. -1.
        -11    1    1    2    0    0 -0.75981055634E+01 -0.55006920866E+02 -0.16623517939E+03  0.17526444996E+03  0.00000000000E+00 0.  1.
         11    1    1    2    0    0 -0.33272816462E+02  0.25722158143E+02 -0.53605201878E+02  0.68133893204E+02  0.00000000000E+00 0. -1.
</event>
<event>
 7    1  0.2556591E-009  0.8778366E+02  0.7561462E-02  0.1308309E+00
         -3   -1    0    0    0  501 -0.00000000000E+00  0.00000000000E+00  0.21386227838E+03  0.21386227838E+03  0.00000000000E+00 0.  1.
          3   -1    0    0  501    0  0.00000000000E+00 -0.00000000000E+00 -0.79644345070E+02  0.79644345070E+02  0.00000000000E+00 0. -1.
         25    2    1    2    0    0  0.42525870643E+02 -0.51617081432E+02  0.50053210129E+02  0.15041240660E+03  0.12508315413E+03 0.  0.
          5    1    3    3  502    0 -0.21877444632E+02 -0.30079160518E+02  0.70114299963E+02  0.79478713756E+02  0.41800000000E+01 0.  1.
         -5    1    3    3    0  502  0.64403315274E+02 -0.21537920914E+02 -0.20061089833E+02  0.70933692847E+02  0.41800000000E+01 0.  1.
        -11    1    1    2    0    0 -0.80931493779E+01  0.25872042469E+02 -0.17804166526E+02  0.32432236958E+02  0.00000000000E+00 0. -1.
         11    1    1    2    0    0 -0.34432721265E+02  0.25745038963E+02  0.10196888970E+03  0.11066197989E+03  0.00000000000E+00 0.  1.
</event>
<event>
 7    1  0.2556591E-009  0.1050523E+03  0.7561462E-02  0.1270017E+00
         -2   -1    0    0    0  501 -0.00000000000E+00  0.00000000000E+00  0.12528060278E+03  0.12528060278E+03  0.00000000000E+00 0.  1.
          2   -1    0    0  501    0  0.00000000000E+00 -0.00000000000E+00 -0.16474997880E+03  0.16474997880E+03  0.00000000000E+00 0. -1.
         25    2    1    2    0    0 -0.66909887074E+02  0.51512537406E+01  0.45540060829E+02  0.14907902043E+03  0.12508872367E+03 0.  0.
          5    1    3    3  502    0 -0.88059039088E+02  0.48667493818E+01  0.72721420849E+02  0.11438512607E+03  0.41800000000E+01 0. -1.
         -5    1    3    3    0  502  0.21149152014E+02  0.28450435882E+00 -0.27181360020E+02  0.34693894364E+02  0.41800000000E+01 0. -1.
        -11    1    1    2    0    0  0.26880756336E+02  0.34615810278E+02 -0.69959865884E+02  0.82554298597E+02  0.00000000000E+00 0.  1.
         11    1    1    2    0    0  0.40029130738E+02 -0.39767064018E+02 -0.15049570964E+02  0.58397262560E+02  0.00000000000E+00 0. -1.
</event>
<event>
 7    1  0.2556591E-009  0.1460396E+03  0.7561462E-02  0.1205426E+00
         -1   -1    0    0    0  501 -0.00000000000E+00  0.00000000000E+00  0.44510482866E+02  0.44510482866E+02  0.00000000000E+00 0.  1.
          1   -1    0    0  501    0  0.00000000000E+00 -0.00000000000E+00 -0.79276386273E+03  0.79276386273E+03  0.00000000000E+00 0. -1.
         25    2    1    2    0    0 -0.10190369152E+03 -0.73112579469E+02 -0.59006184506E+03  0.61607619881E+03  0.12508832924E+03 0.  0.
          5    1    3    3  502    0 -0.25316697370E+01  0.10257521395E+02 -0.27629783250E+03  0.27653135580E+03  0.41800000000E+01 0. -1.
         -5    1    3    3    0  502 -0.99372021782E+02 -0.83370100864E+02 -0.31376401256E+03  0.33954484300E+03  0.41800000000E+01 0. -1.
        -11    1    1    2    0    0  0.94975347468E+02  0.91135563091E+02 -0.11872533737E+03  0.17726170828E+03  0.00000000000E+00 0.  1.
         11    1    1    2    0    0  0.69283440506E+01 -0.18022983622E+02 -0.39466197425E+02  0.43936438512E+02  0.00000000000E+00 0. -1.
</event>
<event>
 7    1  0.2556591E-009  0.1079198E+03  0.7561462E-02  0.1264471E+00
          2   -1    0    0  501    0  0.00000000000E+00  0.00000000000E+00  0.29162318512E+03  0.29162318512E+03  0.00000000000E+00 0. -1.
         -2   -1    0    0    0  501 -0.00000000000E+00 -0.00000000000E+00 -0.55252315494E+02  0.55252315494E+02  0.00000000000E+00 0.  1.
         25    2    1    2    0    0 -0.34522706436E+02 -0.13851163258E+02  0.21009828643E+03  0.24733149684E+03  0.12509159598E+03 0.  0.
          5    1    3    3  502    0 -0.17310459529E+02  0.52396697220E+02  0.56333140110E+02  0.78968100922E+02  0.41800000000E+01 0. -1.
         -5    1    3    3    0  502 -0.17212246908E+02 -0.66247860478E+02  0.15376514632E+03  0.16836339592E+03  0.41800000000E+01 0. -1.
        -11    1    1    2    0    0 -0.25941385902E+02  0.17593518305E+02 -0.43826464198E+01  0.31649565218E+02  0.00000000000E+00 0.  1.
         11    1    1    2    0    0  0.60464092338E+02 -0.37423550471E+01  0.30655229607E+02  0.67894438549E+02  0.00000000000E+00 0. -1.
</event>
<event>
 7    1  0.2556591E-009  0.1308336E+03  0.7561462E-02  0.1226224E+00
         -2   -1    0    0    0  501 -0.00000000000E+00  0.00000000000E+00  0.37703057700E+02  0.37703057700E+02  0.00000000000E+00 0. -1.
          2   -1    0    0  501    0  0.00000000000E+00 -0.00000000000E+00 -0.77044907748E+03  0.77044907748E+03  0.00000000000E+00 0.  1.
         25    2    1    2    0    0  0.12092850860E+03 -0.46018719525E+02 -0.42488903702E+03  0.46143400646E+03  0.12509684969E+03 0.  0.
          5    1    3    3  502    0  0.90299765036E+02 -0.37763196095E+02 -0.41717162996E+03  0.42852041700E+03  0.41800000000E+01 0. -1.
         -5    1    3    3    0  502  0.30628743564E+02 -0.82555234306E+01 -0.77174070593E+01  0.32913589460E+02  0.41800000000E+01 0. -1.
        -11    1    1    2    0    0 -0.61038159207E+02  0.36338758796E+02 -0.64624212519E+02  0.96033593674E+02  0.00000000000E+00 0. -1.
         11    1    1    2    0    0 -0.59890349393E+02  0.96799607290E+01 -0.24323277024E+03  0.25068453504E+03  0.00000000000E+00 0.  1.
</event>
<event>
 7    1  0.2556591E-009  0.1135326E+03  0.7561462E-02  0.1254164E+00
         -2   -1    0    0    0  501 -0.00000000000E+00  0.00000000000E+00  0.76283620167E+02  0.76283620167E+02  0.00000000000E+00 0.  1.
          2   -1    0    0  501    0  0.00000000000E+00 -0.00000000000E+00 -0.19520557733E+03  0.19520557733E+03  0.00000000000E+00 0. -1.
         25    2    1    2    0    0  0.30541671703E+02  0.59457127458E+02 -0.75309761462E+02  0.16058326175E+03  0.12508988795E+03 0.  0.
          5    1    3    3  502    0  0.72968378795E+02  0.54213745636E+02 -0.74526004888E+02  0.11762275428E+03  0.41800000000E+01 0. -1.
         -5    1    3    3    0  502 -0.42426707092E+02  0.52433818220E+01 -0.78375657391E+00  0.42960507469E+02  0.41800000000E+01 0. -1.
        -11    1    1    2    0    0  0.67523010198E+01  0.11279553034E+02  0.83190328081E+01  0.15557255303E+02  0.00000000000E+00 0.  1.
         11    1    1    2    0    0 -0.37293972722E+02 -0.70736680491E+02 -0.51931228513E+02  0.95348680448E+02  0.00000000000E+00 0. -1.
</event>
<event>
 7    1  0.2556591E-009  0.2375892E+03  0.7561462E-02  0.1121409E+00
          1   -1    0    0  501    0  0.00000000000E+00  0.00000000000E+00  0.98464193129E+03  0.98464193129E+03  0.00000000000E+00 0. -1.
         -1   -1    0    0    0  501 -0.00000000000E+00 -0.00000000000E+00 -0.68819853828E+02  0.68819853828E+02  0.00000000000E+00 0.  1.
         25    2    1    2    0    0 -0.74403347531E+02  0.21345908873E+03  0.32999423833E+03  0.41909867777E+03  0.12508742421E+03 0.  0.
          5    1    3    3  502    0 -0.23798753461E+02  0.13866831636E+02 -0.25174956661E+01  0.27972841657E+02  0.41800000000E+01 0. -1.
         -5    1    3    3    0  502 -0.50604594070E+02  0.19959225710E+03  0.33251173400E+03  0.39112583612E+03  0.41800000000E+01 0. -1.
        -11    1    1    2    0    0  0.87097786065E+02 -0.12708318904E+03  0.41151361463E+03  0.43940825698E+03  0.00000000000E+00 0.  1.
         11    1    1    2    0    0 -0.12694438534E+02 -0.86375899692E+02  0.17431422450E+03  0.19495485037E+03  0.00000000000E+00 0. -1.
</event>
<event>
 7    1  0.2556591E-009  0.1141604E+03  0.7561462E-02  0.1253054E+00
          1   -1    0    0  501    0  0.00000000000E+00  0.00000000000E+00  0.12282431703E+03  0.12282431703E+03  0.00000000000E+00 0. -1.
         -1   -1    0    0    0  501 -0.00000000000E+00 -0.00000000000E+00 -0.10957247178E+03  0.10957247178E+03  0.00000000000E+00 0.  1.
         25    2    1    2    0    0  0.37073851261E+02  0.13364857884E+02  0.85094406411E+00  0.13115253575E+03  0.12508866318E+03 0.  0.
          5    1    3    3  502    0  0.56559243921E+02 -0.42393473297E+02 -0.80937154335E+01  0.71268052314E+02  0.41800000000E+01 0.  1.
         -5    1    3    3    0  502 -0.19485392660E+02  0.55758331181E+02  0.89446594976E+01  0.59884483439E+02  0.41800000000E+01 0.  1.
        -11    1    1    2    0    0  0.62194309149E+01 -0.44526808570E+02  0.16147180526E+02  0.47770801137E+02  0.00000000000E+00 0.  1.
         11    1    1    2    0    0 -0.43293282176E+02  0.31161950686E+02 -0.37462793370E+01  0.53473451927E+02  0.00000000000E+00 0. -1.
</event>
<event>
 7    1  0.2556591E-009  0.1263865E+03  0.7561462E-02  0.1232918E+00
         -2   -1    0    0    0  501 -0.00000000000E+00  0.00000000000E+00  0.94524364130E+02  0.94524364130E+02  0.00000000000E+00 0.  1.
          2   -1    0    0  501    0  0.00000000000E+00 -0.00000000000E+00 -0.22076117758E+03  0.22076117758E+03  0.00000000000E+00 0. -1.
         25    2    1    2    0    0  0.25510898874E+02  0.90597982299E+02 -0.49986338520E+02  0.16433320222E+03  0.12509183409E+03 0.  0.
          5    1    3    3  502    0  0.22256037846E+02 -0.28213323105E+02 -0.24652762563E+01  0.36261174943E+02  0.41800000000E+01 0. -1.
         -5    1    3    3    0  502  0.32548610273E+01  0.11881130540E+03 -0.47521062263E+02  0.12807202728E+03  0.41800000000E+01 0. -1.
        -11    1    1    2    0    0 -0.21353049485E+02 -0.29446472581E+02 -0.81686697958E+02  0.89419036525E+02  0.00000000000E+00 0. -1.
         11    1    1    2    0    0 -0.41578493891E+01 -0.61151509718E+02  0.54362230326E+01  0.61533302960E+02  0.00000000000E+00 0.  1.
</event>
<event>
 7    1  0.2556591E-009  0.1361381E+03  0.7561462E-02  0.1218622E+00
          1   -1    0    0  501    0  0.00000000000E+00  0.00000000000E+00  0.13364705628E+03  0.13364705628E+03  0.00000000000E+00 0. -1.
         -1   -1    0    0    0  501 -0.00000000000E+00 -0.00000000000E+00 -0.18939578547E+03  0.18939578547E+03  0.00000000000E+00 0.  1.
         25    2    1    2    0    0 -0.10659791284E+03 -0.24242777334E+02 -0.70655042644E+02  0.18052846988E+03  0.12509023187E+03 0.  0.
          5    1    3    3  502    0 -0.31807685479E+01  0.28924638503E+02  0.17798904307E+02  0.34366050044E+02  0.41800000000E+01 0. -1.
         -5    1    3    3    0  502 -0.10341714429E+03 -0.53167415837E+02 -0.88453946950E+02  0.14616241983E+03  0.41800000000E+01 0. -1.
        -11    1    1    2    0    0 -0.49955743027E+01  0.13518822939E+02 -0.20401052579E+02  0.24978336266E+02  0.00000000000E+00 0.  1.
         11    1    1    2    0    0  0.11159348714E+03  0.10723954395E+02  0.35307366025E+02  0.11753603561E+03  0.00000000000E+00 0. -1.
</event>
<event>
 7    1  0.2556591E-009  0.1652699E+03  0.7561462E-02  0.1182872E+00
          2   -1    0    0  501    0  0.00000000000E+00  0.00000000000E+00  0.28207211598E+03  0.28207211598E+03  0.00000000000E+00 0. -1.
         -2   -1    0    0    0  501 -0.00000000000E+00 -0.00000000000E+00 -0.12854830202E+03  0.12854830202E+03  0.00000000000E+00 0.  1.
         25    2    1    2    0    0  0.11465212523E+03  0.81980144582E+02  0.15261284013E+03  0.24249338847E+03  0.12508601261E+03 0.  0.
          5    1    3    3  502    0 -0.75029095972E+01 -0.22883642018E+02  0.71179105478E+01  0.25457646690E+02  0.41800000000E+01 0. -1.
         -5    1    3    3    0  502  0.12215503483E+03  0.10486378660E+03  0.14549492959E+03  0.21703574178E+03  0.41800000000E+01 0. -1.
        -11    1    1    2    0    0 -0.55787821191E+02 -0.60741626726E+02 -0.41702505135E+02  0.92417125821E+02  0.00000000000E+00 0.  1.
         11    1    1    2    0    0 -0.58864304037E+02 -0.21238517856E+02  0.42613478957E+02  0.75709903707E+02  0.00000000000E+00 0. -1.
</event>
<event>
 7    1  0.2556591E-009  0.1107710E+03  0.7561462E-02  0.1259149E+00
          2   -1    0    0  501    0  0.00000000000E+00  0.00000000000E+00  0.12833902827E+03  0.12833902827E+03  0.00000000000E+00 0. -1.
         -2   -1    0    0    0  501 -0.00000000000E+00 -0.00000000000E+00 -0.15213227928E+03  0.15213227928E+03  0.00000000000E+00 0.  1.
         25    2    1    2    0    0 -0.27300503412E+02  0.51965744965E+02  0.52469768149E+02  0.14780507033E+03  0.12508999204E+03 0.  0.
          5    1    3    3  502    0 -0.91276386107E+00  0.90877196613E+02  0.34588164087E+02  0.97330938026E+02  0.41800000000E+01 0. -1.
         -5    1    3    3    0  502 -0.26387739551E+02 -0.38911451648E+02  0.17881604062E+02  0.50474132304E+02  0.41800000000E+01 0. -1.
        -11    1    1    2    0    0 -0.58736130190E+01 -0.49771779943E+02 -0.84654125212E+02  0.98377082311E+02  0.00000000000E+00 0.  1.
         11    1    1    2    0    0  0.33174116431E+02 -0.21939650212E+01  0.83911060562E+01  0.34289154908E+02  0.00000000000E+00 0. -1.
</event>
<event>
 7    1  0.2556591E-009  0.1391153E+03  0.7561462E-02  0.1214524E+00
          2   -1    0    0  501    0  0.00000000000E+00  0.00000000000E+00  0.68930693973E+03  0.68930693973E+03  0.00000000000E+00 0. -1.
         -2   -1    0    0    0  501 -0.00000000000E+00 -0.00000000000E+00 -0.36096477829E+02  0.36096477829E+02  0.00000000000E+00 0.  1.
         25    2    1    2    0    0 -0.82730223722E+02  0.31196458282E+02  0.51734736292E+03  0.53955121225E+03  0.12509879214E+03 0.  0.
          5    1    3    3  502    0 -0.43423113228E+02  0.79277662612E+02  0.32672301374E+03  0.33902199731E+03  0.41800000000E+01 0.  1.
         -5    1    3    3    0  502 -0.39307110495E+02 -0.48081204330E+02  0.19062434917E+03  0.20052921493E+03  0.41800000000E+01 0.  1.
        -11    1    1    2    0    0  0.78498362096E+02  0.14313504526E+02  0.98866535373E+02  0.12704904990E+03  0.00000000000E+00 0. -1.
         11    1    1    2    0    0  0.42318616267E+01 -0.45509962808E+02  0.36996563615E+02  0.58803155416E+02  0.00000000000E+00 0.  1.
</event>
<event>
 7    1  0.2556591E-009  0.1044018E+03  0.7561462E-02  0.1271303E+00
         -2   -1    0    0    0  501 -0.00000000000E+00  0.00000000000E+00  0.53164529582E+03  0.53164529582E+03  0.00000000000E+00 0.  1.
          2   -1    0    0  501    0  0.00000000000E+00 -0.00000000000E+00 -0.27072908552E+02  0.27072908552E+02  0.00000000000E+00 0. -1.
         25    2    1    2    0    0 -0.13597899076E+02  0.19495983736E+02  0.38934606019E+03  0.40963749992E+03  0.12509008960E+03 0.  0.
          5    1    3    3  502    0 -0.11839268439E+02  0.71199541246E+02  0.18055099866E+03  0.19448824763E+03  0.41800000000E+01 0. -1.
         -5    1    3    3    0  502 -0.17586306376E+01 -0.51703557510E+02  0.20879506153E+03  0.21514925229E+03  0.41800000000E+01 0. -1.
        -11    1    1    2    0    0  0.17430641224E+02 -0.50468944113E+02  0.10210947457E+03  0.11522710780E+03  0.00000000000E+00 0.  1.
         11    1    1    2    0    0 -0.38327421479E+01  0.30972960377E+02  0.13116852508E+02  0.33853596657E+02  0.00000000000E+00 0. -1.
</event>
<event>
 7    1  0.2556591E-009  0.8713979E+02  0.7561462E-02  0.1309930E+00
         -1   -1    0    0    0  501 -0.00000000000E+00  0.00000000000E+00  0.10599512684E+03  0.10599512684E+03  0.00000000000E+00 0.  1.
          1   -1    0    0  501    0  0.00000000000E+00 -0.00000000000E+00 -0.12645309086E+03  0.12645309086E+03  0.00000000000E+00 0. -1.
         25    2    1    2    0    0  0.41075372673E+02  0.28467427519E+01 -0.22982035893E+01  0.13170831927E+03  0.12508600817E+03 0.  0.
          5    1    3    3  502    0  0.90664213914E+01  0.41059808570E+02  0.45798202922E+02  0.62314169075E+02  0.41800000000E+01 0. -1.
         -5    1    3    3    0  502  0.32008951282E+02 -0.38213065818E+02 -0.48096406511E+02  0.69394150191E+02  0.41800000000E+01 0. -1.
        -11    1    1    2    0    0  0.18579314658E+02  0.98216849067E+01 -0.31924484031E+02  0.38220794186E+02  0.00000000000E+00 0. -1.
         11    1    1    2    0    0 -0.59654687331E+02 -0.12668427659E+02  0.13764723598E+02  0.62519104245E+02  0.00000000000E+00 0.  1.
</event>
<event>
 7    1  0.2556591E-009  0.1309996E+03  0.7561462E-02  0.1225980E+00
         -1   -1    0    0    0  501 -0.00000000000E+00  0.00000000000E+00  0.51834345472E+02  0.51834345472E+02  0.00000000000E+00 0.  1.
          1   -1    0    0  501    0  0.00000000000E+00 -0.00000000000E+00 -0.44655138502E+03  0.44655138502E+03  0.00000000000E+00 0. -1.
         25    2    1    2    0    0  0.74190927184E+02 -0.27162108232E+02 -0.34109748188E+03  0.37179929434E+03  0.12508057132E+03 0.  0.
          5    1    3    3  502    0  0.10899831526E+03 -0.11982933327E+02 -0.25152850212E+03  0.27442354709E+03  0.41800000000E+01 0. -1.
         -5    1    3    3    0  502 -0.34807388076E+02 -0.15179174905E+02 -0.89568979766E+02  0.97375747246E+02  0.41800000000E+01 0. -1.
        -11    1    1    2    0    0 -0.25893768100E+02 -0.29735783345E+02 -0.24814338103E+02  0.46588146701E+02  0.00000000000E+00 0.  1.
         11    1    1    2    0    0 -0.48297159083E+02  0.56897891577E+02 -0.28805219563E+02  0.79998289454E+02  0.00000000000E+00 0. -1.
</event>
<event>
 7    1  0.2556591E-009  0.1553539E+03  0.7561462E-02  0.1194044E+00
         -2   -1    0    0    0  501 -0.00000000000E+00  0.00000000000E+00  0.21497171152E+02  0.21497171152E+02  0.00000000000E+00 0.  1.
          2   -1    0    0  501    0  0.00000000000E+00 -0.00000000000E+00 -0.13463554673E+04  0.13463554673E+04  0.00000000000E+00 0. -1.
         25    2    1    2    0    0 -0.10899587944E+03 -0.58017587318E+02 -0.87760566537E+03  0.89503424679E+03  0.12509379228E+03 0.  0.
          5    1    3    3  502    0 -0.11605694537E+03 -0.74659039513E+01 -0.71924067115E+03  0.72859424217E+03  0.41800000000E+01 0. -1.
         -5    1    3    3    0  502  0.70610659330E+01 -0.50551683367E+02 -0.15836499422E+03  0.16644000462E+03  0.41800000000E+01 0. -1.
        -11    1    1    2    0    0  0.38720295548E+02 -0.15236204403E+02 -0.63903821897E+02  0.76256813892E+02  0.00000000000E+00 0.  1.
         11    1    1    2    0    0  0.70275583893E+02  0.73253791721E+02 -0.38334880891E+03  0.39656157780E+03  0.00000000000E+00 0. -1.
</event>
<event>
 7    1  0.2556591E-009  0.1021771E+03  0.7561462E-02  0.1275783E+00
          2   -1    0    0  501    0  0.00000000000E+00  0.00000000000E+00  0.19088437432E+03  0.19088437432E+03  0.00000000000E+00 0. -1.
         -2   -1    0    0    0  501 -0.00000000000E+00 -0.00000000000E+00 -0.91018712288E+02  0.91018712288E+02  0.00000000000E+00 0.  1.
         25    2    1    2    0    0  0.66204601073E+02  0.27696939748E+02  0.75875722339E+02  0.16295456613E+03  0.12508755217E+03 0.  0.
          5    1    3    3  502    0  0.54763542706E+01  0.26109688885E+02  0.95289759837E+02  0.99041996343E+02  0.41800000000E+01 0. -1.
         -5    1    3    3    0  502  0.60728246803E+02  0.15872508626E+01 -0.19414037497E+02  0.63912569788E+02  0.41800000000E+01 0. -1.
        -11    1    1    2    0    0 -0.32860847609E+02  0.33399825444E+02  0.80149977198E+01  0.47535500773E+02  0.00000000000E+00 0. -1.
         11    1    1    2    0    0 -0.33343753464E+02 -0.61096765192E+02  0.15974941969E+02  0.71413019702E+02  0.00000000000E+00 0.  1.
</event>
<event>
 7    1  0.2556591E-009  0.9164315E+02  0.7561462E-02  0.1298921E+00
          1   -1    0    0  501    0  0.00000000000E+00  0.00000000000E+00  0.34673578765E+03  0.34673578765E+03  0.00000000000E+00 0. -1.
         -1   -1    0    0    0  501 -0.00000000000E+00 -0.00000000000E+00 -0.41748799595E+02  0.41748799595E+02  0.00000000000E+00 0.  1.
         25    2    1    2    0    0  0.28817923527E+02  0.41189184151E+02  0.13865839720E+03  0.19339079482E+03  0.12508727673E+03 0.  0.
          5    1    3    3  502    0 -0.39648041315E+02 -0.19231328055E+01  0.91066301856E+02  0.99429418954E+02  0.41800000000E+01 0. -1.
         -5    1    3    3    0  502  0.68465964841E+02  0.43112316957E+02  0.47592095339E+02  0.93961375862E+02  0.41800000000E+01 0. -1.
        -11    1    1    2    0    0  0.23849678539E+01 -0.28614820788E+02  0.15779606124E+03  0.16038732176E+03  0.00000000000E+00 0. -1.
         11    1    1    2    0    0 -0.31202891380E+02 -0.12574363363E+02  0.85325296248E+01  0.34706470669E+02  0.00000000000E+00 0.  1.
</event>
<event>
 7    1  0.2556591E-009  0.1200825E+03  0.7561462E-02  0.1242961E+00
         -2   -1    0    0    0  501 -0.00000000000E+00  0.00000000000E+00  0.78158701383E+02  0.78158701383E+02  0.00000000000E+00 0.  1.
          2   -1    0    0  501    0  0.00000000000E+00 -0.00000000000E+00 -0.21148361598E+03  0.21148361598E+03  0.00000000000E+00 0. -1.
         25    2    1    2    0    0 -0.50934658733E+02 -0.44922895153E+02 -0.70485435546E+02  0.15883342674E+03  0.12508978718E+03 0.  0.
          5    1    3    3  502    0 -0.83593945181E+02  0.31573160878E+01 -0.46656832221E+02  0.95876215553E+02  0.41800000000E+01 0.  1.
         -5    1    3    3    0  502  0.32659286448E+02 -0.48080211241E+02 -0.23828603325E+02  0.62957211189E+02  0.41800000000E+01 0.  1.
        -11    1    1    2    0    0  0.22361966059E+02 -0.18208313619E+02 -0.53646000669E+02  0.60905612210E+02  0.00000000000E+00 0. -1.
         11    1    1    2    0    0  0.28572692674E+02  0.63131208772E+02 -0.91934783795E+01  0.69903278409E+02  0.00000000000E+00 0.  1.
</event>
<event>
 7    1  0.2556591E-009  0.1887464E+03  0.7561462E-02  0.1159597E+00
         -2   -1    0    0    0  501 -0.00000000000E+00  0.00000000000E+00  0.31999787664E+02  0.31999787664E+02  0.00000000000E+00 0.  1.
          2   -1    0    0  501    0  0.00000000000E+00 -0.00000000000E+00 -0.13137342094E+04  0.13137342094E+04  0.00000000000E+00 0. -1.
         25    2    1    2    0    0 -0.70249396170E+02  0.15859697817E+03 -0.72750621683E+03  0.75828734635E+03  0.12508567053E+03 0.  0.
          5    1    3    3  502    0 -0.53568833414E+02  0.50102893978E+02 -0.11829582099E+03  0.13925262497E+03  0.41800000000E+01 0. -1.
         -5    1    3    3    0  502 -0.16680562755E+02  0.10849408419E+03 -0.60921039584E+03  0.61903472138E+03  0.41800000000E+01 0. -1.
        -11    1    1    2    0    0  0.36003348597E+01 -0.11383535996E+03 -0.34682319991E+03  0.36504490626E+03  0.00000000000E+00 0.  1.
         11    1    1    2    0    0  0.66649061310E+02 -0.44761618205E+02 -0.20740500505E+03  0.22240174450E+03  0.00000000000E+00 0. -1.
</event>
<event>
 7    1  0.2556591E-009  0.2011253E+03  0.7561462E-02  0.1148793E+00
         -2   -1    0    0    0  501 -0.00000000000E+00  0.00000000000E+00  0.34815102867E+02  0.34815102867E+02  0.00000000000E+00 0.  1.
          2   -1    0    0  501    0  0.00000000000E+00 -0.00000000000E+00 -0.20233564094E+04  0.20233564094E+04  0.00000000000E+00 0. -1.
         25    2    1    2    0    0  0.11530432767E+03 -0.13694494685E+03 -0.16510533460E+04  0.16654349276E+04  0.12508932837E+03 0.  0.
          5    1    3    3  502    0  0.11295448739E+03 -0.64433586503E+02 -0.13254673364E+04  0.13318376536E+04  0.41800000000E+01 0.  1.
         -5    1    3    3    0  502  0.23498402816E+01 -0.72511360343E+02 -0.32558600961E+03  0.33359727394E+03  0.41800000000E+01 0.  1.
        -11    1    1    2    0    0 -0.98718495825E+02  0.49432531175E+02 -0.20942676337E+03  0.23674561405E+03  0.00000000000E+00 0. -1.
         11    1    1    2    0    0 -0.16585831844E+02  0.87512415671E+02 -0.12806119715E+03  0.15599097066E+03  0.00000000000E+00 0.  1.
</event>
<event>
 7    1  0.2556591E-009  0.1050045E+03  0.7561462E-02  0.1270111E+00
         -1   -1    0    0    0  501 -0.00000000000E+00  0.00000000000E+00  0.28660198708E+02  0.28660198708E+02  0.00000000000E+00 0.  1.
          1   -1    0    0  501    0  0.00000000000E+00 -0.00000000000E+00 -0.44541962928E+03  0.44541962928E+03  0.00000000000E+00 0. -1.
         25    2    1    2    0    0  0.63448799817E+01  0.22013401035E+02 -0.28316507045E+03  0.31041294944E+03  0.12509554242E+03 0.  0.
          5    1    3    3  502    0 -0.14673578326E+02  0.68952645750E+02 -0.20435468762E+03  0.21621307086E+03  0.41800000000E+01 0.  1.
         -5    1    3    3    0  502  0.21018458308E+02 -0.46939244715E+02 -0.78810382821E+02  0.94199878580E+02  0.41800000000E+01 0.  1.
        -11    1    1    2    0    0 -0.33912262816E+02  0.18618931848E+02 -0.90167154203E+02  0.98116369121E+02  0.00000000000E+00 0. -1.
         11    1    1    2    0    0  0.27567382835E+02 -0.40632332883E+02 -0.43427205927E+02  0.65550509430E+02  0.00000000000E+00 0.  1.
</event>
<event>
 7    1  0.2556591E-009  0.3671919E+03  0.7561462E-02  0.1055772E+00
          2   -1    0    0  501    0  0.00000000000E+00  0.00000000000E+00  0.10405454864E+04  0.10405454864E+04  0.00000000000E+00 0. -1.
         -2   -1    0    0    0  501 -0.00000000000E+00 -0.00000000000E+00 -0.19461978244E+03  0.19461978244E+03  0.00000000000E+00 0.  1.
         25    2    1    2    0    0  0.84507496398E+01  0.35962385471E+02  0.34768031035E+03  0.37134186868E+03  0.12509387231E+03 0.  0.
          5    1    3    3  502    0  0.30363041172E+01  0.36270215617E+02  0.16652639637E+02  0.40243390643E+02  0.41800000000E+01 0.  1.
         -5    1    3    3    0  502  0.54144455226E+01 -0.30783014622E+00  0.33102767071E+03  0.33109847804E+03  0.41800000000E+01 0.  1.
        -11    1    1    2    0    0 -0.14848229744E+03 -0.33184782020E+03  0.34936860078E+03  0.50421065799E+03  0.00000000000E+00 0. -1.
         11    1    1    2    0    0  0.14003154780E+03  0.29588543473E+03  0.14887679279E+03  0.35961274212E+03  0.00000000000E+00 0.  1.
</event>
<event>
 7    1  0.2556591E-009  0.1323871E+03  0.7561462E-02  0.1223956E+00
          2   -1    0    0  501    0  0.00000000000E+00  0.00000000000E+00  0.32440676957E+03  0.32440676957E+03  0.00000000000E+00 0. -1.
         -2   -1    0    0    0  501 -0.00000000000E+00 -0.00000000000E+00 -0.62109288267E+02  0.62109288267E+02  0.00000000000E+00 0.  1.
         25    2    1    2    0    0  0.75931832069E+02  0.47671695687E+02  0.16161933426E+03  0.22317511135E+03  0.12509231563E+03 0.  0.
          5    1    3    3  502    0  0.32408812311E+02 -0.37874893098E+02  0.24373993295E+02  0.55645328571E+02  0.41800000000E+01 0. -1.
         -5    1    3    3    0  502  0.43523019758E+02  0.85546588785E+02  0.13724534097E+03  0.16752978278E+03  0.41800000000E+01 0. -1.
        -11    1    1    2    0    0  0.12097675466E+01  0.17591688109E+02  0.44189629290E+02  0.47577876842E+02  0.00000000000E+00 0. -1.
         11    1    1    2    0    0 -0.77141599615E+02 -0.65263383796E+02  0.56488517752E+02  0.11576306964E+03  0.00000000000E+00 0.  1.
</event>
<event>
 7    1  0.2556591E-009  0.1466390E+03  0.7561462E-02  0.1204665E+00
          1   -1    0    0  501    0  0.00000000000E+00  0.00000000000E+00  0.49038032564E+02  0.49038032564E+02  0.00000000000E+00 0. -1.
         -1   -1    0    0    0  501 -0.00000000000E+00 -0.00000000000E+00 -0.61736083304E+03  0.61736083304E+03  0.00000000000E+00 0.  1.
         25    2    1    2    0    0  0.55676781187E+02  0.12231486185E+03 -0.33963840214E+03  0.38608584318E+03  0.12508878728E+03 0.  0.
          5    1    3    3  502    0  0.33361034686E+02  0.80326519032E+02 -0.32454312405E+03  0.33602235055E+03  0.41800000000E+01 0.  1.
         -5    1    3    3    0  502  0.22315746501E+02  0.41988342820E+02 -0.15095278089E+02  0.50063492639E+02  0.41800000000E+01 0.  1.
        -11    1    1    2    0    0 -0.19408176865E+02 -0.12060478106E+03 -0.14847387287E+03  0.19226721371E+03  0.00000000000E+00 0. -1.
         11    1    1    2    0    0 -0.36268604322E+02 -0.17100807893E+01 -0.80210525461E+02  0.88045808705E+02  0.00000000000E+00 0.  1.
</event>
<event>
 7    1  0.2556591E-009  0.7059793E+02  0.7561462E-02  0.1358071E+00
         -1   -1    0    0    0  501 -0.00000000000E+00  0.00000000000E+00  0.24292606899E+03  0.24292606899E+03  0.00000000000E+00 0.  1.
          1   -1    0    0  501    0  0.00000000000E+00 -0.00000000000E+00 -0.99098616427E+02  0.99098616427E+02  0.00000000000E+00 0. -1.
         25    2    1    2    0    0 -0.21780560559E+02 -0.52257563914E+02  0.18344079658E+03  0.22913431444E+03  0.12508701931E+03 0.  0.
          5    1    3    3  502    0  0.20075264701E+02 -0.14557042353E+02  0.16896018050E+03  0.17082136497E+03  0.41800000000E+01 0. -1.
         -5    1    3    3    0  502 -0.41855825259E+02 -0.37700521561E+02  0.14480616083E+02  0.58312949473E+02  0.41800000000E+01 0. -1.
        -11    1    1    2    0    0  0.92605101164E+01  0.47018202246E+01 -0.59091386013E+02  0.59997133782E+02  0.00000000000E+00 0. -1.
         11    1    1    2    0    0  0.12520050442E+02  0.47555743689E+02  0.19478041991E+02  0.52893237193E+02  0.00000000000E+00 0.  1.
</event>
<event>
 7    1  0.2556591E-009  0.1288457E+03  0.7561462E-02  0.1229179E+00
         -2   -1    0    0    0  501 -0.00000000000E+00  0.00000000000E+00  0.16936829931E+02  0.16936829931E+02  0.00000000000E+00 0.  1.
          2   -1    0    0  501    0  0.00000000000E+00 -0.00000000000E+00 -0.98172950120E+03  0.98172950120E+03  0.00000000000E+00 0. -1.
         25    2    1    2    0    0 -0.43351920174E+02 -0.52527149010E+02 -0.52029670776E+03  0.53943535034E+03  0.12507334937E+03 0.  0.
          5    1    3    3  502    0  0.40858097276E+02 -0.39585621676E+02 -0.20024327043E+03  0.20820961868E+03  0.41800000000E+01 0. -1.
         -5    1    3    3    0  502 -0.84210017450E+02 -0.12941527334E+02 -0.32005343732E+03  0.33122573166E+03  0.41800000000E+01 0. -1.
        -11    1    1    2    0    0  0.69006217495E+02  0.16212447488E+02 -0.26657768927E+03  0.27584119693E+03  0.00000000000E+00 0. -1.
         11    1    1    2    0    0 -0.25654297321E+02  0.36314701522E+02 -0.17791827423E+03  0.18338978386E+03  0.00000000000E+00 0.  1.
</event>
<event>
 7    1  0.2556591E-009  0.1280437E+03  0.7561462E-02  0.1230388E+00
          1   -1    0    0  501    0  0.00000000000E+00  0.00000000000E+00  0.62102897288E+02  0.62102897288E+02  0.00000000000E+00 0. -1.
         -1   -1    0    0    0  501 -0.00000000000E+00 -0.00000000000E+00 -0.35099668128E+03  0.35099668128E+03  0.00000000000E+00 0.  1.
         25    2    1    2    0    0 -0.23850741665E+02 -0.73554052971E+02 -0.64673454373E+02  0.16065214423E+03  0.12508956455E+03 0.  0.
          5    1    3    3  502    0  0.45040566033E+02 -0.60862061038E+01 -0.40818237698E+02  0.61231490445E+02  0.41800000000E+01 0. -1.
         -5    1    3    3    0  502 -0.68891307698E+02 -0.67467846867E+02 -0.23855216674E+02  0.99420653789E+02  0.41800000000E+01 0. -1.
        -11    1    1    2    0    0  0.54855474609E+02  0.37872384724E+02 -0.15389968662E+03  0.16771569444E+03  0.00000000000E+00 0.  1.
         11    1    1    2    0    0 -0.31004732944E+02  0.35681668247E+02 -0.70320643005E+02  0.84731739900E+02  0.00000000000E+00 0. -1.
</event>
<event>
 7    1  0.2556591E-009  0.1287964E+03  0.7561462E-02  0.1229253E+00
         -2   -1    0    0    0  501 -0.00000000000E+00  0.00000000000E+00  0.54248681030E+02  0.54248681030E+02  0.00000000000E+00 0.  1.
          2   -1    0    0  501    0  0.00000000000E+00 -0.00000000000E+00 -0.46223984115E+03  0.46223984115E+03  0.00000000000E+00 0. -1.
         25    2    1    2    0    0 -0.15707168500E+02 -0.11391013503E+03 -0.22822412596E+03  0.28452854714E+03  0.12509200000E+03 0.  0.
          5    1    3    3  502    0  0.19141900214E+01 -0.29652437000E+02  0.96527829954E+01  0.31521100283E+02  0.41800000000E+01 0.  1.
         -5    1    3    3    0  502 -0.17621358521E+02 -0.84257698027E+02 -0.23787690895E+03  0.25300744686E+03  0.41800000000E+01 0.  1.
        -11    1    1    2    0    0 -0.25027811464E+02  0.91604087212E+02 -0.89721725485E+02  0.13064336250E+03  0.00000000000E+00 0.  1.
         11    1    1    2    0    0  0.40734979964E+02  0.22306047815E+02 -0.90045308683E+02  0.10131661255E+03  0.00000000000E+00 0. -1.
</event>
<event>
 7    1  0.2556591E-009  0.1637726E+03  0.7561462E-02  0.1184502E+00
         -2   -1    0    0    0  501 -0.00000000000E+00  0.00000000000E+00  0.30080364845E+03  0.30080364845E+03  0.00000000000E+00 0.  1.
          2   -1    0    0  501    0  0.00000000000E+00 -0.00000000000E+00 -0.10434961918E+03  0.10434961918E+03  0.00000000000E+00 0. -1.
         25    2    1    2    0    0 -0.80386663129E+02  0.10215055295E+03  0.47197006915E+02  0.18647246194E+03  0.12509064923E+03 0.  0.
          5    1    3    3  502    0 -0.71361272066E+02 -0.45273714467E+00 -0.35520870655E+01  0.71573220162E+02  0.41800000000E+01 0. -1.
         -5    1    3    3    0  502 -0.90253910629E+01  0.10260329009E+03  0.50749093981E+02  0.11489924178E+03  0.41800000000E+01 0. -1.
        -11    1    1    2    0    0  0.34095352984E+02 -0.10107653821E+03  0.13092646275E+03  0.16888072217E+03  0.00000000000E+00 0.  1.
         11    1    1    2    0    0  0.46291310145E+02 -0.10740147387E+01  0.18330559607E+02  0.49800083515E+02  0.00000000000E+00 0. -1.
</event>
<event>
 7    1  0.2556591E-009  0.1289320E+03  0.7561462E-02  0.1229049E+00
         -1   -1    0    0    0  501 -0.00000000000E+00  0.00000000000E+00  0.53043049352E+03  0.53043049352E+03  0.00000000000E+00 0.  1.
          1   -1    0    0  501    0  0.00000000000E+00 -0.00000000000E+00 -0.46765838254E+02  0.46765838254E+02  0.00000000000E+00 0. -1.
         25    2    1    2    0    0  0.83715713403E+02 -0.74905204321E+02  0.22113828966E+03  0.27779290748E+03  0.12509055115E+03 0.  0.
          5    1    3    3  502    0  0.14563185426E+02 -0.33541514030E+02  0.18630809046E+03  0.18990865305E+03  0.41800000000E+01 0.  1.
         -5    1    3    3    0  502  0.69152527977E+02 -0.41363690291E+02  0.34830199202E+02  0.87884254429E+02  0.41800000000E+01 0.  1.
        -11    1    1    2    0    0 -0.81285359252E+02  0.17795847418E+02  0.12179104686E+03  0.14750274882E+03  0.00000000000E+00 0. -1.
         11    1    1    2    0    0 -0.24303541509E+01  0.57109356903E+02  0.14073531875E+03  0.15190067548E+03  0.00000000000E+00 0.  1.
</event>
<event>
 7    1  0.2556591E-009  0.9784987E+02  0.7561462E-02  0.1284883E+00
         -1   -1    0    0    0  501 -0.00000000000E+00  0.00000000000E+00  0.44311867353E+02  0.44311867353E+02  0.00000000000E+00 0.  1.
          1   -1    0    0  501    0  0.00000000000E+00 -0.00000000000E+00 -0.43467232458E+03  0.43467232458E+03  0.00000000000E+00 0. -1.
         25    2    1    2    0    0 -0.22490171877E+02 -0.41722161803E+02 -0.34509321482E+03  0.37011396547E+03  0.12509386039E+03 0.  0.
          5    1    3    3  502    0 -0.67064949917E+02 -0.26671025188E+02 -0.28305667261E+03  0.29214312144E+03  0.41800000000E+01 0.  1.
         -5    1    3    3    0  502  0.44574778040E+02 -0.15051136615E+02 -0.62036542203E+02  0.77970844033E+02  0.41800000000E+01 0.  1.
        -11    1    1    2    0    0 -0.17774786031E+02 -0.56234917906E+00 -0.47210760775E+02  0.50449134661E+02  0.00000000000E+00 0. -1.
         11    1    1    2    0    0  0.40264957908E+02  0.42284510982E+02  0.19435183597E+01  0.58421091807E+02  0.00000000000E+00 0.  1.
</event>
<event>
 7    1  0.2610584E-009  0.1738736E+03  0.7561462E-02  0.1173867E+00
          2   -1    0    0  501    0  0.00000000000E+00  0.00000000000E+00  0.43223001893E+03  0.43223001893E+03  0.00000000000E+00 0. -1.
         -2   -1    0    0    0  501 -0.00000000000E+00 -0.00000000000E+00 -0.12180484833E+03  0.12180484833E+03  0.00000000000E+00 0.  1.
         25    2    1    2    0    0  0.10773703777E+03  0.12199329979E+03  0.16471598617E+02  0.20593394141E+03  0.12509132728E+03 0.  0.
          5    1    3    3  502    0  0.11124617769E+03  0.67753567363E+02 -0.30649748238E+02  0.13387732223E+03  0.41800000000E+01 0.  1.
         -5    1    3    3    0  502 -0.35091399197E+01  0.54239732431E+02  0.47121346855E+02  0.72056619173E+02  0.41800000000E+01 0.  1.
        -11    1    1    2    0    0 -0.30687308187E+02 -0.39712707759E+02  0.18366123619E+03  0.19039500970E+03  0.00000000000E+00 0. -1.
         11    1    1    2    0    0 -0.77049729585E+02 -0.82280592035E+02  0.11029233579E+03  0.15770591615E+03  0.00000000000E+00 0.  1.
</event>
<event>
 7    1  0.2556591E-009  0.8906430E+02  0.7561462E-02  0.1305134E+00
         -3   -1    0    0    0  501 -0.00000000000E+00  0.00000000000E+00  0.97145435529E+02  0.97145435529E+02  0.00000000000E+00 0.  1.
          3   -1    0    0  501    0  0.00000000000E+00 -0.00000000000E+00 -0.17070357025E+03  0.17070357025E+03  0.00000000000E+00 0. -1.
         25    2    1    2    0    0 -0.24192625223E+01 -0.25068311252E+02 -0.10553067115E+03  0.16558256016E+03  0.12508632465E+03 0.  0.
          5    1    3    3  502    0 -0.54207097404E+02  0.47895637435E+01 -0.87281042475E+02  0.10294076989E+03  0.41800000000E+01 0.  1.
         -5    1    3    3    0  502  0.51787834882E+02 -0.29857874995E+02 -0.18249628676E+02  0.62641790267E+02  0.41800000000E+01 0.  1.
        -11    1    1    2    0    0  0.22726551747E+02 -0.86064117012E+01  0.52540450383E+02  0.57888387463E+02  0.00000000000E+00 0. -1.
         11    1    1    2    0    0 -0.20307289225E+02  0.33674722953E+02 -0.20567913952E+02  0.44378058159E+02  0.00000000000E+00 0.  1.
</event>
<event>
 7    1  0.2556591E-009  0.1746975E+03  0.7561462E-02  0.1173036E+00
          1   -1    0    0  501    0  0.00000000000E+00  0.00000000000E+00  0.10081108423E+04  0.10081108423E+04  0.00000000000E+00 0. -1.
         -1   -1    0    0    0  501 -0.00000000000E+00 -0.00000000000E+00 -0.39307379660E+02  0.39307379660E+02  0.00000000000E+00 0.  1.
         25    2    1    2    0    0 -0.14998244985E+02  0.15189379604E+03  0.67982393170E+03  0.70788767680E+03  0.12509081591E+03 0.  0.
          5    1    3    3  502    0 -0.18872565723E+02  0.17230098408E+03  0.56073177770E+03  0.58692538007E+03  0.41800000000E+01 0.  1.
         -5    1    3    3    0  502  0.38743207386E+01 -0.20407188041E+02  0.11909215400E+03  0.12096229673E+03  0.41800000000E+01 0.  1.
        -11    1    1    2    0    0 -0.60750780547E+01 -0.70007631309E+02  0.21828303623E+03  0.22931519558E+03  0.00000000000E+00 0.  1.
         11    1    1    2    0    0  0.21073323039E+02 -0.81886164727E+02  0.70696494673E+02  0.11021534955E+03  0.00000000000E+00 0. -1.
</event>
<event>
 7    1  0.2556591E-009  0.2880336E+03  0.7561462E-02  0.1091380E+00
          2   -1    0    0  501    0  0.00000000000E+00  0.00000000000E+00  0.14942548819E+04  0.14942548819E+04  0.00000000000E+00 0.  1.
         -2   -1    0    0    0  501 -0.00000000000E+00 -0.00000000000E+00 -0.11216968431E+03  0.11216968431E+03  0.00000000000E+00 0. -1.
         25    2    1    2    0    0  0.28430005807E+03  0.12357389557E+00  0.12355601107E+04  0.12740028524E+04  0.12509173597E+03 0.  0.
          5    1    3    3  502    0  0.53424107917E+02  0.25487994814E+02  0.47679359234E+03  0.48047203382E+03  0.41800000000E+01 0.  1.
         -5    1    3    3    0  502  0.23087595015E+03 -0.25364420919E+02  0.75876651836E+03  0.79353081855E+03  0.41800000000E+01 0.  1.
        -11    1    1    2    0    0 -0.79814396102E+02  0.37457555911E+01 -0.15594844575E+01  0.79917460557E+02  0.00000000000E+00 0. -1.
         11    1    1    2    0    0 -0.20448566197E+03 -0.38693294867E+01  0.14808457137E+03  0.25250425331E+03  0.00000000000E+00 0.  1.
</event>
<event>
 7    1  0.2556591E-009  0.8240386E+02  0.7561462E-02  0.1322365E+00
          2   -1    0    0  501    0  0.00000000000E+00  0.00000000000E+00  0.31153692287E+03  0.31153692287E+03  0.00000000000E+00 0. -1.
         -2   -1    0    0    0  501 -0.00000000000E+00 -0.00000000000E+00 -0.53208762507E+02  0.53208762507E+02  0.00000000000E+00 0.  1.
         25    2    1    2    0    0 -0.15829955433E+02 -0.64659087370E+02  0.16640635922E+03  0.21856365517E+03  0.12509040693E+03 0.  0.
          5    1    3    3  502    0 -0.30375139991E+02  0.10172393945E+01 -0.79016067842E+01  0.31679515388E+02  0.41800000000E+01 0.  1.
         -5    1    3    3    0  502  0.14545184558E+02 -0.65676326764E+02  0.17430796600E+03  0.18688413979E+03  0.41800000000E+01 0.  1.
        -11    1    1    2    0    0  0.36052680088E+01  0.24179307042E+02  0.10016115681E+03  0.10310137817E+03  0.00000000000E+00 0. -1.
         11    1    1    2    0    0  0.12224687424E+02  0.40479780328E+02 -0.82393556672E+01  0.43080652035E+02  0.00000000000E+00 0.  1.
</event>
<event>
 7    1  0.2556591E-009  0.9129615E+02  0.7561462E-02  0.1299743E+00
         -1   -1    0    0    0  501 -0.00000000000E+00  0.00000000000E+00  0.18445531097E+03  0.18445531097E+03  0.00000000000E+00 0.  1.
          1   -1    0    0  501    0  0.00000000000E+00 -0.00000000000E+00 -0.10528335266E+03  0.10528335266E+03  0.00000000000E+00 0. -1.
         25    2    1    2    0    0  0.54616808315E+02  0.35756982927E+02  0.10681478194E+03  0.17697111711E+03  0.12509125098E+03 0.  0.
          5    1    3    3  502    0  0.51917440292E+02 -0.11670817763E+02  0.11664744607E+03  0.12827988022E+03  0.41800000000E+01 0.  1.
         -5    1    3    3    0  502  0.26993680236E+01  0.47427800690E+02 -0.98326641349E+01  0.48691236892E+02  0.41800000000E+01 0.  1.
        -11    1    1    2    0    0 -0.46018885313E+02 -0.13249648015E+01  0.22575111981E+02  0.51275033087E+02  0.00000000000E+00 0.  1.
         11    1    1    2    0    0 -0.85979230024E+01 -0.34432018126E+02 -0.50217935603E+02  0.61492513434E+02  0.00000000000E+00 0. -1.
</event>
<event>
 7    1  0.2556591E-009  0.1288081E+03  0.7561462E-02  0.1229235E+00
         -2   -1    0    0    0  501 -0.00000000000E+00  0.00000000000E+00  0.29053516056E+02  0.29053516056E+02  0.00000000000E+00 0.  1.
          2   -1    0    0  501    0  0.00000000000E+00 -0.00000000000E+00 -0.58036061614E+03  0.58036061614E+03  0.00000000000E+00 0. -1.
         25    2    1    2    0    0 -0.64515281922E+02 -0.27430201040E+02 -0.29291431360E+03  0.32613015322E+03  0.12508974458E+03 0.  0.
          5    1    3    3  502    0 -0.57650014726E+02 -0.74859877358E+02 -0.20902865449E+03  0.22942967601E+03  0.41800000000E+01 0. -1.
         -5    1    3    3    0  502 -0.68652671959E+01  0.47429676318E+02 -0.83885659109E+02  0.96700477215E+02  0.41800000000E+01 0. -1.
        -11    1    1    2    0    0  0.31338986285E+02 -0.33302007694E+02 -0.83585558688E+02  0.95276972029E+02  0.00000000000E+00 0. -1.
         11    1    1    2    0    0  0.33176295637E+02  0.60732208734E+02 -0.17480722779E+03  0.18800700694E+03  0.00000000000E+00 0.  1.
</event>
<event>
 7    1  0.2556591E-009  0.3143216E+03  0.7561462E-02  0.1078293E+00
         -2   -1    0    0    0  501 -0.00000000000E+00  0.00000000000E+00  0.17350299309E+03  0.17350299309E+03  0.00000000000E+00 0.  1.
          2   -1    0    0  501    0  0.00000000000E+00 -0.00000000000E+00 -0.61160339633E+03  0.61160339633E+03  0.00000000000E+00 0. -1.
         25    2    1    2    0    0  0.62881201459E+02  0.29493723992E+03 -0.29096131869E+03  0.43731476087E+03  0.12507473809E+03 0.  0.
          5    1    3    3  502    0  0.51731167337E+02  0.30575622764E+03 -0.27264203725E+03  0.41293357491E+03  0.41800000000E+01 0.  1.
         -5    1    3    3    0  502  0.11150034122E+02 -0.10818987716E+02 -0.18319281447E+02  0.24381185961E+02  0.41800000000E+01 0.  1.
        -11    1    1    2    0    0 -0.30018931630E+02 -0.19302308255E+03 -0.46414440467E+02  0.20078183916E+03  0.00000000000E+00 0.  1.
         11    1    1    2    0    0 -0.32862269830E+02 -0.10191415737E+03 -0.10072464408E+03  0.14700978939E+03  0.00000000000E+00 0. -1.
</event>
<event>
 7    1  0.3505250E-009  0.8702506E+02  0.7561462E-02  0.1310220E+00
         -2   -1    0    0    0  501 -0.00000000000E+00  0.00000000000E+00  0.20123219581E+02  0.20123219581E+02  0.00000000000E+00 0.  1.
          2   -1    0    0  501    0  0.00000000000E+00 -0.00000000000E+00 -0.99558860383E+03  0.99558860383E+03  0.00000000000E+00 0. -1.
         25    2    1    2    0    0 -0.39385780881E+02 -0.92735983134E+01 -0.82239806636E+03  0.83283959607E+03  0.12508386733E+03 0.  0.
          5    1    3    3  502    0 -0.54020395765E+02  0.26233018262E+02 -0.19102490651E+03  0.20028570022E+03  0.41800000000E+01 0.  1.
         -5    1    3    3    0  502  0.14634614885E+02 -0.35506616576E+02 -0.63137315984E+03  0.63255389584E+03  0.41800000000E+01 0.  1.
        -11    1    1    2    0    0 -0.23495186969E+01 -0.22590259255E+02 -0.18378661481E+01  0.22786351250E+02  0.00000000000E+00 0.  1.
         11    1    1    2    0    0  0.41735299577E+02  0.31863857569E+02 -0.15122945174E+03  0.16008587609E+03  0.00000000000E+00 0. -1.
</event>
<event>
 7    1  0.2556591E-009  0.1104339E+03  0.7561462E-02  0.1259768E+00
         -1   -1    0    0    0  501 -0.00000000000E+00  0.00000000000E+00  0.75924573198E+03  0.75924573198E+03  0.00000000000E+00 0.  1.
          1   -1    0    0  501    0  0.00000000000E+00 -0.00000000000E+00 -0.17091818034E+02  0.17091818034E+02  0.00000000000E+00 0. -1.
         25    2    1    2    0    0 -0.26693969065E+02  0.16030042260E+02  0.37089876205E+03  0.39266109561E+03  0.12508922446E+03 0.  0.
          5    1    3    3  502    0  0.44753480189E+02  0.25755441115E+02  0.10437457199E+03  0.11652356163E+03  0.41800000000E+01 0.  1.
         -5    1    3    3    0  502 -0.71447449254E+02 -0.97253988555E+01  0.26652419005E+03  0.27613753398E+03  0.41800000000E+01 0.  1.
        -11    1    1    2    0    0 -0.30280271568E+02  0.12928457532E+02  0.12635236993E+03  0.13057167092E+03  0.00000000000E+00 0.  1.
         11    1    1    2    0    0  0.56974240633E+02 -0.28958499792E+02  0.24490278197E+03  0.25310478349E+03  0.00000000000E+00 0. -1.
</event>
<event>
 7    1  0.2556591E-009  0.1224420E+03  0.7561462E-02  0.1239122E+00
         -4   -1    0    0    0  501 -0.00000000000E+00  0.00000000000E+00  0.22217843114E+03  0.22217843114E+03  0.00000000000E+00 0.  1.
          4   -1    0    0  501    0  0.00000000000E+00 -0.00000000000E+00 -0.69950196043E+02  0.69950196043E+02  0.00000000000E+00 0. -1.
         25    2    1    2    0    0 -0.24467166824E+02  0.55354474107E+02  0.74419856322E+02  0.15763649097E+03  0.12509271847E+03 0.  0.
          5    1    3    3  502    0  0.18454059035E+02 -0.34238317091E+02  0.26583485869E+02  0.47296604245E+02  0.41800000000E+01 0.  1.
         -5    1    3    3    0  502 -0.42921225859E+02  0.89592791198E+02  0.47836370453E+02  0.11033988672E+03  0.41800000000E+01 0.  1.
        -11    1    1    2    0    0  0.15021372177E+02  0.22967974232E+02  0.35817913543E+02  0.45123080491E+02  0.00000000000E+00 0.  1.
         11    1    1    2    0    0  0.94457946465E+01 -0.78322448339E+02  0.41990465230E+02  0.89369055722E+02  0.00000000000E+00 0. -1.
</event>
<event>
 7    1  0.2556591E-009  0.1636522E+03  0.7561462E-02  0.1184634E+00
         -2   -1    0    0    0  501 -0.00000000000E+00  0.00000000000E+00  0.58963890286E+02  0.58963890286E+02  0.00000000000E+00 0.  1.
          2   -1    0    0  501    0  0.00000000000E+00 -0.00000000000E+00 -0.46181696203E+03  0.46181696203E+03  0.00000000000E+00 0. -1.
         25    2    1    2    0    0 -0.88021522258E+02 -0.85901526976E+02 -0.18745645183E+03  0.25673724057E+03  0.12508888298E+03 0.  0.
          5    1    3    3  502    0 -0.12031338877E+03 -0.68070245607E+02 -0.14712782387E+03  0.20192310123E+03  0.41800000000E+01 0. -1.
         -5    1    3    3    0  502  0.32291866512E+02 -0.17831281369E+02 -0.40328627959E+02  0.54814139336E+02  0.41800000000E+01 0. -1.
        -11    1    1    2    0    0  0.22081979179E+01  0.63036384785E+02 -0.10326030783E+03  0.12100063272E+03  0.00000000000E+00 0.  1.
         11    1    1    2    0    0  0.85813324340E+02  0.22865142191E+02 -0.11213631208E+03  0.14304297902E+03  0.00000000000E+00 0. -1.
</event>
<event>
 7    1  0.2556591E-009  0.3427837E+03  0.7561462E-02  0.1065616E+00
         -2   -1    0    0    0  501 -0.00000000000E+00  0.00000000000E+00  0.54758308067E+02  0.54758308067E+02  0.00000000000E+00 0.  1.
          2   -1    0    0  501    0  0.00000000000E+00 -0.00000000000E+00 -0.23035296929E+04  0.23035296929E+04  0.00000000000E+00 0. -1.
         25    2    1    2    0    0  0.13122513637E+03 -0.31069537185E+03 -0.10775950932E+04  0.11360497380E+04  0.12508465871E+03 0.  0.
          5    1    3    3  502    0  0.14081934942E+03 -0.29874722591E+03 -0.10670070480E+04  0.11169608350E+04  0.41800000000E+01 0. -1.
         -5    1    3    3    0  502 -0.95942130466E+01 -0.11948145936E+02 -0.10588045217E+02  0.19088902975E+02  0.41800000000E+01 0.  1.
        -11    1    1    2    0    0 -0.53509956703E+02  0.17514411046E+03 -0.48317254359E+03  0.51671508762E+03  0.00000000000E+00 0. -1.
         11    1    1    2    0    0 -0.77715179666E+02  0.13555126139E+03 -0.68800374802E+03  0.70552317532E+03  0.00000000000E+00 0.  1.
</event>
<event>
 7    1  0.2556591E-009  0.1646244E+03  0.7561462E-02  0.1183573E+00
          1   -1    0    0  501    0  0.00000000000E+00  0.00000000000E+00  0.36170917211E+03  0.36170917211E+03  0.00000000000E+00 0. -1.
         -1   -1    0    0    0  501 -0.00000000000E+00 -0.00000000000E+00 -0.93399956314E+02  0.93399956314E+02  0.00000000000E+00 0.  1.
         25    2    1    2    0    0 -0.14079711661E+03 -0.38864776816E+02  0.17414851350E+03  0.25944043987E+03  0.12508932074E+03 0.  0.
          5    1    3    3  502    0 -0.67622255418E+02  0.25439538690E+02  0.16741864412E+02  0.74281235723E+02  0.41800000000E+01 0. -1.
         -5    1    3    3    0  502 -0.73174861197E+02 -0.64304315506E+02  0.15740664909E+03  0.18515920415E+03  0.41800000000E+01 0. -1.
        -11    1    1    2    0    0  0.11750826450E+03  0.56283660343E+02  0.43696659501E+02  0.13742430898E+03  0.00000000000E+00 0.  1.
         11    1    1    2    0    0  0.23288852111E+02 -0.17418883527E+02  0.50464042796E+02  0.58244379568E+02  0.00000000000E+00 0. -1.
</event>
<event>
 7    1  0.2556591E-009  0.1288305E+03  0.7561462E-02  0.1229201E+00
          2   -1    0    0  501    0  0.00000000000E+00  0.00000000000E+00  0.12496777501E+04  0.12496777501E+04  0.00000000000E+00 0. -1.
         -2   -1    0    0    0  501 -0.00000000000E+00 -0.00000000000E+00 -0.20375140046E+02  0.20375140046E+02  0.00000000000E+00 0.  1.
         25    2    1    2    0    0  0.25780755102E+02  0.11372924008E+03  0.70223970210E+03  0.72276456026E+03  0.12509605502E+03 0.  0.
          5    1    3    3  502    0  0.78685158409E+01  0.30606614701E+02  0.52676364840E+03  0.52772728950E+03  0.41800000000E+01 0.  1.
         -5    1    3    3    0  502  0.17912239261E+02  0.83122625375E+02  0.17547605370E+03  0.19503727076E+03  0.41800000000E+01 0.  1.
        -11    1    1    2    0    0  0.13223153934E+02 -0.97520134703E+02  0.28363013416E+03  0.30021838964E+03  0.00000000000E+00 0.  1.
         11    1    1    2    0    0 -0.39003909036E+02 -0.16209105373E+02  0.24343277374E+03  0.24706994020E+03  0.00000000000E+00 0. -1.
</event>
<event>
 7    1  0.2556591E-009  0.1078484E+03  0.7561462E-02  0.1264607E+00
          1   -1    0    0  501    0  0.00000000000E+00  0.00000000000E+00  0.35375461047E+03  0.35375461047E+03  0.00000000000E+00 0. -1.
         -1   -1    0    0    0  501 -0.00000000000E+00 -0.00000000000E+00 -0.39096041760E+02  0.39096041760E+02  0.00000000000E+00 0.  1.
         25    2    1    2    0    0  0.25273652927E+02  0.35562745158E+02  0.15487374814E+03  0.20380738564E+03  0.12509239067E+03 0.  0.
          5    1    3    3  502    0  0.72316563694E+02  0.13594211905E+02  0.12098362701E+03  0.14166509234E+03  0.41800000000E+01 0. -1.
         -5    1    3    3    0  502 -0.47042910766E+02  0.21968533253E+02  0.33890121121E+02  0.62142293297E+02  0.41800000000E+01 0. -1.
        -11    1    1    2    0    0  0.19188788120E+02 -0.40849250925E+02  0.12325082562E+03  0.13125409292E+03  0.00000000000E+00 0.  1.
         11    1    1    2    0    0 -0.44462441047E+02  0.52865057672E+01  0.36533994952E+02  0.57789173677E+02  0.00000000000E+00 0. -1.
</event>
<event>
 7    1  0.2556591E-009  0.1123150E+03  0.7561462E-02  0.1256342E+00
         -2   -1    0    0    0  501 -0.00000000000E+00  0.00000000000E+00  0.15729078353E+02  0.15729078353E+02  0.00000000000E+00 0.  1.
          2   -1    0    0  501    0  0.00000000000E+00 -0.00000000000E+00 -0.12306905515E+04  0.12306905515E+04  0.00000000000E+00 0. -1.
         25    2    1    2    0    0 -0.54921902879E+02  0.51212736583E+02 -0.10477698694E+04  0.10578790329E+04  0.12508872573E+03 0.  0.
          5    1    3    3  502    0 -0.44245938822E+02 -0.32496049250E+02 -0.27159558229E+03  0.27711970165E+03  0.41800000000E+01 0. -1.
         -5    1    3    3    0  502 -0.10675964057E+02  0.83708785833E+02 -0.77617428709E+03  0.78075933128E+03  0.41800000000E+01 0. -1.
        -11    1    1    2    0    0  0.21988781132E+02 -0.46990781511E+02 -0.81172756142E+02  0.96336163419E+02  0.00000000000E+00 0.  1.
         11    1    1    2    0    0  0.32933121747E+02 -0.42219550723E+01 -0.86018847582E+02  0.92204433473E+02  0.00000000000E+00 0. -1.
</event>
<event>
 7    1  0.2556591E-009  0.8127528E+02  0.7561462E-02  0.1325471E+00
          1   -1    0    0  501    0  0.00000000000E+00  0.00000000000E+00  0.44505417474E+02  0.44505417474E+02  0.00000000000E+00 0. -1.
         -1   -1    0    0    0  501 -0.00000000000E+00 -0.00000000000E+00 -0.33693909658E+03  0.33693909658E+03  0.00000000000E+00 0.  1.
         25    2    1    2    0    0  0.57771783828E+02  0.88713335314E+01 -0.16160751771E+03  0.21255561972E+03  0.12508645862E+03 0.  0.
          5    1    3    3  502    0  0.49343366155E+02  0.48378028127E+01  0.86263570718E+00  0.49763326456E+02  0.41800000000E+01 0.  1.
         -5    1    3    3    0  502  0.84284176724E+01  0.40335307187E+01 -0.16247015342E+03  0.16279229327E+03  0.41800000000E+01 0.  1.
        -11    1    1    2    0    0 -0.26840024680E+02  0.37925956124E+02 -0.36261255426E+02  0.58937625655E+02  0.00000000000E+00 0. -1.
         11    1    1    2    0    0 -0.30931759147E+02 -0.46797289656E+02 -0.94564905963E+02  0.10995126867E+03  0.00000000000E+00 0.  1.
</event>
<event>
 7    1  0.2556591E-009  0.9542427E+02  0.7561462E-02  0.1290223E+00
         -3   -1    0    0    0  501 -0.00000000000E+00  0.00000000000E+00  0.81988918885E+02  0.81988918885E+02  0.00000000000E+00 0. -1.
          3   -1    0    0  501    0  0.00000000000E+00 -0.00000000000E+00 -0.18994202092E+03  0.18994202092E+03  0.00000000000E+00 0.  1.
         25    2    1    2    0    0 -0.36651402354E+02  0.37372383785E+02 -0.26657513645E+02  0.13819576363E+03  0.12508967058E+03 0.  0.
          5    1    3    3  502    0 -0.40244372369E+02 -0.40661703621E+02 -0.10478058246E+02  0.58311626228E+02  0.41800000000E+01 0. -1.
         -5    1    3    3    0  502  0.35929700155E+01  0.78034087406E+02 -0.16179455399E+02  0.79884137398E+02  0.41800000000E+01 0. -1.
        -11    1    1    2    0    0  0.76308945881E+01 -0.20067097884E+02  0.18521560268E+02  0.28354314741E+02  0.00000000000E+00 0. -1.
         11    1    1    2    0    0  0.29020507766E+02 -0.17305285901E+02 -0.99817148660E+02  0.10538086144E+03  0.00000000000E+00 0.  1.
</event>
<event>
 7    1  0.2556591E-009  0.1019346E+03  0.7561462E-02  0.1276280E+00
          4   -1    0    0  501    0  0.00000000000E+00  0.00000000000E+00  0.51955694011E+03  0.51955694011E+03  0.00000000000E+00 0. -1.
         -4   -1    0    0    0  501 -0.00000000000E+00 -0.00000000000E+00 -0.43506637636E+02  0.43506637636E+02  0.00000000000E+00 0.  1.
         25    2    1    2    0    0 -0.62561360583E+02 -0.23057273503E+02  0.40977395321E+03  0.43359860696E+03  0.12508995773E+03 0.  0.
          5    1    3    3  502    0 -0.66720782208E+02 -0.37787957141E+02  0.11431210353E+03  0.13771100863E+03  0.41800000000E+01 0. -1.
         -5    1    3    3    0  502  0.41594216254E+01  0.14730683638E+02  0.29546184968E+03  0.29588759833E+03  0.41800000000E+01 0. -1.
        -11    1    1    2    0    0  0.10752035265E+02 -0.33100856051E+02  0.21285099721E+02  0.40796181240E+02  0.00000000000E+00 0. -1.
         11    1    1    2    0    0  0.51809325318E+02  0.56158129554E+02  0.44991249541E+02  0.88668789549E+02  0.00000000000E+00 0.  1.
</event>
<event>
 7    1  0.2556591E-009  0.1296385E+03  0.7561462E-02  0.1227993E+00
          1   -1    0    0  501    0  0.00000000000E+00  0.00000000000E+00  0.12963744503E+03  0.12963744503E+03  0.00000000000E+00 0. -1.
         -1   -1    0    0    0  501 -0.00000000000E+00 -0.00000000000E+00 -0.13022752888E+03  0.13022752888E+03  0.00000000000E+00 0.  1.
         25    2    1    2    0    0  0.68375042336E+02  0.27828367023E+02 -0.47599455284E+01  0.14532760152E+03  0.12509152752E+03 0.  0.
          5    1    3    3  502    0  0.71620881590E+02  0.71230719578E+02 -0.84360550799E+01  0.10144952201E+03  0.41800000000E+01 0. -1.
         -5    1    3    3    0  502 -0.32458392539E+01 -0.43402352555E+02  0.36761095516E+01  0.43878079506E+02  0.41800000000E+01 0. -1.
        -11    1    1    2    0    0  0.21231534536E+02 -0.79409630423E+01  0.13125850800E+01  0.22705942667E+02  0.00000000000E+00 0. -1.
         11    1    1    2    0    0 -0.89606576872E+02 -0.19887403981E+02  0.28572765993E+01  0.91831429725E+02  0.00000000000E+00 0.  1.
</event>
<event>
 7    1  0.2556591E-009  0.1170981E+03  0.7561462E-02  0.1247962E+00
          4   -1    0    0  501    0  0.00000000000E+00  0.00000000000E+00  0.42104806640E+02  0.42104806640E+02  0.00000000000E+00 0. -1.
         -4   -1    0    0    0  501 -0.00000000000E+00 -0.00000000000E+00 -0.37285887653E+03  0.37285887653E+03  0.00000000000E+00 0.  1.
         25    2    1    2    0    0  0.31301102773E+02 -0.52700882108E+02 -0.13054803793E+03  0.19091080234E+03  0.12508797797E+03 0.  0.
          5    1    3    3  502    0 -0.42051780882E+02 -0.47013297967E+02 -0.42883069719E+02  0.76387384623E+02  0.41800000000E+01 0. -1.
         -5    1    3    3    0  502  0.73352883656E+02 -0.56875841413E+01 -0.87664968216E+02  0.11452341772E+03  0.41800000000E+01 0. -1.
        -11    1    1    2    0    0  0.70697671706E+01  0.58111157259E+02 -0.14703310291E+03  0.15825808528E+03  0.00000000000E+00 0.  1.
         11    1    1    2    0    0 -0.38370869944E+02 -0.54102751505E+01 -0.53172929044E+02  0.65794795544E+02  0.00000000000E+00 0. -1.
</event>
<event>
 7    1  0.2556591E-009  0.1144293E+03  0.7561462E-02  0.1252581E+00
         -1   -1    0    0    0  501 -0.00000000000E+00  0.00000000000E+00  0.34682834147E+02  0.34682834147E+02  0.00000000000E+00 0.  1.
          1   -1    0    0  501    0  0.00000000000E+00 -0.00000000000E+00 -0.48173441385E+03  0.48173441385E+03  0.00000000000E+00 0. -1.
         25    2    1    2    0    0  0.66587394807E+02 -0.27746953909E+02 -0.25726944706E+03  0.29502453577E+03  0.12509250065E+03 0.  0.
          5    1    3    3  502    0  0.89034821267E+02 -0.19618626601E+02 -0.97979536803E+02  0.13390127684E+03  0.41800000000E+01 0.  1.
         -5    1    3    3    0  502 -0.22447426459E+02 -0.81283273084E+01 -0.15928991025E+03  0.16112325893E+03  0.41800000000E+01 0.  1.
        -11    1    1    2    0    0 -0.25239794849E+02 -0.31962816300E+02 -0.57146240612E+02  0.70173796291E+02  0.00000000000E+00 0.  1.
         11    1    1    2    0    0 -0.41347599958E+02  0.59709770209E+02 -0.13263589204E+03  0.15121891594E+03  0.00000000000E+00 0. -1.
</event>
<event>
 7    1  0.2556591E-009  0.1181207E+03  0.7561462E-02  0.1246230E+00
          2   -1    0    0  501    0  0.00000000000E+00  0.00000000000E+00  0.10865377085E+04  0.10865377085E+04  0.00000000000E+00 0. -1.
         -2   -1    0    0    0  501 -0.00000000000E+00 -0.00000000000E+00 -0.18514073668E+02  0.18514073668E+02  0.00000000000E+00 0.  1.
         25    2    1    2    0    0  0.66093005569E+02  0.56839664435E+02  0.67171327183E+03  0.68880008579E+03  0.12509118989E+03 0.  0.
          5    1    3    3  502    0  0.22434104130E+02  0.81517490734E+02  0.55885760568E+03  0.56523241781E+03  0.41800000000E+01 0.  1.
         -5    1    3    3    0  502  0.43658901439E+02 -0.24677826299E+02  0.11285566616E+03  0.12356766798E+03  0.41800000000E+01 0.  1.
        -11    1    1    2    0    0 -0.11109662224E+02 -0.43213477732E+02  0.57717257689E+02  0.72952800410E+02  0.00000000000E+00 0.  1.
         11    1    1    2    0    0 -0.54983343345E+02 -0.13626186702E+02  0.33859310531E+03  0.34329889597E+03  0.00000000000E+00 0. -1.
</event>
<event>
 7    1  0.2556591E-009  0.9931203E+02  0.7561462E-02  0.1281749E+00
         -3   -1    0    0    0  501 -0.00000000000E+00  0.00000000000E+00  0.98011049878E+02  0.98011049878E+02  0.00000000000E+00 0.  1.
          3   -1    0    0  501    0  0.00000000000E+00 -0.00000000000E+00 -0.20486887976E+03  0.20486887976E+03  0.00000000000E+00 0. -1.
         25    2    1    2    0    0  0.57904466856E+02  0.55630427614E+02 -0.14237890626E+02  0.14932345374E+03  0.12508838695E+03 0.  0.
          5    1    3    3  502    0  0.11335754017E+02  0.53499902830E+02  0.47011775516E+02  0.72237928812E+02  0.41800000000E+01 0. -1.
         -5    1    3    3    0  502  0.46568712839E+02  0.21305247843E+01 -0.61249666141E+02  0.77085524930E+02  0.41800000000E+01 0. -1.
        -11    1    1    2    0    0 -0.62526095695E+02 -0.27229474180E+02 -0.13707911284E+02  0.69561941741E+02  0.00000000000E+00 0.  1.
         11    1    1    2    0    0  0.46216288391E+01 -0.28400953434E+02 -0.78912027970E+02  0.83994534152E+02  0.00000000000E+00 0. -1.
</event>
<event>
 7    1  0.2556591E-009  0.1515416E+03  0.7561462E-02  0.1198591E+00
         -3   -1    0    0    0  501 -0.00000000000E+00  0.00000000000E+00  0.11091543614E+04  0.11091543614E+04  0.00000000000E+00 0.  1.
          3   -1    0    0  501    0  0.00000000000E+00 -0.00000000000E+00 -0.27828554161E+02  0.27828554161E+02  0.00000000000E+00 0. -1.
         25    2    1    2    0    0  0.74026503401E+02 -0.11807902588E+03  0.62530425449E+03  0.65274223973E+03  0.12507774100E+03 0.  0.
          5    1    3    3  502    0  0.91605239709E+02 -0.81744269217E+02  0.57566717577E+03  0.58862875835E+03  0.41800000000E+01 0. -1.
         -5    1    3    3    0  502 -0.17578736308E+02 -0.36334756663E+02  0.49637078713E+02  0.64113481384E+02  0.41800000000E+01 0. -1.
        -11    1    1    2    0    0 -0.42209319760E+02  0.75587611030E+02  0.14624758185E+03  0.16995137190E+03  0.00000000000E+00 0.  1.
         11    1    1    2    0    0 -0.31817183640E+02  0.42491414850E+02  0.30977397094E+03  0.31428930396E+03  0.00000000000E+00 0. -1.
</event>
<event>
 7    1  0.2556591E-009  0.4788725E+03  0.7561462E-02  0.1019446E+00
         -2   -1    0    0    0  501 -0.00000000000E+00  0.00000000000E+00  0.52645360225E+03  0.52645360225E+03  0.00000000000E+00 0.  1.
          2   -1    0    0  501    0  0.00000000000E+00 -0.00000000000E+00 -0.52762721382E+03  0.52762721382E+03  0.00000000000E+00 0. -1.
         25    2    1    2    0    0 -0.33538589726E+03 -0.33584846690E+03 -0.20180025678E+03  0.53070256729E+03  0.12507589089E+03 0.  0.
          5    1    3    3  502    0 -0.47193477221E+01 -0.63619176638E+01  0.13839597945E+02  0.16484935868E+02  0.41800000000E+01 0.  1.
         -5    1    3    3    0  502 -0.33066654954E+03 -0.32948654924E+03 -0.21563985473E+03  0.51421763142E+03  0.41800000000E+01 0.  1.
        -11    1    1    2    0    0  0.68568836730E+02  0.12233238959E+03  0.76893025854E+02  0.15993572565E+03  0.00000000000E+00 0. -1.
         11    1    1    2    0    0  0.26681706053E+03  0.21351607731E+03  0.12373361936E+03  0.36344252313E+03  0.00000000000E+00 0.  1.
</event>
<event>
 7    1  0.2556591E-009  0.1244075E+03  0.7561462E-02  0.1235998E+00
         -2   -1    0    0    0  501 -0.00000000000E+00  0.00000000000E+00  0.86164318480E+02  0.86164318480E+02  0.00000000000E+00 0.  1.
          2   -1    0    0  501    0  0.00000000000E+00 -0.00000000000E+00 -0.35241537093E+03  0.35241537093E+03  0.00000000000E+00 0. -1.
         25    2    1    2    0    0 -0.74338817498E+02 -0.79787701795E+01 -0.28399305301E+03  0.31920373525E+03  0.12509616252E+03 0.  0.
          5    1    3    3  502    0  0.27579398018E+02  0.42815428198E+01 -0.16572925000E+02  0.32727496803E+02  0.41800000000E+01 0.  1.
         -5    1    3    3    0  502 -0.10191821552E+03 -0.12260312999E+02 -0.26742012801E+03  0.28647623845E+03  0.41800000000E+01 0.  1.
        -11    1    1    2    0    0  0.34674342025E+02  0.49498322479E+02  0.56745925780E+01  0.60700864278E+02  0.00000000000E+00 0. -1.
         11    1    1    2    0    0  0.39664475473E+02 -0.41519552300E+02  0.12067407981E+02  0.58675089886E+02  0.00000000000E+00 0.  1.
</event>
<event>
 7    1  0.2556591E-009  0.1113354E+03  0.7561462E-02  0.1258117E+00
          1   -1    0    0  501    0  0.00000000000E+00  0.00000000000E+00  0.38655778621E+02  0.38655778621E+02  0.00000000000E+00 0. -1.
         -1   -1    0    0    0  501 -0.00000000000E+00 -0.00000000000E+00 -0.44376399377E+03  0.44376399377E+03  0.00000000000E+00 0.  1.
         25    2    1    2    0    0 -0.52788592580E+01 -0.61157224037E+02 -0.29526229381E+03  0.32648866352E+03  0.12508778058E+03 0.  0.
          5    1    3    3  502    0 -0.49097747212E+02 -0.26210728075E+02 -0.24438595634E+03  0.25067819830E+03  0.41800000000E+01 0.  1.
         -5    1    3    3    0  502  0.43818887954E+02 -0.34946495962E+02 -0.50876337475E+02  0.75810465217E+02  0.41800000000E+01 0.  1.
        -11    1    1    2    0    0  0.26351105026E+02 -0.15894373764E+02 -0.31808598310E+02  0.44258318765E+02  0.00000000000E+00 0.  1.
         11    1    1    2    0    0 -0.21072245768E+02  0.77051597801E+02 -0.78037323024E+02  0.11167279011E+03  0.00000000000E+00 0. -1.
</event>
<event>
 7    1  0.2556591E-009  0.1539339E+03  0.7561462E-02  0.1195721E+00
          2   -1    0    0  501    0  0.00000000000E+00  0.00000000000E+00  0.14082738343E+04  0.14082738343E+04  0.00000000000E+00 0. -1.
         -2   -1    0    0    0  501 -0.00000000000E+00 -0.00000000000E+00 -0.26175541862E+02  0.26175541862E+02  0.00000000000E+00 0.  1.
         25    2    1    2    0    0  0.97815386602E+02 -0.76074495538E+02  0.10900936624E+04  0.11042221971E+04  0.12508912419E+03 0.  0.
          5    1    3    3  502    0  0.10642762985E+03 -0.28824512579E+02  0.49356169898E+03  0.50574530747E+03  0.41800000000E+01 0.  1.
         -5    1    3    3    0  502 -0.86122432484E+01 -0.47249982960E+02  0.59653196341E+03  0.59847688960E+03  0.41800000000E+01 0.  1.
        -11    1    1    2    0    0 -0.68941574629E+02  0.10737181221E+01  0.17672122448E+03  0.18969576897E+03  0.00000000000E+00 0.  1.
         11    1    1    2    0    0 -0.28873811973E+02  0.75000777416E+02  0.11528340555E+03  0.14053141010E+03  0.00000000000E+00 0. -1.
</event>
<event>
 7    1  0.2556591E-009  0.1663965E+03  0.7561462E-02  0.1181659E+00
          2   -1    0    0  501    0  0.00000000000E+00  0.00000000000E+00  0.54322182863E+03  0.54322182863E+03  0.00000000000E+00 0. -1.
         -2   -1    0    0    0  501 -0.00000000000E+00 -0.00000000000E+00 -0.88561980630E+02  0.88561980630E+02  0.00000000000E+00 0.  1.
         25    2    1    2    0    0  0.53634409369E+02  0.13409975972E+03  0.41550865497E+03  0.45733372674E+03  0.12508916755E+03 0.  0.
          5    1    3    3  502    0  0.75158492323E+02  0.12305691921E+03  0.40624075540E+03  0.43109259803E+03  0.41800000000E+01 0.  1.
         -5    1    3    3    0  502 -0.21524082955E+02  0.11042840511E+02  0.92678995737E+01  0.26241128712E+02  0.41800000000E+01 0.  1.
        -11    1    1    2    0    0 -0.69253396130E+01  0.10193700234E+02 -0.90722418787E+01  0.15302856789E+02  0.00000000000E+00 0.  1.
         11    1    1    2    0    0 -0.46709069756E+02 -0.14429345995E+03  0.48223434911E+02  0.15914722573E+03  0.00000000000E+00 0. -1.
</event>
<event>
 7    1  0.2556591E-009  0.1225994E+03  0.7561462E-02  0.1238869E+00
          2   -1    0    0  501    0  0.00000000000E+00  0.00000000000E+00  0.70460486243E+03  0.70460486243E+03  0.00000000000E+00 0. -1.
         -2   -1    0    0    0  501 -0.00000000000E+00 -0.00000000000E+00 -0.36168695649E+02  0.36168695649E+02  0.00000000000E+00 0.  1.
         25    2    1    2    0    0  0.58275917022E+02  0.94513224390E+02  0.45469217721E+03  0.48448055805E+03  0.12509037941E+03 0.  0.
          5    1    3    3  502    0  0.73831714693E+02  0.83187832602E+02  0.19885057458E+03  0.22788234026E+03  0.41800000000E+01 0.  1.
         -5    1    3    3    0  502 -0.15555797671E+02  0.11325391788E+02  0.25584160263E+03  0.25659821779E+03  0.41800000000E+01 0.  1.
        -11    1    1    2    0    0 -0.48957482966E+01 -0.30331887094E+02  0.45519706794E+01  0.31059815891E+02  0.00000000000E+00 0.  1.
         11    1    1    2    0    0 -0.53380168725E+02 -0.64181337296E+02  0.20919201889E+03  0.22523318414E+03  0.00000000000E+00 0. -1.
</event>
<event>
 7    1  0.2556591E-009  0.1004514E+03  0.7561462E-02  0.1279350E+00
         -2   -1    0    0    0  501 -0.00000000000E+00  0.00000000000E+00  0.23513463858E+02  0.23513463858E+02  0.00000000000E+00 0.  1.
          2   -1    0    0  501    0  0.00000000000E+00 -0.00000000000E+00 -0.80371165130E+03  0.80371165130E+03  0.00000000000E+00 0. -1.
         25    2    1    2    0    0 -0.37854898279E+02  0.47783992917E+02 -0.61433276091E+03  0.62989478016E+03  0.12508552933E+03 0.  0.
          5    1    3    3  502    0 -0.51262723332E+02  0.63452076524E+02 -0.21475477312E+03  0.22976317763E+03  0.41800000000E+01 0. -1.
         -5    1    3    3    0  502  0.13407825053E+02 -0.15668083607E+02 -0.39957798779E+03  0.40013160253E+03  0.41800000000E+01 0. -1.
        -11    1    1    2    0    0  0.53204900126E+02 -0.58481052743E+01 -0.12814570709E+03  0.13887506608E+03  0.00000000000E+00 0. -1.
         11    1    1    2    0    0 -0.15350001848E+02 -0.41935887643E+02 -0.37719719440E+02  0.58455268913E+02  0.00000000000E+00 0.  1.
</event>
<event>
 7    1  0.2556591E-009  0.8301462E+02  0.7561462E-02  0.1320708E+00
         -1   -1    0    0    0  501 -0.00000000000E+00  0.00000000000E+00  0.55539683361E+02  0.55539683361E+02  0.00000000000E+00 0.  1.
          1   -1    0    0  501    0  0.00000000000E+00 -0.00000000000E+00 -0.23904785495E+03  0.23904785495E+03  0.00000000000E+00 0. -1.
         25    2    1    2    0    0 -0.32035558077E+02  0.21967219566E+02 -0.10578778917E+03  0.16836643430E+03  0.12508942459E+03 0.  0.
          5    1    3    3  502    0  0.23123391809E+02 -0.21395687959E+02 -0.91203763848E+02  0.96581911619E+02  0.41800000000E+01 0.  1.
         -5    1    3    3    0  502 -0.55158949885E+02  0.43362907524E+02 -0.14584025320E+02  0.71784522677E+02  0.41800000000E+01 0.  1.
        -11    1    1    2    0    0  0.23405729874E+02  0.13798367883E+02  0.11658454205E+02  0.29565904377E+02  0.00000000000E+00 0.  1.
         11    1    1    2    0    0  0.86298282022E+01 -0.35765587449E+02 -0.89378836626E+02  0.96655199638E+02  0.00000000000E+00 0. -1.
</event>
<event>
 7    1  0.2556591E-009  0.1245640E+03  0.7561462E-02  0.1235752E+00
         -1   -1    0    0    0  501 -0.00000000000E+00  0.00000000000E+00  0.15090730316E+03  0.15090730316E+03  0.00000000000E+00 0.  1.
          1   -1    0    0  501    0  0.00000000000E+00 -0.00000000000E+00 -0.11565187675E+03  0.11565187675E+03  0.00000000000E+00 0. -1.
         25    2    1    2    0    0  0.36852483795E+02  0.54164976535E+02 -0.16522514133E+02  0.14217310845E+03  0.12509296163E+03 0.  0.
          5    1    3    3  502    0  0.49483062667E+02  0.89992775452E+02 -0.15451409168E+02  0.10393984592E+03  0.41800000000E+01 0. -1.
         -5    1    3    3    0  502 -0.12630578872E+02 -0.35827798917E+02 -0.10711049657E+01  0.38233262530E+02  0.41800000000E+01 0. -1.
        -11    1    1    2    0    0 -0.64091274546E+02 -0.48321491339E+02  0.53520123004E+02  0.96473113168E+02  0.00000000000E+00 0.  1.
         11    1    1    2    0    0  0.27238790750E+02 -0.58434851967E+01 -0.17421824557E+01  0.27912958290E+02  0.00000000000E+00 0. -1.
</event>
<event>
 7    1  0.2556591E-009  0.1142231E+03  0.7561462E-02  0.1252943E+00
          2   -1    0    0  501    0  0.00000000000E+00  0.00000000000E+00  0.15643782313E+03  0.15643782313E+03  0.00000000000E+00 0. -1.
         -2   -1    0    0    0  501 -0.00000000000E+00 -0.00000000000E+00 -0.90713882186E+02  0.90713882186E+02  0.00000000000E+00 0.  1.
         25    2    1    2    0    0  0.12900997256E+02 -0.39572008422E+02  0.63099868351E+02  0.14616251544E+03  0.12509799341E+03 0.  0.
          5    1    3    3  502    0  0.39740976253E+02  0.33412834598E+02  0.13419923513E+02  0.53789677974E+02  0.41800000000E+01 0.  1.
         -5    1    3    3    0  502 -0.26839978997E+02 -0.72984843021E+02  0.49679944838E+02  0.92372837471E+02  0.41800000000E+01 0.  1.
        -11    1    1    2    0    0  0.22162294678E+02 -0.19675539047E+02  0.11051940902E+02  0.31629725575E+02  0.00000000000E+00 0. -1.
         11    1    1    2    0    0 -0.35063291935E+02  0.59247547470E+02 -0.84278683138E+01  0.69359464291E+02  0.00000000000E+00 0.  1.
</event>
<event>
 7    1  0.2556591E-009  0.7874897E+02  0.7561462E-02  0.1332640E+00
         -3   -1    0    0    0  501 -0.00000000000E+00  0.00000000000E+00  0.17711428839E+03  0.17711428839E+03  0.00000000000E+00 0. -1.
          3   -1    0    0  501    0  0.00000000000E+00 -0.00000000000E+00 -0.10556115115E+03  0.10556115115E+03  0.00000000000E+00 0.  1.
         25    2    1    2    0    0  0.59324876994E+02 -0.26893380134E+02 -0.10645684162E+02  0.14143629801E+03  0.12509276909E+03 0.  0.
          5    1    3    3  502    0  0.29737400370E+02 -0.23143909508E+02  0.56387825665E+02  0.67948604190E+02  0.41800000000E+01 0.  1.
         -5    1    3    3    0  502  0.29587476624E+02 -0.37494706260E+01 -0.67033509827E+02  0.73487693818E+02  0.41800000000E+01 0.  1.
        -11    1    1    2    0    0 -0.45747468844E+01 -0.18058742239E+02  0.65989381889E+02  0.68568542368E+02  0.00000000000E+00 0. -1.
         11    1    1    2    0    0 -0.54750130110E+02  0.44952122373E+02  0.16209439515E+02  0.72670599160E+02  0.00000000000E+00 0.  1.
</event>
<event>
 7    1  0.2556591E-009  0.8327117E+02  0.7561462E-02  0.1320017E+00
          1   -1    0    0  501    0  0.00000000000E+00  0.00000000000E+00  0.27393291672E+03  0.27393291672E+03  0.00000000000E+00 0. -1.
         -1   -1    0    0    0  501 -0.00000000000E+00 -0.00000000000E+00 -0.46832085011E+02  0.46832085011E+02  0.00000000000E+00 0.  1.
         25    2    1    2    0    0 -0.12662619578E+01 -0.13587875370E+02  0.17297902293E+03  0.21390464595E+03  0.12508885405E+03 0.  0.
          5    1    3    3  502    0  0.48215932203E+02  0.31045998069E+02  0.96955942730E+02  0.11272336645E+03  0.41800000000E+01 0. -1.
         -5    1    3    3    0  502 -0.49482194161E+02 -0.44633873439E+02  0.76023080198E+02  0.10118127949E+03  0.41800000000E+01 0. -1.
        -11    1    1    2    0    0 -0.10440786446E+02 -0.10923487321E+02 -0.21630069121E+02  0.26385459765E+02  0.00000000000E+00 0.  1.
         11    1    1    2    0    0  0.11707048404E+02  0.24511362691E+02  0.75751877905E+02  0.80474896020E+02  0.00000000000E+00 0. -1.
</event>
<event>
 7    1  0.2556591E-009  0.7164082E+02  0.7561462E-02  0.1354601E+00
          1   -1    0    0  501    0  0.00000000000E+00  0.00000000000E+00  0.43568986213E+03  0.43568986213E+03  0.00000000000E+00 0. -1.
         -1   -1    0    0    0  501 -0.00000000000E+00 -0.00000000000E+00 -0.32755136578E+02  0.32755136578E+02  0.00000000000E+00 0.  1.
         25    2    1    2    0    0 -0.47632152340E+02 -0.19150506715E+02  0.23034916308E+03  0.26710124594E+03  0.12508706889E+03 0.  0.
          5    1    3    3  502    0 -0.15132738557E+02 -0.98398239891E+01 -0.12191965313E+02  0.22179682833E+02  0.41800000000E+01 0.  1.
         -5    1    3    3    0  502 -0.32499413783E+02 -0.93106827263E+01  0.24254112840E+03  0.24492156310E+03  0.41800000000E+01 0.  1.
        -11    1    1    2    0    0  0.32096337066E+02  0.48105236752E+02  0.57080377723E+02  0.81255511671E+02  0.00000000000E+00 0.  1.
         11    1    1    2    0    0  0.15535815274E+02 -0.28954730036E+02  0.11550518475E+03  0.12008824110E+03  0.00000000000E+00 0. -1.
</event>
<event>
 7    1  0.2556591E-009  0.2123352E+03  0.7561462E-02  0.1139730E+00
          2   -1    0    0  501    0  0.00000000000E+00  0.00000000000E+00  0.54399514692E+03  0.54399514692E+03  0.00000000000E+00 0. -1.
         -2   -1    0    0    0  501 -0.00000000000E+00 -0.00000000000E+00 -0.11743457294E+03  0.11743457294E+03  0.00000000000E+00 0.  1.
         25    2    1    2    0    0  0.18715232160E+03  0.78246497207E+02  0.83311480733E+02  0.25246325756E+03  0.12509351618E+03 0.  0.
          5    1    3    3  502    0  0.16825409145E+03  0.67173755999E+02  0.16426191509E+02  0.18195891007E+03  0.41800000000E+01 0.  1.
         -5    1    3    3    0  502  0.18898230148E+02  0.11072741208E+02  0.66885289224E+02  0.70504347492E+02  0.41800000000E+01 0.  1.
        -11    1    1    2    0    0 -0.86610387361E+02 -0.83727969649E+02  0.16584341216E+03  0.20497748524E+03  0.00000000000E+00 0.  1.
         11    1    1    2    0    0 -0.10054193424E+03  0.54814724421E+01  0.17740568109E+03  0.20398897707E+03  0.00000000000E+00 0. -1.
</event>
<event>
 7    1  0.2556591E-009  0.1021616E+03  0.7561462E-02  0.1275815E+00
          2   -1    0    0  501    0  0.00000000000E+00  0.00000000000E+00  0.99168676728E+02  0.99168676728E+02  0.00000000000E+00 0. -1.
         -2   -1    0    0    0  501 -0.00000000000E+00 -0.00000000000E+00 -0.18674483276E+03  0.18674483276E+03  0.00000000000E+00 0.  1.
         25    2    1    2    0    0 -0.33862553907E+02  0.41036204215E+02  0.17212619740E+02  0.13701685242E+03  0.12508677370E+03 0.  0.
          5    1    3    3  502    0 -0.55766853805E+02 -0.76249196207E+01 -0.31505372603E+02  0.64638551077E+02  0.41800000000E+01 0.  1.
         -5    1    3    3    0  502  0.21904299898E+02  0.48661123836E+02  0.48717992342E+02  0.72378301340E+02  0.41800000000E+01 0.  1.
        -11    1    1    2    0    0  0.57675536060E+02 -0.16111927897E+02 -0.96291125354E+02  0.11339330890E+03  0.00000000000E+00 0.  1.
         11    1    1    2    0    0 -0.23812982154E+02 -0.24924276318E+02 -0.84976504191E+01  0.35503348176E+02  0.00000000000E+00 0. -1.
</event>
<event>
 7    1  0.2556591E-009  0.1109731E+03  0.7561462E-02  0.1258778E+00
          1   -1    0    0  501    0  0.00000000000E+00  0.00000000000E+00  0.73791890674E+03  0.73791890674E+03  0.00000000000E+00 0. -1.
         -1   -1    0    0    0  501 -0.00000000000E+00 -0.00000000000E+00 -0.20464373902E+02  0.20464373902E+02  0.00000000000E+00 0.  1.
         25    2    1    2    0    0  0.17256572363E+02 -0.53470162766E+02  0.37933758195E+03  0.40336278818E+03  0.12509072792E+03 0.  0.
          5    1    3    3  502    0  0.12477861347E+02 -0.85166922736E+02  0.16070371392E+03  0.18235201622E+03  0.41800000000E+01 0.  1.
         -5    1    3    3    0  502  0.47787110160E+01  0.31696759970E+02  0.21863386803E+03  0.22101077196E+03  0.41800000000E+01 0.  1.
        -11    1    1    2    0    0 -0.11631078673E+02  0.77701119266E+02  0.20380474533E+03  0.21842417482E+03  0.00000000000E+00 0.  1.
         11    1    1    2    0    0 -0.56254936898E+01 -0.24230956500E+02  0.13431220556E+03  0.13659631764E+03  0.00000000000E+00 0. -1.
</event>
<event>
 7    1  0.2556591E-009  0.9852397E+02  0.7561462E-02  0.1283431E+00
          1   -1    0    0  501    0  0.00000000000E+00  0.00000000000E+00  0.18755624592E+04  0.18755624592E+04  0.00000000000E+00 0. -1.
         -1   -1    0    0    0  501 -0.00000000000E+00 -0.00000000000E+00 -0.19060171113E+02  0.19060171113E+02  0.00000000000E+00 0.  1.
         25    2    1    2    0    0 -0.42405542270E+01  0.39145371328E+02  0.17228662092E+04  0.17278496122E+04  0.12508383266E+03 0.  0.
          5    1    3    3  502    0  0.49847896075E+02  0.28381333128E+02  0.43360547636E+03  0.43740312566E+03  0.41800000000E+01 0.  1.
         -5    1    3    3    0  502 -0.54088450302E+02  0.10764038200E+02  0.12892607328E+04  0.12904464865E+04  0.41800000000E+01 0.  1.
        -11    1    1    2    0    0 -0.34896900440E+02 -0.23535301556E+02  0.11149200787E+03  0.11917286561E+03  0.00000000000E+00 0. -1.
         11    1    1    2    0    0  0.39137454667E+02 -0.15610069772E+02  0.22144071013E+02  0.47600152491E+02  0.00000000000E+00 0.  1.
</event>
<event>
 7    1  0.2556591E-009  0.1106981E+03  0.7561462E-02  0.1259282E+00
          2   -1    0    0  501    0  0.00000000000E+00  0.00000000000E+00  0.42366741380E+03  0.42366741380E+03  0.00000000000E+00 0. -1.
         -2   -1    0    0    0  501 -0.00000000000E+00 -0.00000000000E+00 -0.34949300257E+02  0.34949300257E+02  0.00000000000E+00 0.  1.
         25    2    1    2    0    0 -0.31949312058E+02 -0.41064262699E+02  0.25551178926E+03  0.28920601316E+03  0.12508721511E+03 0.  0.
          5    1    3    3  502    0  0.22976208138E+02 -0.62809705093E+02  0.18701385803E+03  0.19865704289E+03  0.41800000000E+01 0.  1.
         -5    1    3    3    0  502 -0.54925520196E+02  0.21745442395E+02  0.68497931227E+02  0.90548970265E+02  0.41800000000E+01 0.  1.
        -11    1    1    2    0    0  0.52718356698E+02  0.42420658150E+01  0.10783388588E+03  0.12010565015E+03  0.00000000000E+00 0. -1.
         11    1    1    2    0    0 -0.20769044640E+02  0.36822196884E+02  0.25372438408E+02  0.49305050749E+02  0.00000000000E+00 0.  1.
</event>
<event>
 7    1  0.2556591E-009  0.1037835E+03  0.7561462E-02  0.1272535E+00
          1   -1    0    0  501    0  0.00000000000E+00  0.00000000000E+00  0.91053614287E+03  0.91053614287E+03  0.00000000000E+00 0. -1.
         -1   -1    0    0    0  501 -0.00000000000E+00 -0.00000000000E+00 -0.16468405874E+02  0.16468405874E+02  0.00000000000E+00 0.  1.
         25    2    1    2    0    0  0.35642715522E+02 -0.10385964820E+02  0.65894411137E+03  0.67173984501E+03  0.12509518788E+03 0.  0.
          5    1    3    3  502    0 -0.33780243762E+02 -0.41713835347E+02  0.24806828231E+03  0.25384344391E+03  0.41800000000E+01 0.  1.
         -5    1    3    3    0  502  0.69422959284E+02  0.31327870527E+02  0.41087582906E+03  0.41789640110E+03  0.41800000000E+01 0.  1.
        -11    1    1    2    0    0  0.87522905084E+00  0.33967784061E+02  0.29197375816E+02  0.44800258197E+02  0.00000000000E+00 0.  1.
         11    1    1    2    0    0 -0.36517944573E+02 -0.23581819241E+02  0.20592624981E+03  0.21046444554E+03  0.00000000000E+00 0. -1.
</event>
<event>
 7    1  0.2556591E-009  0.8661559E+02  0.7561462E-02  0.1311261E+00
          2   -1    0    0  501    0  0.00000000000E+00  0.00000000000E+00  0.31966825622E+02  0.31966825622E+02  0.00000000000E+00 0. -1.
         -2   -1    0    0    0  501 -0.00000000000E+00 -0.00000000000E+00 -0.63691933765E+03  0.63691933765E+03  0.00000000000E+00 0.  1.
         25    2    1    2    0    0  0.45605970169E+01 -0.88468104882E+01 -0.54586274028E+03  0.56010017790E+03  0.12508802085E+03 0.  0.
          5    1    3    3  502    0  0.38223259108E+02  0.14739228485E+02 -0.48376289560E+03  0.48551238291E+03  0.41800000000E+01 0.  1.
         -5    1    3    3    0  502 -0.33662662091E+02 -0.23586038974E+02 -0.62099844676E+02  0.74587794996E+02  0.41800000000E+01 0.  1.
        -11    1    1    2    0    0  0.25253405354E+02 -0.31623913206E+02 -0.32596604618E+02  0.51964843895E+02  0.00000000000E+00 0.  1.
         11    1    1    2    0    0 -0.29814002371E+02  0.40470723695E+02 -0.26493167130E+02  0.56821141473E+02  0.00000000000E+00 0. -1.
</event>
<event>
 7    1  0.2556591E-009  0.1104931E+03  0.7561462E-02  0.1259659E+00
          1   -1    0    0  501    0  0.00000000000E+00  0.00000000000E+00  0.46918648053E+03  0.46918648053E+03  0.00000000000E+00 0. -1.
         -1   -1    0    0    0  501 -0.00000000000E+00 -0.00000000000E+00 -0.29359596886E+02  0.29359596886E+02  0.00000000000E+00 0.  1.
         25    2    1    2    0    0  0.31122258891E+02  0.24424479752E+02  0.20382245248E+03  0.24239728198E+03  0.12509076691E+03 0.  0.
          5    1    3    3  502    0  0.46233924133E+02 -0.41886152612E+02  0.86668272060E+02  0.10686855152E+03  0.41800000000E+01 0. -1.
         -5    1    3    3    0  502 -0.15111665243E+02  0.66310632365E+02  0.11715418042E+03  0.13552873046E+03  0.41800000000E+01 0. -1.
        -11    1    1    2    0    0  0.21924441700E+01  0.28065759101E+02  0.30770208909E+02  0.41704908604E+02  0.00000000000E+00 0.  1.
         11    1    1    2    0    0 -0.33314703061E+02 -0.52490238854E+02  0.20523422226E+03  0.21444388683E+03  0.00000000000E+00 0. -1.
</event>
<event>
 7    1  0.2556591E-009  0.1835742E+03  0.7561462E-02  0.1164388E+00
          1   -1    0    0  501    0  0.00000000000E+00  0.00000000000E+00  0.32416391446E+03  0.32416391446E+03  0.00000000000E+00 0. -1.
         -1   -1    0    0    0  501 -0.00000000000E+00 -0.00000000000E+00 -0.11704950148E+03  0.11704950148E+03  0.00000000000E+00 0.  1.
         25    2    1    2    0    0  0.10967360069E+03 -0.10953153686E+03  0.15976307699E+03  0.25533795339E+03  0.12509106051E+03 0.  0.
          5    1    3    3  502    0 -0.13993569052E+02 -0.53736870284E+02  0.81341823972E+02  0.98577055798E+02  0.41800000000E+01 0. -1.
         -5    1    3    3    0  502  0.12366716974E+03 -0.55794666575E+02  0.78421253015E+02  0.15676089760E+03  0.41800000000E+01 0. -1.
        -11    1    1    2    0    0  0.99065946111E+01  0.31298828655E+02 -0.59432840374E+01  0.33362852352E+02  0.00000000000E+00 0.  1.
         11    1    1    2    0    0 -0.11958019530E+03  0.78232708204E+02  0.53294620032E+02  0.15251261019E+03  0.00000000000E+00 0. -1.
</event>
<event>
 7    1  0.2556591E-009  0.2297273E+03  0.7561462E-02  0.1126832E+00
          2   -1    0    0  501    0  0.00000000000E+00  0.00000000000E+00  0.10220319518E+04  0.10220319518E+04  0.00000000000E+00 0. -1.
         -2   -1    0    0    0  501 -0.00000000000E+00 -0.00000000000E+00 -0.59137753657E+02  0.59137753657E+02  0.00000000000E+00 0.  1.
         25    2    1    2    0    0  0.14623627001E+03  0.16576428469E+03  0.52536549458E+03  0.58354011317E+03  0.12508923227E+03 0.  0.
          5    1    3    3  502    0  0.44840944864E+02  0.69607680151E+02  0.34779787155E+03  0.35754268463E+03  0.41800000000E+01 0.  1.
         -5    1    3    3    0  502  0.10139532515E+03  0.96156604543E+02  0.17756762303E+03  0.22599742854E+03  0.41800000000E+01 0.  1.
        -11    1    1    2    0    0 -0.12785945474E+03 -0.84096564638E+02  0.27015798469E+03  0.31049252655E+03  0.00000000000E+00 0.  1.
         11    1    1    2    0    0 -0.18376815270E+02 -0.81667720056E+02  0.16737071885E+03  0.18713706572E+03  0.00000000000E+00 0. -1.
</event>
<event>
 7    1  0.2556591E-009  0.1083971E+03  0.7561462E-02  0.1263567E+00
         -1   -1    0    0    0  501 -0.00000000000E+00  0.00000000000E+00  0.16399677368E+02  0.16399677368E+02  0.00000000000E+00 0.  1.
          1   -1    0    0  501    0  0.00000000000E+00 -0.00000000000E+00 -0.10941806600E+04  0.10941806600E+04  0.00000000000E+00 0. -1.
         25    2    1    2    0    0  0.26239876532E+02 -0.73783130994E+02 -0.59817415507E+03  0.61611034750E+03  0.12508860441E+03 0.  0.
          5    1    3    3  502    0 -0.17737076874E+02 -0.22841081810E+02 -0.23508885199E+02  0.37502786531E+02  0.41800000000E+01 0. -1.
         -5    1    3    3    0  502  0.43976953405E+02 -0.50942049184E+02 -0.57466526987E+03  0.57860756096E+03  0.41800000000E+01 0. -1.
        -11    1    1    2    0    0 -0.51627095896E+02  0.11506311709E+02 -0.19789687845E+03  0.20484366414E+03  0.00000000000E+00 0.  1.
         11    1    1    2    0    0  0.25387219364E+02  0.62276819285E+02 -0.28170994907E+03  0.28962632569E+03  0.00000000000E+00 0. -1.
</event>
<event>
 7    1  0.2556591E-009  0.1138542E+03  0.7561462E-02  0.1253594E+00
         -1   -1    0    0    0  501 -0.00000000000E+00  0.00000000000E+00  0.22268239667E+02  0.22268239667E+02  0.00000000000E+00 0.  1.
          1   -1    0    0  501    0  0.00000000000E+00 -0.00000000000E+00 -0.75621494907E+03  0.75621494907E+03  0.00000000000E+00 0. -1.
         25    2    1    2    0    0 -0.56988000342E+02 -0.38221810544E+02 -0.46856236944E+03  0.48980344169E+03  0.12509267945E+03 0.  0.
          5    1    3    3  502    0 -0.42857700249E+01  0.29197123888E+02 -0.29236689882E+03  0.29388214610E+03  0.41800000000E+01 0. -1.
         -5    1    3    3    0  502 -0.52702230317E+02 -0.67418934432E+02 -0.17619547062E+03  0.19592129560E+03  0.41800000000E+01 0. -1.
        -11    1    1    2    0    0 -0.13131630189E+02  0.39985385806E+02 -0.12206793377E+03  0.12911952310E+03  0.00000000000E+00 0. -1.
         11    1    1    2    0    0  0.70119630532E+02 -0.17635752616E+01 -0.14331640618E+03  0.15956022394E+03  0.00000000000E+00 0.  1.
</event>
<event>
 7    1  0.2556591E-009  0.1080961E+03  0.7561462E-02  0.1264137E+00
         -4   -1    0    0    0  501 -0.00000000000E+00  0.00000000000E+00  0.31639595530E+03  0.31639595530E+03  0.00000000000E+00 0.  1.
          4   -1    0    0  501    0  0.00000000000E+00 -0.00000000000E+00 -0.43346939396E+02  0.43346939396E+02  0.00000000000E+00 0. -1.
         25    2    1    2    0    0 -0.56846904137E+01 -0.53726534206E+02  0.18031790747E+03  0.22601151348E+03  0.12509116790E+03 0.  0.
          5    1    3    3  502    0 -0.54663227647E+02 -0.51288732465E+02  0.15123642668E+03  0.16884469695E+03  0.41800000000E+01 0.  1.
         -5    1    3    3    0  502  0.48978537234E+02 -0.24378017408E+01  0.29081480799E+02  0.57166816531E+02  0.41800000000E+01 0.  1.
        -11    1    1    2    0    0 -0.36690548441E+01 -0.18607118767E+02  0.49446716849E+01  0.19599403316E+02  0.00000000000E+00 0. -1.
         11    1    1    2    0    0  0.93537452578E+01  0.72333652973E+02  0.87786436743E+02  0.11413197790E+03  0.00000000000E+00 0.  1.
</event>
<event>
 7    1  0.2556591E-009  0.1656172E+03  0.7561462E-02  0.1182497E+00
          1   -1    0    0  501    0  0.00000000000E+00  0.00000000000E+00  0.12412525472E+03  0.12412525472E+03  0.00000000000E+00 0. -1.
         -1   -1    0    0    0  501 -0.00000000000E+00 -0.00000000000E+00 -0.31976308551E+03  0.31976308551E+03  0.00000000000E+00 0.  1.
         25    2    1    2    0    0  0.13219377088E+03  0.85343979987E+02 -0.41183672775E+02  0.20519774782E+03  0.12510488730E+03 0.  0.
          5    1    3    3  502    0 -0.64262149398E+01  0.16573123141E+02 -0.46863770805E+02  0.50295626680E+02  0.41800000000E+01 0.  1.
         -5    1    3    3    0  502  0.13861998582E+03  0.68770856846E+02  0.56800980302E+01  0.15490212114E+03  0.41800000000E+01 0.  1.
        -11    1    1    2    0    0 -0.10784146005E+03 -0.61752146868E+02 -0.59334694094E+02  0.13770880172E+03  0.00000000000E+00 0. -1.
         11    1    1    2    0    0 -0.24352310825E+02 -0.23591833120E+02 -0.95119463923E+02  0.10098179068E+03  0.00000000000E+00 0.  1.
</event>
<event>
 7    1  0.2556591E-009  0.1253019E+03  0.7561462E-02  0.1234598E+00
         -1   -1    0    0    0  501 -0.00000000000E+00  0.00000000000E+00  0.49128790332E+02  0.49128790332E+02  0.00000000000E+00 0.  1.
          1   -1    0    0  501    0  0.00000000000E+00 -0.00000000000E+00 -0.46287530757E+03  0.46287530757E+03  0.00000000000E+00 0. -1.
         25    2    1    2    0    0 -0.38509835408E+02  0.91731976546E+02 -0.16540481614E+03  0.23000822293E+03  0.12508903418E+03 0.  0.
          5    1    3    3  502    0  0.12466018289E+02  0.48526085395E+02 -0.15411674445E+03  0.16210991918E+03  0.41800000000E+01 0. -1.
         -5    1    3    3    0  502 -0.50975853697E+02  0.43205891150E+02 -0.11288071685E+02  0.67898303754E+02  0.41800000000E+01 0. -1.
        -11    1    1    2    0    0 -0.12279812077E+01  0.17291390073E+02 -0.27105584821E+02  0.32174723573E+02  0.00000000000E+00 0.  1.
         11    1    1    2    0    0  0.39737816616E+02 -0.10902336662E+03 -0.22123611628E+03  0.24982115139E+03  0.00000000000E+00 0. -1.
</event>
<event>
 7    1  0.2556591E-009  0.1117108E+03  0.7561462E-02  0.1257434E+00
          1   -1    0    0  501    0  0.00000000000E+00  0.00000000000E+00  0.29761986317E+03  0.29761986317E+03  0.00000000000E+00 0. -1.
         -1   -1    0    0    0  501 -0.00000000000E+00 -0.00000000000E+00 -0.64282086964E+02  0.64282086964E+02  0.00000000000E+00 0.  1.
         25    2    1    2    0    0 -0.13501492599E+01  0.25810167006E+02  0.49222339958E+02  0.13689398356E+03  0.12509650819E+03 0.  0.
          5    1    3    3  502    0 -0.37164172907E+02  0.45074116856E+02 -0.15278737790E+02  0.60529034245E+02  0.41800000000E+01 0. -1.
         -5    1    3    3    0  502  0.35814023647E+02 -0.19263949850E+02  0.64501077747E+02  0.76364949317E+02  0.41800000000E+01 0. -1.
        -11    1    1    2    0    0 -0.22467607560E+02 -0.70139064662E+02  0.13953317317E+03  0.15777765430E+03  0.00000000000E+00 0.  1.
         11    1    1    2    0    0  0.23817756820E+02  0.44328897657E+02  0.44582263082E+02  0.67230312278E+02  0.00000000000E+00 0. -1.
</event>
<event>
 7    1  0.2556591E-009  0.9390315E+02  0.7561462E-02  0.1293666E+00
         -1   -1    0    0    0  501 -0.00000000000E+00  0.00000000000E+00  0.12630528990E+03  0.12630528990E+03  0.00000000000E+00 0.  1.
          1   -1    0    0  501    0  0.00000000000E+00 -0.00000000000E+00 -0.15437223660E+03  0.15437223660E+03  0.00000000000E+00 0. -1.
         25    2    1    2    0    0 -0.52640736646E+02  0.12309464353E+02 -0.84712878815E+02  0.16046228299E+03  0.12509717166E+03 0.  0.
          5    1    3    3  502    0 -0.81112169073E+02  0.17890610780E+01 -0.97803838500E+02  0.12714341484E+03  0.41800000000E+01 0.  1.
         -5    1    3    3    0  502  0.28471432427E+02  0.10520403275E+02  0.13090959685E+02  0.33318868153E+02  0.41800000000E+01 0.  1.
        -11    1    1    2    0    0  0.20422026581E+02  0.21203619936E+02  0.66472440307E+02  0.72699642285E+02  0.00000000000E+00 0.  1.
         11    1    1    2    0    0  0.32218710065E+02 -0.33513084289E+02 -0.98265081903E+01  0.47515601228E+02  0.00000000000E+00 0. -1.
</event>
<event>
 7    1  0.2556591E-009  0.1354700E+03  0.7561462E-02  0.1219558E+00
         -1   -1    0    0    0  501 -0.00000000000E+00  0.00000000000E+00  0.29812209512E+03  0.29812209512E+03  0.00000000000E+00 0.  1.
          1   -1    0    0  501    0  0.00000000000E+00 -0.00000000000E+00 -0.85733529476E+02  0.85733529476E+02  0.00000000000E+00 0. -1.
         25    2    1    2    0    0 -0.90286626054E+02  0.71657180946E+02  0.87344456208E+02  0.19121364100E+03  0.12508867274E+03 0.  0.
          5    1    3    3  502    0 -0.46308697240E+02 -0.22111052331E+02 -0.58590378279E+01  0.51818865286E+02  0.41800000000E+01 0.  1.
         -5    1    3    3    0  502 -0.43977928814E+02  0.93768233277E+02  0.93203494036E+02  0.13939477571E+03  0.41800000000E+01 0.  1.
        -11    1    1    2    0    0  0.65275188422E+02 -0.57904320245E+02  0.28232934969E+02  0.91710736250E+02  0.00000000000E+00 0. -1.
         11    1    1    2    0    0  0.25011437632E+02 -0.13752860701E+02  0.96811174468E+02  0.10093124735E+03  0.00000000000E+00 0.  1.
</event>
<event>
 7    1  0.2556591E-009  0.1290737E+03  0.7561462E-02  0.1228837E+00
         -2   -1    0    0    0  501 -0.00000000000E+00  0.00000000000E+00  0.16644004788E+03  0.16644004788E+03  0.00000000000E+00 0.  1.
          2   -1    0    0  501    0  0.00000000000E+00 -0.00000000000E+00 -0.13362466651E+03  0.13362466651E+03  0.00000000000E+00 0. -1.
         25    2    1    2    0    0 -0.70135157786E+02  0.72214097565E+02  0.32456380871E+02  0.16381326085E+03  0.12509017358E+03 0.  0.
          5    1    3    3  502    0  0.10781315359E+02  0.75290655021E+02  0.32278667949E+02  0.82730310642E+02  0.41800000000E+01 0.  1.
         -5    1    3    3    0  502 -0.80916473145E+02 -0.30765574560E+01  0.17771292197E+00  0.81082950205E+02  0.41800000000E+01 0.  1.
        -11    1    1    2    0    0  0.48416931759E+02 -0.54181949283E+02 -0.43059749977E+02  0.84463157513E+02  0.00000000000E+00 0. -1.
         11    1    1    2    0    0  0.21718226027E+02 -0.18032148282E+02  0.43418750468E+02  0.51788296030E+02  0.00000000000E+00 0.  1.
</event>
<event>
 7    1  0.2556591E-009  0.7953013E+02  0.7561462E-02  0.1330390E+00
          2   -1    0    0  501    0  0.00000000000E+00  0.00000000000E+00  0.70247153529E+03  0.70247153529E+03  0.00000000000E+00 0. -1.
         -2   -1    0    0    0  501 -0.00000000000E+00 -0.00000000000E+00 -0.22786422463E+02  0.22786422463E+02  0.00000000000E+00 0.  1.
         25    2    1    2    0    0 -0.26888994259E+02 -0.14983109406E+02  0.55238483280E+03  0.56720866432E+03  0.12509657785E+03 0.  0.
          5    1    3    3  502    0  0.69548425755E+01 -0.28911054483E+02  0.26541434050E+02  0.40076664382E+02  0.41800000000E+01 0.  1.
         -5    1    3    3    0  502 -0.33843836835E+02  0.13927945077E+02  0.52584339875E+03  0.52713199994E+03  0.41800000000E+01 0.  1.
        -11    1    1    2    0    0 -0.31636734240E+02 -0.56083034965E+00  0.57596458298E+02  0.65715671590E+02  0.00000000000E+00 0. -1.
         11    1    1    2    0    0  0.58525728500E+02  0.15543939756E+02  0.69703821728E+02  0.92333621845E+02  0.00000000000E+00 0.  1.
</event>
<event>
 7    1  0.2556591E-009  0.2194134E+03  0.7561462E-02  0.1134321E+00
          2   -1    0    0  501    0  0.00000000000E+00  0.00000000000E+00  0.39899580236E+03  0.39899580236E+03  0.00000000000E+00 0. -1.
         -2   -1    0    0    0  501 -0.00000000000E+00 -0.00000000000E+00 -0.13043079749E+03  0.13043079749E+03  0.00000000000E+00 0.  1.
         25    2    1    2    0    0 -0.14978886884E+02  0.19072230040E+03  0.68148383670E+02  0.23852076225E+03  0.12509432003E+03 0.  0.
          5    1    3    3  502    0  0.54593694748E+02  0.74350862392E+02  0.36076338169E+02  0.99133732001E+02  0.41800000000E+01 0.  1.
         -5    1    3    3    0  502 -0.69572581632E+02  0.11637143800E+03  0.32072045501E+02  0.13938703025E+03  0.41800000000E+01 0.  1.
        -11    1    1    2    0    0  0.49695652576E+02 -0.14601110774E+03  0.14531792953E+03  0.21191083529E+03  0.00000000000E+00 0. -1.
         11    1    1    2    0    0 -0.34716765692E+02 -0.44711192652E+02  0.55098691672E+02  0.78995002326E+02  0.00000000000E+00 0.  1.
</event>
<event>
 7    1  0.2556591E-009  0.1334610E+03  0.7561462E-02  0.1222409E+00
          2   -1    0    0  501    0  0.00000000000E+00  0.00000000000E+00  0.98921325801E+03  0.98921325801E+03  0.00000000000E+00 0. -1.
         -2   -1    0    0    0  501 -0.00000000000E+00 -0.00000000000E+00 -0.22988291016E+02  0.22988291016E+02  0.00000000000E+00 0.  1.
         25    2    1    2    0    0 -0.48746867952E+02  0.87340025711E+02  0.63479798127E+03  0.65469116257E+03  0.12508998402E+03 0.  0.
          5    1    3    3  502    0 -0.44307800213E+02 -0.96091149191E+01  0.85472975161E+02  0.96843265806E+02  0.41800000000E+01 0. -1.
         -5    1    3    3    0  502 -0.44390677394E+01  0.96949140630E+02  0.54932500611E+03  0.55784789677E+03  0.41800000000E+01 0. -1.
        -11    1    1    2    0    0  0.61041592840E+01 -0.80894108173E+02  0.27359156401E+03  0.28536548740E+03  0.00000000000E+00 0. -1.
         11    1    1    2    0    0  0.42642708668E+02 -0.64459175383E+01  0.57835421714E+02  0.72144899059E+02  0.00000000000E+00 0.  1.
</event>
<event>
 7    1  0.2556591E-009  0.1335732E+03  0.7561462E-02  0.1222248E+00
         -2   -1    0    0    0  501 -0.00000000000E+00  0.00000000000E+00  0.29710405468E+03  0.29710405468E+03  0.00000000000E+00 0.  1.
          2   -1    0    0  501    0  0.00000000000E+00 -0.00000000000E+00 -0.92999877426E+02  0.92999877426E+02  0.00000000000E+00 0. -1.
         25    2    1    2    0    0 -0.10579124762E+03 -0.68100418328E+02  0.10315345366E+03  0.20522642632E+03  0.12509115079E+03 0.  0.
          5    1    3    3  502    0 -0.18769053387E+02  0.11822845868E+02  0.82088702652E+02  0.85135683192E+02  0.41800000000E+01 0. -1.
         -5    1    3    3    0  502 -0.87022194238E+02 -0.79923264197E+02  0.21064751011E+02  0.12009074313E+03  0.41800000000E+01 0. -1.
        -11    1    1    2    0    0  0.91981470729E+02  0.63568671242E+02  0.34729315587E+02  0.11707985430E+03  0.00000000000E+00 0. -1.
         11    1    1    2    0    0  0.13809776896E+02  0.45317470857E+01  0.66221408000E+02  0.67797651487E+02  0.00000000000E+00 0.  1.
</event>
<event>
 7    1  0.2556591E-009  0.1684169E+03  0.7561462E-02  0.1179509E+00
         -1   -1    0    0    0  501 -0.00000000000E+00  0.00000000000E+00  0.16778674905E+02  0.16778674905E+02  0.00000000000E+00 0.  1.
          1   -1    0    0  501    0  0.00000000000E+00 -0.00000000000E+00 -0.21377160412E+04  0.21377160412E+04  0.00000000000E+00 0. -1.
         25    2    1    2    0    0 -0.85383238128E+02  0.10216616068E+03 -0.15628240974E+04  0.15734655986E+04  0.12508640479E+03 0.  0.
          5    1    3    3  502    0 -0.92617602101E+02  0.15362643115E+02 -0.91091097387E+03  0.91574576480E+03  0.41800000000E+01 0. -1.
         -5    1    3    3    0  502  0.72343639721E+01  0.86803517568E+02 -0.65191312354E+03  0.65771983376E+03  0.41800000000E+01 0. -1.
        -11    1    1    2    0    0  0.32256361180E+02  0.80981376568E+01 -0.19570168869E+03  0.19850743972E+03  0.00000000000E+00 0.  1.
         11    1    1    2    0    0  0.53126876948E+02 -0.11026429834E+03 -0.36241158017E+03  0.38252167780E+03  0.00000000000E+00 0. -1.
</event>
<event>
 7    1  0.2556591E-009  0.1288345E+03  0.7561462E-02  0.1229195E+00
         -3   -1    0    0    0  501 -0.00000000000E+00  0.00000000000E+00  0.39995386855E+03  0.39995386855E+03  0.00000000000E+00 0.  1.
          3   -1    0    0  501    0  0.00000000000E+00 -0.00000000000E+00 -0.65697687353E+02  0.65697687353E+02  0.00000000000E+00 0. -1.
         25    2    1    2    0    0  0.95575394018E+02  0.66941269206E+02  0.14079530292E+03  0.22155515048E+03  0.12509027906E+03 0.  0.
          5    1    3    3  502    0  0.10357321608E+03  0.62141102266E+02  0.15957354699E+03  0.20017521570E+03  0.41800000000E+01 0. -1.
         -5    1    3    3    0  502 -0.79978220641E+01  0.48001669405E+01 -0.18778244078E+02  0.21379934777E+02  0.41800000000E+01 0. -1.
        -11    1    1    2    0    0 -0.39759732470E+02 -0.42951702553E+00  0.13162481612E+03  0.13749950193E+03  0.00000000000E+00 0.  1.
         11    1    1    2    0    0 -0.55815661548E+02 -0.66511752181E+02  0.61836062156E+02  0.10659690350E+03  0.00000000000E+00 0. -1.
</event>
<event>
 7    1  0.2556591E-009  0.1839094E+03  0.7561462E-02  0.1164072E+00
         -1   -1    0    0    0  501 -0.00000000000E+00  0.00000000000E+00  0.52440276713E+02  0.52440276713E+02  0.00000000000E+00 0.  1.
          1   -1    0    0  501    0  0.00000000000E+00 -0.00000000000E+00 -0.88302201566E+03  0.88302201566E+03  0.00000000000E+00 0. -1.
         25    2    1    2    0    0 -0.17034277276E+03 -0.28360084344E+01 -0.27859221757E+03  0.34969691815E+03  0.12509839207E+03 0.  0.
          5    1    3    3  502    0 -0.15592908584E+03 -0.33259874402E+02 -0.27174028820E+03  0.31508785392E+03  0.41800000000E+01 0.  1.
         -5    1    3    3    0  502 -0.14413686924E+02  0.30423865967E+02 -0.68519293702E+01  0.34609064235E+02  0.41800000000E+01 0.  1.
        -11    1    1    2    0    0  0.15823955060E+03  0.12757660628E+02 -0.54664090308E+03  0.56922648410E+03  0.00000000000E+00 0. -1.
         11    1    1    2    0    0  0.12103222163E+02 -0.99216521939E+01 -0.53486183050E+01  0.16538890131E+02  0.00000000000E+00 0.  1.
</event>
<event>
 7    1  0.2556591E-009  0.1096939E+03  0.7561462E-02  0.1261138E+00
         -1   -1    0    0    0  501 -0.00000000000E+00  0.00000000000E+00  0.69758352565E+03  0.69758352565E+03  0.00000000000E+00 0.  1.
          1   -1    0    0  501    0  0.00000000000E+00 -0.00000000000E+00 -0.29865358543E+02  0.29865358543E+02  0.00000000000E+00 0. -1.
         25    2    1    2    0    0 -0.26124388525E+02  0.47512819170E+01  0.59898606998E+03  0.61248270844E+03  0.12508276359E+03 0.  0.
          5    1    3    3  502    0 -0.14426216357E+02  0.64655497244E+02  0.29019961162E+03  0.29769403089E+03  0.41800000000E+01 0. -1.
         -5    1    3    3    0  502 -0.11698172167E+02 -0.59904215327E+02  0.30878645836E+03  0.31478867755E+03  0.41800000000E+01 0. -1.
        -11    1    1    2    0    0  0.58732648309E+02 -0.69891646622E+01  0.39570731456E+02  0.71163299446E+02  0.00000000000E+00 0. -1.
         11    1    1    2    0    0 -0.32608259785E+02  0.22378827452E+01  0.29161365674E+02  0.43802876314E+02  0.00000000000E+00 0.  1.
</event>
<event>
 7    1  0.2556591E-009  0.9182438E+02  0.7561462E-02  0.1298493E+00
          1   -1    0    0  501    0  0.00000000000E+00  0.00000000000E+00  0.44729127566E+02  0.44729127566E+02  0.00000000000E+00 0. -1.
         -1   -1    0    0    0  501 -0.00000000000E+00 -0.00000000000E+00 -0.39208948870E+03  0.39208948870E+03  0.00000000000E+00 0.  1.
         25    2    1    2    0    0  0.47416442633E+01 -0.69516569140E+02 -0.16639530879E+03  0.21952243970E+03  0.12509063183E+03 0.  0.
          5    1    3    3  502    0  0.20091926591E+02 -0.62747737251E+02 -0.18361380913E+03  0.19512167318E+03  0.41800000000E+01 0.  1.
         -5    1    3    3    0  502 -0.15350282328E+02 -0.67688318895E+01  0.17218500340E+02  0.24400766518E+02  0.41800000000E+01 0.  1.
        -11    1    1    2    0    0  0.26189154398E+01 -0.15140094595E+02  0.20638715442E+01  0.15502927084E+02  0.00000000000E+00 0. -1.
         11    1    1    2    0    0 -0.73605597030E+01  0.84656663735E+02 -0.18302892389E+03  0.20179324947E+03  0.00000000000E+00 0.  1.
</event>
<event>
 7    1  0.2556591E-009  0.1025347E+03  0.7561462E-02  0.1275054E+00
          2   -1    0    0  501    0  0.00000000000E+00  0.00000000000E+00  0.13124146134E+03  0.13124146134E+03  0.00000000000E+00 0. -1.
         -2   -1    0    0    0  501 -0.00000000000E+00 -0.00000000000E+00 -0.12649485526E+03  0.12649485526E+03  0.00000000000E+00 0.  1.
         25    2    1    2    0    0 -0.21299725442E+02  0.64521711993E+02  0.37597912892E+01  0.14240406814E+03  0.12509217789E+03 0.  0.
          5    1    3    3  502    0  0.18225870629E+02  0.88081305444E+02  0.22061442984E+02  0.92707488346E+02  0.41800000000E+01 0.  1.
         -5    1    3    3    0  502 -0.39525596071E+02 -0.23559593452E+02 -0.18301651695E+02  0.49696579793E+02  0.41800000000E+01 0.  1.
        -11    1    1    2    0    0  0.11991654451E+01 -0.19256958906E+02 -0.44238640205E+02  0.48263088911E+02  0.00000000000E+00 0.  1.
         11    1    1    2    0    0  0.20100559997E+02 -0.45264753087E+02  0.45225454996E+02  0.67069159558E+02  0.00000000000E+00 0. -1.
</event>
<event>
 7    1  0.2556591E-009  0.1615628E+03  0.7561462E-02  0.1186944E+00
          1   -1    0    0  501    0  0.00000000000E+00  0.00000000000E+00  0.32210699590E+03  0.32210699590E+03  0.00000000000E+00 0. -1.
         -1   -1    0    0    0  501 -0.00000000000E+00 -0.00000000000E+00 -0.11277121605E+03  0.11277121605E+03  0.00000000000E+00 0.  1.
         25    2    1    2    0    0  0.14063542240E+03 -0.37694460485E+02  0.17573040069E+03  0.26024535504E+03  0.12508907509E+03 0.  0.
          5    1    3    3  502    0  0.63098683578E+02 -0.62328656661E+02  0.15089544781E+03  0.17508059253E+03  0.41800000000E+01 0.  1.
         -5    1    3    3    0  502  0.77536738827E+02  0.24634196176E+02  0.24834952881E+02  0.85164762512E+02  0.41800000000E+01 0.  1.
        -11    1    1    2    0    0 -0.10137399350E+03  0.48170285414E+02 -0.12784689726E+02  0.11296243290E+03  0.00000000000E+00 0.  1.
         11    1    1    2    0    0 -0.39261428909E+02 -0.10475824929E+02  0.46390068878E+02  0.61670424017E+02  0.00000000000E+00 0. -1.
</event>
<event>
 7    1  0.2556591E-009  0.7669200E+02  0.7561462E-02  0.1338710E+00
          1   -1    0    0  501    0  0.00000000000E+00  0.00000000000E+00  0.11396684531E+03  0.11396684531E+03  0.00000000000E+00 0. -1.
         -1   -1    0    0    0  501 -0.00000000000E+00 -0.00000000000E+00 -0.12313251234E+03  0.12313251234E+03  0.00000000000E+00 0.  1.
         25    2    1    2    0    0 -0.14867476664E+02  0.41272672408E+02  0.12246814508E+02  0.13312643318E+03  0.12509271520E+03 0.  0.
          5    1    3    3  502    0 -0.21570195673E+02  0.11683265099E+02  0.66401805681E+02  0.70911523905E+02  0.41800000000E+01 0.  1.
         -5    1    3    3    0  502  0.67027190092E+01  0.29589407309E+02 -0.54154991173E+02  0.62214909274E+02  0.41800000000E+01 0.  1.
        -11    1    1    2    0    0 -0.33987481296E+02 -0.10688204172E+00 -0.21255129082E+02  0.40086666373E+02  0.00000000000E+00 0.  1.
         11    1    1    2    0    0  0.48854957961E+02 -0.41165790366E+02 -0.15735245556E+00  0.63886258097E+02  0.00000000000E+00 0. -1.
</event>
<event>
 7    1  0.2556591E-009  0.9967511E+02  0.7561462E-02  0.1280981E+00
          2   -1    0    0  501    0  0.00000000000E+00  0.00000000000E+00  0.50540457224E+02  0.50540457224E+02  0.00000000000E+00 0. -1.
         -2   -1    0    0    0  501 -0.00000000000E+00 -0.00000000000E+00 -0.25762304618E+03  0.25762304618E+03  0.00000000000E+00 0.  1.
         25    2    1    2    0    0 -0.10132366976E+01 -0.29227367950E+02 -0.14803035733E+03  0.19599680447E+03  0.12508595039E+03 0.  0.
          5    1    3    3  502    0  0.45198419650E+02  0.12259376215E+02 -0.15379605417E+02  0.49469122762E+02  0.41800000000E+01 0.  1.
         -5    1    3    3    0  502 -0.46211656347E+02 -0.41486744165E+02 -0.13265075191E+03  0.14652768171E+03  0.41800000000E+01 0.  1.
        -11    1    1    2    0    0  0.84832911444E+00  0.59655426728E+02 -0.20570359058E+02  0.63108076125E+02  0.00000000000E+00 0. -1.
         11    1    1    2    0    0  0.16490758316E+00 -0.30428058778E+02 -0.38481872564E+02  0.49058622806E+02  0.00000000000E+00 0.  1.
</event>
<event>
 7    1  0.2556591E-009  0.1364404E+03  0.7561462E-02  0.1218201E+00
          1   -1    0    0  501    0  0.00000000000E+00  0.00000000000E+00  0.18100906682E+03  0.18100906682E+03  0.00000000000E+00 0. -1.
         -1   -1    0    0    0  501 -0.00000000000E+00 -0.00000000000E+00 -0.13724916345E+03  0.13724916345E+03  0.00000000000E+00 0.  1.
         25    2    1    2    0    0 -0.74044282578E+02 -0.53980686269E+02  0.91903850119E+02  0.18025121988E+03  0.12509082432E+03 0.  0.
          5    1    3    3  502    0 -0.10336716439E+03 -0.47868859525E+02  0.41188676101E+02  0.12120304379E+03  0.41800000000E+01 0. -1.
         -5    1    3    3    0  502  0.29322881808E+02 -0.61118267445E+01  0.50715174018E+02  0.59048176088E+02  0.41800000000E+01 0. -1.
        -11    1    1    2    0    0  0.25683578158E+02  0.72459586519E+02 -0.21739683823E+02  0.79891499662E+02  0.00000000000E+00 0.  1.
         11    1    1    2    0    0  0.48360704420E+02 -0.18478900249E+02 -0.26404262926E+02  0.58115510727E+02  0.00000000000E+00 0. -1.
</event>
<event>
 7    1  0.2556591E-009  0.8646866E+02  0.7561462E-02  0.1311636E+00
         -1   -1    0    0    0  501 -0.00000000000E+00  0.00000000000E+00  0.16676049204E+02  0.16676049204E+02  0.00000000000E+00 0.  1.
          1   -1    0    0  501    0  0.00000000000E+00 -0.00000000000E+00 -0.91163536626E+03  0.91163536626E+03  0.00000000000E+00 0. -1.
         25    2    1    2    0    0  0.25669172391E+02 -0.37735243593E+02 -0.64011641156E+03  0.65381845955E+03  0.12508678060E+03 0.  0.
          5    1    3    3  502    0  0.58211545413E+02 -0.67855584754E+00 -0.14606873445E+03  0.15729778143E+03  0.41800000000E+01 0.  1.
         -5    1    3    3    0  502 -0.32542373022E+02 -0.37056687746E+02 -0.49404767711E+03  0.49652067812E+03  0.41800000000E+01 0.  1.
        -11    1    1    2    0    0  0.11881392605E+02  0.20647562757E+02 -0.94042405088E+01  0.25611112385E+02  0.00000000000E+00 0.  1.
         11    1    1    2    0    0 -0.37550564996E+02  0.17087680836E+02 -0.24543866499E+03  0.24888184353E+03  0.00000000000E+00 0. -1.
</event>
<event>
 7    1  0.2556591E-009  0.9686896E+02  0.7561462E-02  0.1287021E+00
         -1   -1    0    0    0  501 -0.00000000000E+00  0.00000000000E+00  0.27100781274E+02  0.27100781274E+02  0.00000000000E+00 0.  1.
          1   -1    0    0  501    0  0.00000000000E+00 -0.00000000000E+00 -0.66185100352E+03  0.66185100352E+03  0.00000000000E+00 0. -1.
         25    2    1    2    0    0 -0.37577510938E+02 -0.65213017405E+02 -0.32101392463E+03  0.35264987145E+03  0.12508870878E+03 0.  0.
          5    1    3    3  502    0 -0.46824880051E+01 -0.40356631913E+02 -0.30578249817E+03  0.30849796113E+03  0.41800000000E+01 0.  1.
         -5    1    3    3    0  502 -0.32895022933E+02 -0.24856385492E+02 -0.15231426457E+02  0.44151910325E+02  0.41800000000E+01 0.  1.
        -11    1    1    2    0    0  0.16311706487E+02 -0.18743122559E+02 -0.13985942346E+03  0.14204940951E+03  0.00000000000E+00 0.  1.
         11    1    1    2    0    0  0.21265804450E+02  0.83956139964E+02 -0.17387687416E+03  0.19425250383E+03  0.00000000000E+00 0. -1.
</event>
<event>
 7    1  0.2556591E-009  0.1024778E+03  0.7561462E-02  0.1275170E+00
         -1   -1    0    0    0  501 -0.00000000000E+00  0.00000000000E+00  0.90982141821E+02  0.90982141821E+02  0.00000000000E+00 0.  1.
          1   -1    0    0  501    0  0.00000000000E+00 -0.00000000000E+00 -0.18563977141E+03  0.18563977141E+03  0.00000000000E+00 0. -1.
         25    2    1    2    0    0 -0.71185847671E+01 -0.23932799655E+01  0.84782140120E+01  0.12560319546E+03  0.12509148875E+03 0.  0.
          5    1    3    3  502    0  0.37666633903E+02 -0.48068607889E+02  0.39612877816E+01  0.61339469960E+02  0.41800000000E+01 0. -1.
         -5    1    3    3    0  502 -0.44785218670E+02  0.45675327924E+02  0.45169262304E+01  0.64263725498E+02  0.41800000000E+01 0. -1.
        -11    1    1    2    0    0  0.33052656319E+02 -0.25355663908E+02 -0.10503044167E+03  0.11299018303E+03  0.00000000000E+00 0. -1.
         11    1    1    2    0    0 -0.25934071552E+02  0.27748943873E+02  0.18945980711E+01  0.38028534750E+02  0.00000000000E+00 0.  1.
</event>
<event>
 7    1  0.2556591E-009  0.1177784E+03  0.7561462E-02  0.1246808E+00
          1   -1    0    0  501    0  0.00000000000E+00  0.00000000000E+00  0.62114108461E+03  0.62114108461E+03  0.00000000000E+00 0. -1.
         -1   -1    0    0    0  501 -0.00000000000E+00 -0.00000000000E+00 -0.28914096460E+02  0.28914096460E+02  0.00000000000E+00 0.  1.
         25    2    1    2    0    0  0.25892022533E+01 -0.69322875082E+02  0.38716671076E+03  0.41275012145E+03  0.12510889601E+03 0.  0.
          5    1    3    3  502    0  0.42098018334E+02 -0.79634624813E+01  0.42775762461E+02  0.60686886034E+02  0.41800000000E+01 0. -1.
         -5    1    3    3    0  502 -0.39508816081E+02 -0.61359412601E+02  0.34439094829E+03  0.35206323541E+03  0.41800000000E+01 0. -1.
        -11    1    1    2    0    0 -0.49796892475E+02  0.39618595730E+02  0.11153446048E+03  0.12841066740E+03  0.00000000000E+00 0. -1.
         11    1    1    2    0    0  0.47207690222E+02  0.29704279352E+02  0.93525816915E+02  0.10889439222E+03  0.00000000000E+00 0.  1.
</event>
<event>
 7    1  0.2556591E-009  0.1638850E+03  0.7561462E-02  0.1184379E+00
          2   -1    0    0  501    0  0.00000000000E+00  0.00000000000E+00  0.17066425004E+03  0.17066425004E+03  0.00000000000E+00 0. -1.
         -2   -1    0    0    0  501 -0.00000000000E+00 -0.00000000000E+00 -0.23886644027E+03  0.23886644027E+03  0.00000000000E+00 0.  1.
         25    2    1    2    0    0  0.75110710415E+02 -0.11891047327E+03 -0.13164811424E+03  0.22969254943E+03  0.12508445870E+03 0.  0.
          5    1    3    3  502    0  0.61315005507E+02 -0.87540709092E+01 -0.93496795139E+02  0.11222872520E+03  0.41800000000E+01 0. -1.
         -5    1    3    3    0  502  0.13795704908E+02 -0.11015640236E+03 -0.38151319102E+02  0.11746382424E+03  0.41800000000E+01 0. -1.
        -11    1    1    2    0    0 -0.82179738586E+02  0.78755261978E+02  0.12385102526E+02  0.11449581428E+03  0.00000000000E+00 0.  1.
         11    1    1    2    0    0  0.70690281705E+01  0.40155211293E+02  0.51060821487E+02  0.65342326590E+02  0.00000000000E+00 0. -1.
</event>
<event>
 7    1  0.2556591E-009  0.1084744E+03  0.7561462E-02  0.1263421E+00
          3   -1    0    0  501    0  0.00000000000E+00  0.00000000000E+00  0.11844778876E+03  0.11844778876E+03  0.00000000000E+00 0. -1.
         -3   -1    0    0    0  501 -0.00000000000E+00 -0.00000000000E+00 -0.18519526275E+03  0.18519526275E+03  0.00000000000E+00 0.  1.
         25    2    1    2    0    0 -0.30707474244E+02  0.44958031978E+02 -0.12126486748E+03  0.18252437437E+03  0.12508319448E+03 0.  0.
          5    1    3    3  502    0  0.33674393202E+02  0.23027127551E+02 -0.10463144931E+03  0.11238071874E+03  0.41800000000E+01 0.  1.
         -5    1    3    3    0  502 -0.64381867447E+02  0.21930904427E+02 -0.16633418176E+02  0.70143655630E+02  0.41800000000E+01 0.  1.
        -11    1    1    2    0    0  0.58867816072E+02 -0.52246779473E+02  0.35350017052E+02  0.86283077368E+02  0.00000000000E+00 0. -1.
         11    1    1    2    0    0 -0.28160341828E+02  0.72887474953E+01  0.19167376433E+02  0.34835599769E+02  0.00000000000E+00 0.  1.
</event>
<event>
 7    1  0.2556591E-009  0.1318841E+03  0.7561462E-02  0.1224687E+00
         -2   -1    0    0    0  501 -0.00000000000E+00  0.00000000000E+00  0.18305205900E+02  0.18305205900E+02  0.00000000000E+00 0. -1.
          2   -1    0    0  501    0  0.00000000000E+00 -0.00000000000E+00 -0.10625768121E+04  0.10625768121E+04  0.00000000000E+00 0.  1.
         25    2    1    2    0    0 -0.59746440907E+01 -0.79349162938E+02 -0.71076568703E+03  0.72606289277E+03  0.12508987320E+03 0.  0.
          5    1    3    3  502    0  0.47758090127E+02 -0.13653199502E-02 -0.32678123750E+03  0.33027910130E+03  0.41800000000E+01 0. -1.
         -5    1    3    3    0  502 -0.53732734218E+02 -0.79347797619E+02 -0.38398444953E+03  0.39578379148E+03  0.41800000000E+01 0. -1.
        -11    1    1    2    0    0  0.15994293448E+02 -0.16823927015E+02 -0.46682383158E+02  0.52135466244E+02  0.00000000000E+00 0. -1.
         11    1    1    2    0    0 -0.10019649358E+02  0.96173089954E+02 -0.28682353604E+03  0.30268365901E+03  0.00000000000E+00 0.  1.
</event>
<event>
 7    1  0.2556591E-009  0.1591167E+03  0.7561462E-02  0.1189698E+00
          1   -1    0    0  501    0  0.00000000000E+00  0.00000000000E+00  0.10499412664E+04  0.10499412664E+04  0.00000000000E+00 0. -1.
         -1   -1    0    0    0  501 -0.00000000000E+00 -0.00000000000E+00 -0.36180983688E+02  0.36180983688E+02  0.00000000000E+00 0.  1.
         25    2    1    2    0    0  0.11189397934E+03 -0.42919988591E+02  0.83110167826E+03  0.84896412490E+03  0.12509075794E+03 0.  0.
          5    1    3    3  502    0  0.13525423362E+03 -0.23639727711E+02  0.74586353058E+03  0.75840782109E+03  0.41800000000E+01 0.  1.
         -5    1    3    3    0  502 -0.23360254278E+02 -0.19280260880E+02  0.85238147681E+02  0.90556303809E+02  0.41800000000E+01 0.  1.
        -11    1    1    2    0    0 -0.51875722600E+02  0.67756497221E+02  0.90258691201E+02  0.12421217673E+03  0.00000000000E+00 0. -1.
         11    1    1    2    0    0 -0.60018256743E+02 -0.24836508630E+02  0.92399913214E+02  0.11294594842E+03  0.00000000000E+00 0.  1.
</event>
<event>
 7    1  0.3026628E-009  0.1037342E+03  0.7561462E-02  0.1272634E+00
          1   -1    0    0  501    0  0.00000000000E+00  0.00000000000E+00  0.22798261390E+03  0.22798261390E+03  0.00000000000E+00 0. -1.
         -1   -1    0    0    0  501 -0.00000000000E+00 -0.00000000000E+00 -0.76820803583E+02  0.76820803583E+02  0.00000000000E+00 0.  1.
         25    2    1    2    0    0 -0.66567654937E+02 -0.36205057437E+02  0.78183121408E+02  0.16584331543E+03  0.12509734582E+03 0.  0.
          5    1    3    3  502    0  0.75827773209E+01  0.27260839714E+02  0.60006676610E+02  0.66474999298E+02  0.41800000000E+01 0. -1.
         -5    1    3    3    0  502 -0.74150432258E+02 -0.63465897151E+02  0.18176444797E+02  0.99368316131E+02  0.41800000000E+01 0. -1.
        -11    1    1    2    0    0  0.12223355830E+02  0.21734531830E+02 -0.18863802023E+02  0.31267288472E+02  0.00000000000E+00 0.  1.
         11    1    1    2    0    0  0.54344299107E+02  0.14470525606E+02  0.91842490937E+02  0.10769281359E+03  0.00000000000E+00 0. -1.
</event>
<event>
 7    1  0.2556591E-009  0.1116407E+03  0.7561462E-02  0.1257561E+00
          1   -1    0    0  501    0  0.00000000000E+00  0.00000000000E+00  0.13600207966E+03  0.13600207966E+03  0.00000000000E+00 0. -1.
         -1   -1    0    0    0  501 -0.00000000000E+00 -0.00000000000E+00 -0.92640821945E+02  0.92640821945E+02  0.00000000000E+00 0.  1.
         25    2    1    2    0    0 -0.33479680167E+02 -0.18411466951E+00  0.24520548947E+02  0.13179646865E+03  0.12509248157E+03 0.  0.
          5    1    3    3  502    0 -0.80618411797E+02  0.59027406405E+01  0.81447719947E+01  0.81350970360E+02  0.41800000000E+01 0. -1.
         -5    1    3    3    0  502  0.47138731630E+02 -0.60868553100E+01  0.16375776953E+02  0.50445498293E+02  0.41800000000E+01 0. -1.
        -11    1    1    2    0    0  0.27675761476E+02 -0.42954511537E+02  0.59093894384E+01  0.51438883329E+02  0.00000000000E+00 0.  1.
         11    1    1    2    0    0  0.58039186908E+01  0.43138626206E+02  0.12931319331E+02  0.45407549623E+02  0.00000000000E+00 0. -1.
</event>
<event>
 7    1  0.2556591E-009  0.9214999E+02  0.7561462E-02  0.1297727E+00
          4   -1    0    0  501    0  0.00000000000E+00  0.00000000000E+00  0.20237805312E+03  0.20237805312E+03  0.00000000000E+00 0. -1.
         -4   -1    0    0    0  501 -0.00000000000E+00 -0.00000000000E+00 -0.75280362691E+02  0.75280362691E+02  0.00000000000E+00 0.  1.
         25    2    1    2    0    0  0.42116142259E+01  0.57850835637E+02  0.61146556526E+02  0.15083642378E+03  0.12509303932E+03 0.  0.
          5    1    3    3  502    0 -0.37168375215E+02  0.15939759160E+02 -0.24005918538E+02  0.47215681325E+02  0.41800000000E+01 0.  1.
         -5    1    3    3    0  502  0.41379989441E+02  0.41911076478E+02  0.85152475064E+02  0.10362074246E+03  0.41800000000E+01 0.  1.
        -11    1    1    2    0    0  0.27316850801E+02 -0.39783631458E+02  0.75174295606E+02  0.89331530769E+02  0.00000000000E+00 0. -1.
         11    1    1    2    0    0 -0.31528465027E+02 -0.18067204179E+02 -0.92231617025E+01  0.37490461262E+02  0.00000000000E+00 0.  1.
</event>
<event>
 7    1  0.2556591E-009  0.1071713E+03  0.7561462E-02  0.1265900E+00
          2   -1    0    0  501    0  0.00000000000E+00  0.00000000000E+00  0.11023125527E+03  0.11023125527E+03  0.00000000000E+00 0. -1.
         -2   -1    0    0    0  501 -0.00000000000E+00 -0.00000000000E+00 -0.16067240877E+03  0.16067240877E+03  0.00000000000E+00 0.  1.
         25    2    1    2    0    0  0.64919478461E+02  0.25722053945E+00  0.15488322409E+02  0.14178490321E+03  0.12509382799E+03 0.  0.
          5    1    3    3  502    0  0.97315298239E+02 -0.10150281785E+02  0.32930176345E+02  0.10332068721E+03  0.41800000000E+01 0.  1.
         -5    1    3    3    0  502 -0.32395819778E+02  0.10407502325E+02 -0.17441853936E+02  0.38464216000E+02  0.41800000000E+01 0.  1.
        -11    1    1    2    0    0 -0.57956896729E+02  0.19523971226E+02 -0.82285624275E+02  0.10252371088E+03  0.00000000000E+00 0.  1.
         11    1    1    2    0    0 -0.69625817321E+01 -0.19781191766E+02  0.16356148370E+02  0.26595049944E+02  0.00000000000E+00 0. -1.
</event>
<event>
 7    1  0.2556591E-009  0.1085088E+03  0.7561462E-02  0.1263356E+00
         -2   -1    0    0    0  501 -0.00000000000E+00  0.00000000000E+00  0.44800763548E+02  0.44800763548E+02  0.00000000000E+00 0.  1.
          2   -1    0    0  501    0  0.00000000000E+00 -0.00000000000E+00 -0.34896515158E+03  0.34896515158E+03  0.00000000000E+00 0. -1.
         25    2    1    2    0    0  0.33480431249E+02  0.38687528679E+02 -0.11727889191E+03  0.17894143768E+03  0.12509210798E+03 0.  0.
          5    1    3    3  502    0  0.56332437063E+02  0.60187539571E+02 -0.32966027948E+02  0.88882589879E+02  0.41800000000E+01 0.  1.
         -5    1    3    3    0  502 -0.22852005814E+02 -0.21500010892E+02 -0.84312863958E+02  0.90058847799E+02  0.41800000000E+01 0.  1.
        -11    1    1    2    0    0 -0.44990876528E+02  0.15376138908E+02 -0.11262921794E+03  0.12225361079E+03  0.00000000000E+00 0. -1.
         11    1    1    2    0    0  0.11510445279E+02 -0.54063667587E+02 -0.74256278190E+02  0.92570866660E+02  0.00000000000E+00 0.  1.
</event>
<event>
 7    1  0.2556591E-009  0.9672133E+02  0.7561462E-02  0.1287346E+00
         -1   -1    0    0    0  501 -0.00000000000E+00  0.00000000000E+00  0.31299195273E+03  0.31299195273E+03  0.00000000000E+00 0.  1.
          1   -1    0    0  501    0  0.00000000000E+00 -0.00000000000E+00 -0.38646949422E+02  0.38646949422E+02  0.00000000000E+00 0. -1.
         25    2    1    2    0    0  0.88518162847E+01 -0.18070663743E+02  0.13504320486E+03  0.18517308827E+03  0.12508997521E+03 0.  0.
          5    1    3    3  502    0 -0.25306393395E+02  0.46639951816E+02  0.51992237373E+02  0.74406745656E+02  0.41800000000E+01 0.  1.
         -5    1    3    3    0  502  0.34158209680E+02 -0.64710615558E+02  0.83050967491E+02  0.11076634261E+03  0.41800000000E+01 0.  1.
        -11    1    1    2    0    0  0.27583443545E+02  0.11573514735E+02  0.93405730270E+01  0.31337499990E+02  0.00000000000E+00 0. -1.
         11    1    1    2    0    0 -0.36435259830E+02  0.64971490073E+01  0.12996122542E+03  0.13512831390E+03  0.00000000000E+00 0.  1.
</event>
<event>
 7    1  0.2556591E-009  0.9512632E+02  0.7561462E-02  0.1290892E+00
          2   -1    0    0  501    0  0.00000000000E+00  0.00000000000E+00  0.29688314402E+03  0.29688314402E+03  0.00000000000E+00 0.  1.
         -2   -1    0    0    0  501 -0.00000000000E+00 -0.00000000000E+00 -0.49511090708E+02  0.49511090708E+02  0.00000000000E+00 0. -1.
         25    2    1    2    0    0 -0.22934534028E+02  0.30113297744E+02  0.19426254501E+03  0.23412730750E+03  0.12507939946E+03 0.  0.
          5    1    3    3  502    0 -0.70271951494E+02  0.48936723970E+01  0.14464874124E+03  0.16094354892E+03  0.41800000000E+01 0. -1.
         -5    1    3    3    0  502  0.47337417466E+02  0.25219625347E+02  0.49613803764E+02  0.73183758574E+02  0.41800000000E+01 0. -1.
        -11    1    1    2    0    0  0.37387470623E+01 -0.42745196991E+02 -0.10888587651E+02  0.44268402235E+02  0.00000000000E+00 0. -1.
         11    1    1    2    0    0  0.19195786965E+02  0.12631899247E+02  0.63998095954E+02  0.67998524996E+02  0.00000000000E+00 0.  1.
</event>
<event>
 7    1  0.2556591E-009  0.9677186E+02  0.7561462E-02  0.1287235E+00
         -2   -1    0    0    0  501 -0.00000000000E+00  0.00000000000E+00  0.14719269501E+02  0.14719269501E+02  0.00000000000E+00 0.  1.
          2   -1    0    0  501    0  0.00000000000E+00 -0.00000000000E+00 -0.91107294742E+03  0.91107294742E+03  0.00000000000E+00 0. -1.
         25    2    1    2    0    0  0.14944566178E+02 -0.37996420271E+02 -0.52906563394E+03  0.54518342456E+03  0.12508978133E+03 0.  0.
          5    1    3    3  502    0 -0.19036792598E+02  0.20451941070E+02 -0.28766847440E+02  0.40319787668E+02  0.41800000000E+01 0.  1.
         -5    1    3    3    0  502  0.33981358776E+02 -0.58448361341E+02 -0.50029878650E+03  0.50486363689E+03  0.41800000000E+01 0.  1.
        -11    1    1    2    0    0 -0.51062721248E+02  0.10426994089E+02 -0.23581612309E+03  0.24150645460E+03  0.00000000000E+00 0. -1.
         11    1    1    2    0    0  0.36118155070E+02  0.27569426182E+02 -0.13147192090E+03  0.13910233776E+03  0.00000000000E+00 0.  1.
</event>
<event>
 7    1  0.2556591E-009  0.6628043E+02  0.7561462E-02  0.1373219E+00
         -1   -1    0    0    0  501 -0.00000000000E+00  0.00000000000E+00  0.61806962095E+02  0.61806962095E+02  0.00000000000E+00 0.  1.
          1   -1    0    0  501    0  0.00000000000E+00 -0.00000000000E+00 -0.28305952224E+03  0.28305952224E+03  0.00000000000E+00 0. -1.
         25    2    1    2    0    0 -0.26752485236E+02 -0.30125905706E+02 -0.34540794901E+02  0.13587473467E+03  0.12508241823E+03 0.  0.
          5    1    3    3  502    0  0.63637743230E+01 -0.26017636730E+02 -0.77044774002E+02  0.81674871568E+02  0.41800000000E+01 0.  1.
         -5    1    3    3    0  502 -0.33116259559E+02 -0.41082689762E+01  0.42503979101E+02  0.54199863105E+02  0.41800000000E+01 0.  1.
        -11    1    1    2    0    0  0.43186891577E+02  0.74636334608E+01 -0.39051274953E+02  0.58701069019E+02  0.00000000000E+00 0.  1.
         11    1    1    2    0    0 -0.16434406341E+02  0.22662272245E+02 -0.14766049030E+03  0.15029068065E+03  0.00000000000E+00 0. -1.
</event>
<event>
 7    1  0.2556591E-009  0.1092176E+03  0.7561462E-02  0.1262026E+00
         -1   -1    0    0    0  501 -0.00000000000E+00  0.00000000000E+00  0.56333835398E+02  0.56333835398E+02  0.00000000000E+00 0.  1.
          1   -1    0    0  501    0  0.00000000000E+00 -0.00000000000E+00 -0.38008989799E+03  0.38008989799E+03  0.00000000000E+00 0. -1.
         25    2    1    2    0    0  0.26412907950E+02 -0.94924606682E+02 -0.25305953063E+03  0.29899017726E+03  0.12509067671E+03 0.  0.
          5    1    3    3  502    0 -0.21294335459E+02 -0.14788284486E+02  0.30114364227E+01  0.26432616784E+02  0.41800000000E+01 0.  1.
         -5    1    3    3    0  502  0.47707243410E+02 -0.80136322196E+02 -0.25607096705E+03  0.27255756048E+03  0.41800000000E+01 0.  1.
        -11    1    1    2    0    0 -0.10008844557E+02  0.23645813993E+02 -0.57687153643E+02  0.63143560116E+02  0.00000000000E+00 0. -1.
         11    1    1    2    0    0 -0.16404063393E+02  0.71278792689E+02 -0.13009378326E+02  0.74289996012E+02  0.00000000000E+00 0.  1.
</event>
<event>
 7    1  0.2556591E-009  0.1350061E+03  0.7561462E-02  0.1220211E+00
          1   -1    0    0  501    0  0.00000000000E+00  0.00000000000E+00  0.25890154410E+03  0.25890154410E+03  0.00000000000E+00 0. -1.
         -1   -1    0    0    0  501 -0.00000000000E+00 -0.00000000000E+00 -0.79795541671E+02  0.79795541671E+02  0.00000000000E+00 0.  1.
         25    2    1    2    0    0 -0.53011583136E+02  0.63748840948E+02  0.14833574102E+03  0.21101001882E+03  0.12509034060E+03 0.  0.
          5    1    3    3  502    0 -0.92414634879E+02  0.33726943951E+02  0.11376050320E+03  0.15045562793E+03  0.41800000000E+01 0. -1.
         -5    1    3    3    0  502  0.39403051743E+02  0.30021896998E+02  0.34575237817E+02  0.60554390890E+02  0.41800000000E+01 0. -1.
        -11    1    1    2    0    0  0.77790020007E+02 -0.56075051535E+02  0.14284980163E+02  0.96952355699E+02  0.00000000000E+00 0. -1.
         11    1    1    2    0    0 -0.24778436872E+02 -0.76737894131E+01  0.16485281250E+02  0.30734711250E+02  0.00000000000E+00 0.  1.
</event>
<event>
 7    1  0.2556591E-009  0.2904397E+03  0.7561462E-02  0.1090120E+00
          2   -1    0    0  501    0  0.00000000000E+00  0.00000000000E+00  0.63440177406E+03  0.63440177406E+03  0.00000000000E+00 0. -1.
         -2   -1    0    0    0  501 -0.00000000000E+00 -0.00000000000E+00 -0.13420677347E+03  0.13420677347E+03  0.00000000000E+00 0.  1.
         25    2    1    2    0    0 -0.18950704860E+03  0.19258490679E+03  0.26544446304E+03  0.39888984043E+03  0.12510185471E+03 0.  0.
          5    1    3    3  502    0 -0.53405966692E+02  0.14208036338E+03  0.14905270714E+03  0.21277501931E+03  0.41800000000E+01 0. -1.
         -5    1    3    3    0  502 -0.13610108190E+03  0.50504543408E+02  0.11639175590E+03  0.18611482112E+03  0.41800000000E+01 0. -1.
        -11    1    1    2    0    0  0.15788972426E+03 -0.10227296807E+03  0.17484919874E+03  0.25682906246E+03  0.00000000000E+00 0. -1.
         11    1    1    2    0    0  0.31617324338E+02 -0.90311938724E+02  0.59901338810E+02  0.11288964463E+03  0.00000000000E+00 0.  1.
</event>
<event>
 7    1  0.2556591E-009  0.2546528E+03  0.7561462E-02  0.1110399E+00
          2   -1    0    0  501    0  0.00000000000E+00  0.00000000000E+00  0.61733803192E+03  0.61733803192E+03  0.00000000000E+00 0. -1.
         -2   -1    0    0    0  501 -0.00000000000E+00 -0.00000000000E+00 -0.12224411821E+03  0.12224411821E+03  0.00000000000E+00 0.  1.
         25    2    1    2    0    0  0.21610603883E+03  0.11510031567E+03  0.17280375454E+03  0.32474878828E+03  0.12510289851E+03 0.  0.
          5    1    3    3  502    0  0.50701474534E+01  0.13071905826E+02  0.65146467973E+02  0.66769123152E+02  0.41800000000E+01 0. -1.
         -5    1    3    3    0  502  0.21103589138E+03  0.10202840985E+03  0.10765728657E+03  0.25797966512E+03  0.41800000000E+01 0. -1.
        -11    1    1    2    0    0 -0.21939496061E+03 -0.93675835273E+02  0.28462657824E+03  0.37137797444E+03  0.00000000000E+00 0. -1.
         11    1    1    2    0    0  0.32889217802E+01 -0.21424480399E+02  0.37663580935E+02  0.43455387418E+02  0.00000000000E+00 0.  1.
</event>
<event>
 7    1  0.2556591E-009  0.1052193E+03  0.7561462E-02  0.1269688E+00
         -1   -1    0    0    0  501 -0.00000000000E+00  0.00000000000E+00  0.12426186034E+03  0.12426186034E+03  0.00000000000E+00 0.  1.
          1   -1    0    0  501    0  0.00000000000E+00 -0.00000000000E+00 -0.17947352917E+03  0.17947352917E+03  0.00000000000E+00 0. -1.
         25    2    1    2    0    0  0.13307543316E+02 -0.22905214906E+02 -0.13251146040E+03  0.18414327539E+03  0.12509084360E+03 0.  0.
          5    1    3    3  502    0 -0.12962084566E+02  0.47915432045E+02 -0.35729025812E+02  0.61302038709E+02  0.41800000000E+01 0.  1.
         -5    1    3    3    0  502  0.26269627882E+02 -0.70820646951E+02 -0.96782434590E+02  0.12284123668E+03  0.41800000000E+01 0.  1.
        -11    1    1    2    0    0  0.33892930801E+02  0.40004376845E+01  0.53484577528E+02  0.63445522248E+02  0.00000000000E+00 0.  1.
         11    1    1    2    0    0 -0.47200474117E+02  0.18904777221E+02  0.23815214047E+02  0.56146591871E+02  0.00000000000E+00 0. -1.
</event>
<event>
 7    1  0.2556591E-009  0.1370178E+03  0.7561462E-02  0.1217399E+00
          1   -1    0    0  501    0  0.00000000000E+00  0.00000000000E+00  0.74563067709E+03  0.74563067709E+03  0.00000000000E+00 0. -1.
         -1   -1    0    0    0  501 -0.00000000000E+00 -0.00000000000E+00 -0.30910592727E+02  0.30910592727E+02  0.00000000000E+00 0.  1.
         25    2    1    2    0    0  0.44846079258E+02  0.84139444127E+02  0.26796108499E+03  0.31071171219E+03  0.12509199870E+03 0.  0.
          5    1    3    3  502    0  0.70232676925E+02  0.92183267294E+02  0.14940056126E+03  0.18912531238E+03  0.41800000000E+01 0.  1.
         -5    1    3    3    0  502 -0.25386597666E+02 -0.80438231669E+01  0.11856052373E+03  0.12158639981E+03  0.41800000000E+01 0.  1.
        -11    1    1    2    0    0 -0.72697393127E+02 -0.60132796086E+02  0.34343594869E+03  0.35615883392E+03  0.00000000000E+00 0.  1.
         11    1    1    2    0    0  0.27851313868E+02 -0.24006648042E+02  0.10332305069E+03  0.10967072371E+03  0.00000000000E+00 0. -1.
</event>
<event>
 7    1  0.2556591E-009  0.7328940E+02  0.7561462E-02  0.1349252E+00
         -2   -1    0    0    0  501 -0.00000000000E+00  0.00000000000E+00  0.32067161131E+02  0.32067161131E+02  0.00000000000E+00 0.  1.
          2   -1    0    0  501    0  0.00000000000E+00 -0.00000000000E+00 -0.38786070371E+03  0.38786070371E+03  0.00000000000E+00 0. -1.
         25    2    1    2    0    0  0.65605759984E+01 -0.50783934507E+01 -0.25043865170E+03  0.28006413242E+03  0.12509024249E+03 0.  0.
          5    1    3    3  502    0 -0.22454251139E+02  0.53836397646E+01  0.39347705374E+01  0.23793524129E+02  0.41800000000E+01 0.  1.
         -5    1    3    3    0  502  0.29014827137E+02 -0.10462033215E+02 -0.25437342224E+03  0.25627060829E+03  0.41800000000E+01 0.  1.
        -11    1    1    2    0    0  0.21006430335E+02  0.41379178058E+02 -0.52610074420E+02  0.70152166201E+02  0.00000000000E+00 0.  1.
         11    1    1    2    0    0 -0.27567006334E+02 -0.36300784608E+02 -0.52744816455E+02  0.69711566215E+02  0.00000000000E+00 0. -1.
</event>
<event>
 7    1  0.2556591E-009  0.1265257E+03  0.7561462E-02  0.1232704E+00
         -2   -1    0    0    0  501 -0.00000000000E+00  0.00000000000E+00  0.15957035950E+02  0.15957035950E+02  0.00000000000E+00 0. -1.
          2   -1    0    0  501    0  0.00000000000E+00 -0.00000000000E+00 -0.12557239606E+04  0.12557239606E+04  0.00000000000E+00 0.  1.
         25    2    1    2    0    0 -0.43435026200E+02 -0.74697540830E+02 -0.53763163908E+03  0.55871300295E+03  0.12508443640E+03 0.  0.
          5    1    3    3  502    0 -0.55580281713E+02 -0.92079585553E+02 -0.51940626115E+03  0.53044147115E+03  0.41800000000E+01 0.  1.
         -5    1    3    3    0  502  0.12145255513E+02  0.17382044723E+02 -0.18225377926E+02  0.28271531808E+02  0.41800000000E+01 0.  1.
        -11    1    1    2    0    0  0.12031117513E+02 -0.20384195775E+02 -0.13754691494E+03  0.13956868215E+03  0.00000000000E+00 0. -1.
         11    1    1    2    0    0  0.31403908687E+02  0.95081736604E+02 -0.56458837068E+03  0.57339931149E+03  0.00000000000E+00 0.  1.
</event>
<event>
 7    1  0.2556591E-009  0.9838866E+02  0.7561462E-02  0.1283721E+00
         -4   -1    0    0    0  501 -0.00000000000E+00  0.00000000000E+00  0.29940220022E+03  0.29940220022E+03  0.00000000000E+00 0.  1.
          4   -1    0    0  501    0  0.00000000000E+00 -0.00000000000E+00 -0.53514011125E+02  0.53514011125E+02  0.00000000000E+00 0. -1.
         25    2    1    2    0    0 -0.44834680362E+02  0.45341904554E+02  0.11542810209E+03  0.18175927858E+03  0.12508697664E+03 0.  0.
          5    1    3    3  502    0  0.31710992554E+02 -0.99193921747E+00  0.78682459920E+02  0.84940996528E+02  0.41800000000E+01 0.  1.
         -5    1    3    3    0  502 -0.76545672916E+02  0.46333843772E+02  0.36745642168E+02  0.96818282050E+02  0.41800000000E+01 0.  1.
        -11    1    1    2    0    0  0.29485267164E+01 -0.30684383018E+02 -0.25580641847E+01  0.30931680578E+02  0.00000000000E+00 0. -1.
         11    1    1    2    0    0  0.41886153646E+02 -0.14657521536E+02  0.13301815119E+03  0.14022525219E+03  0.00000000000E+00 0.  1.
</event>
<event>
 7    1  0.2556591E-009  0.1391158E+03  0.7561462E-02  0.1214524E+00
         -3   -1    0    0    0  501 -0.00000000000E+00  0.00000000000E+00  0.91348172302E+03  0.91348172302E+03  0.00000000000E+00 0.  1.
          3   -1    0    0  501    0  0.00000000000E+00 -0.00000000000E+00 -0.27240704496E+02  0.27240704496E+02  0.00000000000E+00 0. -1.
         25    2    1    2    0    0 -0.11340449085E+03  0.24537393298E+02  0.54027223804E+03  0.56657291417E+03  0.12509242048E+03 0.  0.
          5    1    3    3  502    0  0.12785823755E+02 -0.23771309940E+01  0.23146079309E+03  0.23186353568E+03  0.41800000000E+01 0. -1.
         -5    1    3    3    0  502 -0.12619031460E+03  0.26914524292E+02  0.30881144495E+03  0.33470937849E+03  0.41800000000E+01 0. -1.
        -11    1    1    2    0    0  0.46637911459E+02 -0.45838324098E+02  0.10976023518E+03  0.12776367233E+03  0.00000000000E+00 0. -1.
         11    1    1    2    0    0  0.66766579387E+02  0.21300930800E+02  0.23620854531E+03  0.24638584101E+03  0.00000000000E+00 0.  1.
</event>
<event>
 7    1  0.2556591E-009  0.1529934E+03  0.7561462E-02  0.1196842E+00
         -2   -1    0    0    0  501 -0.00000000000E+00  0.00000000000E+00  0.54152806827E+02  0.54152806827E+02  0.00000000000E+00 0.  1.
          2   -1    0    0  501    0  0.00000000000E+00 -0.00000000000E+00 -0.76363309333E+03  0.76363309333E+03  0.00000000000E+00 0. -1.
         25    2    1    2    0    0 -0.25785320851E+02  0.14089542228E+03 -0.17331827844E+03  0.25730826166E+03  0.12510760602E+03 0.  0.
          5    1    3    3  502    0 -0.19297534631E+02  0.89244283436E+02 -0.18266212941E+03  0.20425440727E+03  0.41800000000E+01 0.  1.
         -5    1    3    3    0  502 -0.64877862195E+01  0.51651138847E+02  0.93438509708E+01  0.53053854386E+02  0.41800000000E+01 0.  1.
        -11    1    1    2    0    0  0.43900907449E+02 -0.38552181748E+02 -0.22257072380E+03  0.23011146752E+03  0.00000000000E+00 0. -1.
         11    1    1    2    0    0 -0.18115586598E+02 -0.10234324054E+03 -0.31359128426E+03  0.33036617098E+03  0.00000000000E+00 0.  1.
</event>
<event>
 7    1  0.2556591E-009  0.2782973E+03  0.7561462E-02  0.1096623E+00
          2   -1    0    0  501    0  0.00000000000E+00  0.00000000000E+00  0.82914671156E+03  0.82914671156E+03  0.00000000000E+00 0. -1.
         -2   -1    0    0    0  501 -0.00000000000E+00 -0.00000000000E+00 -0.10848283262E+03  0.10848283262E+03  0.00000000000E+00 0.  1.
         25    2    1    2    0    0 -0.69717938380E+02  0.26170884051E+03  0.26053393532E+03  0.39607696797E+03  0.12508766914E+03 0.  0.
          5    1    3    3  502    0 -0.64184189521E+02  0.21366558393E+03  0.26603588803E+03  0.34722493870E+03  0.41800000000E+01 0. -1.
         -5    1    3    3    0  502 -0.55337488593E+01  0.48043256586E+02 -0.55019527110E+01  0.48852029266E+02  0.41800000000E+01 0. -1.
        -11    1    1    2    0    0  0.68394248660E+02 -0.89201169381E+02  0.19987566817E+03  0.22931398691E+03  0.00000000000E+00 0.  1.
         11    1    1    2    0    0  0.13236897206E+01 -0.17250767113E+03  0.26025427546E+03  0.31223858930E+03  0.00000000000E+00 0. -1.
</event>
<event>
 7    1  0.3228017E-009  0.2281769E+03  0.7561462E-02  0.1127930E+00
          2   -1    0    0  501    0  0.00000000000E+00  0.00000000000E+00  0.58001643748E+03  0.58001643748E+03  0.00000000000E+00 0. -1.
         -2   -1    0    0    0  501 -0.00000000000E+00 -0.00000000000E+00 -0.13861253720E+03  0.13861253720E+03  0.00000000000E+00 0.  1.
         25    2    1    2    0    0  0.96190904262E+02 -0.18958938870E+03  0.41888815106E+03  0.48611730012E+03  0.12508365202E+03 0.  0.
          5    1    3    3  502    0  0.11533733959E+03 -0.19145672262E+03  0.35742612513E+03  0.42157951310E+03  0.41800000000E+01 0. -1.
         -5    1    3    3    0  502 -0.19146435325E+02  0.18673339173E+01  0.61462025934E+02  0.64537787021E+02  0.41800000000E+01 0. -1.
        -11    1    1    2    0    0 -0.53600827666E+02  0.12156540286E+03  0.57743400202E+02  0.14486371583E+03  0.00000000000E+00 0. -1.
         11    1    1    2    0    0 -0.42590076596E+02  0.68023985843E+02 -0.35227650989E+02  0.87647958724E+02  0.00000000000E+00 0.  1.
</event>
<event>
 7    1  0.2556591E-009  0.1352938E+03  0.7561462E-02  0.1219806E+00
          1   -1    0    0  501    0  0.00000000000E+00  0.00000000000E+00  0.92856979091E+02  0.92856979091E+02  0.00000000000E+00 0. -1.
         -1   -1    0    0    0  501 -0.00000000000E+00 -0.00000000000E+00 -0.26315105269E+03  0.26315105269E+03  0.00000000000E+00 0.  1.
         25    2    1    2    0    0 -0.33178761246E+02 -0.87486209730E+02 -0.18956789952E+02  0.15735611925E+03  0.12508765442E+03 0.  0.
          5    1    3    3  502    0 -0.16500307369E+02  0.25150662284E+02 -0.30239818160E+02  0.42857145950E+02  0.41800000000E+01 0.  1.
         -5    1    3    3    0  502 -0.16678453876E+02 -0.11263687201E+03  0.11283028208E+02  0.11449897330E+03  0.41800000000E+01 0.  1.
        -11    1    1    2    0    0 -0.57625650395E+01 -0.15306384031E+02 -0.34807525595E+02  0.38458502128E+02  0.00000000000E+00 0.  1.
         11    1    1    2    0    0  0.38941326285E+02  0.10279259376E+03 -0.11652975805E+03  0.16019341040E+03  0.00000000000E+00 0. -1.
</event>
<event>
 7    1  0.2556591E-009  0.1225607E+03  0.7561462E-02  0.1238931E+00
          4   -1    0    0  501    0  0.00000000000E+00  0.00000000000E+00  0.36829940077E+03  0.36829940077E+03  0.00000000000E+00 0. -1.
         -4   -1    0    0    0  501 -0.00000000000E+00 -0.00000000000E+00 -0.43548059117E+02  0.43548059117E+02  0.00000000000E+00 0.  1.
         25    2    1    2    0    0  0.32883610369E+02  0.53438695401E+02  0.14819819981E+03  0.20383219435E+03  0.12509129077E+03 0.  0.
          5    1    3    3  502    0  0.72860224551E+02  0.59922332718E+02  0.12600805101E+03  0.15746364533E+03  0.41800000000E+01 0.  1.
         -5    1    3    3    0  502 -0.39976614182E+02 -0.64836373163E+01  0.22190148801E+02  0.46368549019E+02  0.41800000000E+01 0.  1.
        -11    1    1    2    0    0  0.15529857547E+02  0.17941429780E+02  0.39671418230E+02  0.46226537858E+02  0.00000000000E+00 0. -1.
         11    1    1    2    0    0 -0.48413467916E+02 -0.71380125181E+02  0.13688172362E+03  0.16178872769E+03  0.00000000000E+00 0.  1.
</event>
<event>
 7    1  0.2556591E-009  0.1154110E+03  0.7561462E-02  0.1250865E+00
          2   -1    0    0  501    0  0.00000000000E+00  0.00000000000E+00  0.10414906345E+04  0.10414906345E+04  0.00000000000E+00 0.  1.
         -2   -1    0    0    0  501 -0.00000000000E+00 -0.00000000000E+00 -0.13420450645E+02  0.13420450645E+02  0.00000000000E+00 0. -1.
         25    2    1    2    0    0 -0.27410497471E+02  0.31954830281E+02  0.50139306260E+03  0.51847360011E+03  0.12508966480E+03 0.  0.
          5    1    3    3  502    0  0.92987344827E+01  0.73102575009E+02  0.33835642882E+03  0.34631343933E+03  0.41800000000E+01 0. -1.
         -5    1    3    3    0  502 -0.36709231954E+02 -0.41147744727E+02  0.16303663378E+03  0.17216016078E+03  0.41800000000E+01 0. -1.
        -11    1    1    2    0    0 -0.17307759107E+02 -0.50437028415E+02  0.26138580921E+03  0.26676955152E+03  0.00000000000E+00 0. -1.
         11    1    1    2    0    0  0.44718256578E+02  0.18482198134E+02  0.26529131208E+03  0.26966793355E+03  0.00000000000E+00 0.  1.
</event>
<event>
 7    1  0.2556591E-009  0.1144698E+03  0.7561462E-02  0.1252510E+00
         -1   -1    0    0    0  501 -0.00000000000E+00  0.00000000000E+00  0.80979721146E+02  0.80979721146E+02  0.00000000000E+00 0.  1.
          1   -1    0    0  501    0  0.00000000000E+00 -0.00000000000E+00 -0.16888354808E+03  0.16888354808E+03  0.00000000000E+00 0. -1.
         25    2    1    2    0    0  0.19987538934E+02  0.29254148426E+02 -0.72469105442E+02  0.14884107470E+03  0.12508631964E+03 0.  0.
          5    1    3    3  502    0 -0.51394637534E+02 -0.96662867769E+00 -0.20914555529E+02  0.55652800210E+02  0.41800000000E+01 0. -1.
         -5    1    3    3    0  502  0.71382176468E+02  0.30220777104E+02 -0.51554549913E+02  0.93188274492E+02  0.41800000000E+01 0. -1.
        -11    1    1    2    0    0  0.33381876924E+02  0.83993730331E+01 -0.74649534226E+01  0.35222502806E+02  0.00000000000E+00 0.  1.
         11    1    1    2    0    0 -0.53369415858E+02 -0.37653521459E+02 -0.79697680729E+01  0.65799691720E+02  0.00000000000E+00 0. -1.
</event>
<event>
 7    1  0.2556591E-009  0.9656381E+02  0.7561462E-02  0.1287692E+00
          2   -1    0    0  501    0  0.00000000000E+00  0.00000000000E+00  0.11962034605E+04  0.11962034605E+04  0.00000000000E+00 0. -1.
         -2   -1    0    0    0  501 -0.00000000000E+00 -0.00000000000E+00 -0.18337646532E+02  0.18337646532E+02  0.00000000000E+00 0.  1.
         25    2    1    2    0    0 -0.44605533505E+02  0.39331162199E+02  0.98825803252E+03  0.99791636260E+03  0.12508610616E+03 0.  0.
          5    1    3    3  502    0 -0.13804677599E+01 -0.20352160252E+02  0.28353558368E+02  0.35178299992E+02  0.41800000000E+01 0.  1.
         -5    1    3    3    0  502 -0.43225065745E+02  0.59683322451E+02  0.95990447415E+03  0.96273806260E+03  0.41800000000E+01 0.  1.
        -11    1    1    2    0    0 -0.14128023905E+02 -0.37121734691E+02  0.11487853888E+03  0.12155123587E+03  0.00000000000E+00 0. -1.
         11    1    1    2    0    0  0.58733557411E+02 -0.22094275077E+01  0.74729242546E+02  0.95073508547E+02  0.00000000000E+00 0.  1.
</event>
<event>
 7    1  0.2556591E-009  0.7199837E+02  0.7561462E-02  0.1353426E+00
          2   -1    0    0  501    0  0.00000000000E+00  0.00000000000E+00  0.99460050468E+03  0.99460050468E+03  0.00000000000E+00 0. -1.
         -2   -1    0    0    0  501 -0.00000000000E+00 -0.00000000000E+00 -0.13842690724E+02  0.13842690724E+02  0.00000000000E+00 0.  1.
         25    2    1    2    0    0 -0.24690031020E+02 -0.30726466179E+02  0.46311707725E+03  0.48132887505E+03  0.12508535234E+03 0.  0.
          5    1    3    3  502    0 -0.29108617795E+01  0.16587818042E+01 -0.74232469496E+01  0.91543251334E+01  0.41800000000E+01 0. -1.
         -5    1    3    3    0  502 -0.21779169240E+02 -0.32385247984E+02  0.47054032419E+03  0.47217454992E+03  0.41800000000E+01 0. -1.
        -11    1    1    2    0    0  0.58339165807E+02  0.30297462497E+02  0.35324573959E+03  0.35931037703E+03  0.00000000000E+00 0. -1.
         11    1    1    2    0    0 -0.33649134787E+02  0.42900368239E+00  0.16439499712E+03  0.16780394332E+03  0.00000000000E+00 0.  1.
</event>
<event>
 7    1  0.2556591E-009  0.1318296E+03  0.7561462E-02  0.1224766E+00
         -2   -1    0    0    0  501 -0.00000000000E+00  0.00000000000E+00  0.40543347039E+02  0.40543347039E+02  0.00000000000E+00 0. -1.
          2   -1    0    0  501    0  0.00000000000E+00 -0.00000000000E+00 -0.80624557040E+03  0.80624557040E+03  0.00000000000E+00 0.  1.
         25    2    1    2    0    0  0.75677558183E+02  0.85386765869E+02 -0.60905870804E+03  0.63215471953E+03  0.12509631088E+03 0.  0.
          5    1    3    3  502    0  0.53556485792E+02 -0.70986798492E+01 -0.38386214428E+03  0.38766777869E+03  0.41800000000E+01 0.  1.
         -5    1    3    3    0  502  0.22121072391E+02  0.92485445718E+02 -0.22519656376E+03  0.24448694084E+03  0.41800000000E+01 0.  1.
        -11    1    1    2    0    0 -0.47586620230E+02 -0.48814008730E+02 -0.15403338977E+03  0.16844458744E+03  0.00000000000E+00 0.  1.
         11    1    1    2    0    0 -0.28090937953E+02 -0.36572757139E+02 -0.26101255546E+01  0.46189610468E+02  0.00000000000E+00 0. -1.
</event>
<event>
 7    1  0.2556591E-009  0.1223302E+03  0.7561462E-02  0.1239302E+00
          2   -1    0    0  501    0  0.00000000000E+00  0.00000000000E+00  0.12655681738E+03  0.12655681738E+03  0.00000000000E+00 0. -1.
         -2   -1    0    0    0  501 -0.00000000000E+00 -0.00000000000E+00 -0.15067091813E+03  0.15067091813E+03  0.00000000000E+00 0.  1.
         25    2    1    2    0    0  0.94398064290E+01  0.86700502747E+02 -0.18904638199E+02  0.15365845472E+03  0.12508976073E+03 0.  0.
          5    1    3    3  502    0 -0.95817296888E+01  0.11639527318E+03 -0.17022852374E+02  0.11809707475E+03  0.41800000000E+01 0. -1.
         -5    1    3    3    0  502  0.19021536118E+02 -0.29694770432E+02 -0.18817858248E+01  0.35561379967E+02  0.41800000000E+01 0. -1.
        -11    1    1    2    0    0 -0.20526595426E+02 -0.56810830047E+02 -0.42985740466E+02  0.74138960161E+02  0.00000000000E+00 0.  1.
         11    1    1    2    0    0  0.11086788997E+02 -0.29889672700E+02  0.37776277920E+02  0.49430320633E+02  0.00000000000E+00 0. -1.
</event>
<event>
 7    1  0.2556591E-009  0.9344733E+02  0.7561462E-02  0.1294712E+00
         -1   -1    0    0    0  501 -0.00000000000E+00  0.00000000000E+00  0.43165353765E+02  0.43165353765E+02  0.00000000000E+00 0.  1.
          1   -1    0    0  501    0  0.00000000000E+00 -0.00000000000E+00 -0.30909745411E+03  0.30909745411E+03  0.00000000000E+00 0. -1.
         25    2    1    2    0    0  0.41227146134E+02  0.15495320816E+02 -0.12236492445E+03  0.18044539131E+03  0.12509029524E+03 0.  0.
          5    1    3    3  502    0 -0.15256535399E+00 -0.36724621448E+02  0.43534249997E+01  0.37217547016E+02  0.41800000000E+01 0.  1.
         -5    1    3    3    0  502  0.41379711488E+02  0.52219942265E+02 -0.12671834945E+03  0.14322784429E+03  0.41800000000E+01 0.  1.
        -11    1    1    2    0    0  0.19589182424E+02 -0.10311601582E+02 -0.82725074078E+02  0.85635874938E+02  0.00000000000E+00 0. -1.
         11    1    1    2    0    0 -0.60816328559E+02 -0.51837192342E+01 -0.60842101823E+02  0.86181541636E+02  0.00000000000E+00 0.  1.
</event>
<event>
 7    1  0.2556591E-009  0.1262906E+03  0.7561462E-02  0.1233066E+00
          2   -1    0    0  501    0  0.00000000000E+00  0.00000000000E+00  0.11478753829E+03  0.11478753829E+03  0.00000000000E+00 0.  1.
         -2   -1    0    0    0  501 -0.00000000000E+00 -0.00000000000E+00 -0.19944983380E+03  0.19944983380E+03  0.00000000000E+00 0. -1.
         25    2    1    2    0    0 -0.16235679093E+02 -0.92734852666E+02 -0.93792243165E+02  0.18250316780E+03  0.12508825366E+03 0.  0.
          5    1    3    3  502    0  0.19958361061E+02  0.20493772431E+02  0.31158391937E+01  0.29077684547E+02  0.41800000000E+01 0.  1.
         -5    1    3    3    0  502 -0.36194040154E+02 -0.11322862510E+03 -0.96908082359E+02  0.15342548325E+03  0.41800000000E+01 0.  1.
        -11    1    1    2    0    0 -0.55761322821E+01  0.78458060954E+02  0.42488169900E+02  0.89398015422E+02  0.00000000000E+00 0.  1.
         11    1    1    2    0    0  0.21811811375E+02  0.14276791712E+02 -0.33358222245E+02  0.42336188874E+02  0.00000000000E+00 0. -1.
</event>
<event>
 7    1  0.2556591E-009  0.9573597E+02  0.7561462E-02  0.1289527E+00
          1   -1    0    0  501    0  0.00000000000E+00  0.00000000000E+00  0.38638971210E+02  0.38638971210E+02  0.00000000000E+00 0. -1.
         -1   -1    0    0    0  501 -0.00000000000E+00 -0.00000000000E+00 -0.31439623439E+03  0.31439623439E+03  0.00000000000E+00 0.  1.
         25    2    1    2    0    0 -0.35905267739E+02 -0.32942054041E+01 -0.24061130419E+03  0.27357136137E+03  0.12508976784E+03 0.  0.
          5    1    3    3  502    0 -0.21091462241E+02 -0.59138359918E+02 -0.17540771063E+03  0.18635324720E+03  0.41800000000E+01 0.  1.
         -5    1    3    3    0  502 -0.14813805497E+02  0.55844154514E+02 -0.65203593558E+02  0.87218114171E+02  0.41800000000E+01 0.  1.
        -11    1    1    2    0    0  0.23772707015E+02 -0.28191629715E+02 -0.12992169528E+02  0.39098670743E+02  0.00000000000E+00 0.  1.
         11    1    1    2    0    0  0.12132560724E+02  0.31485835119E+02 -0.22153789461E+02  0.40365173483E+02  0.00000000000E+00 0. -1.
</event>
<event>
 7    1  0.2556591E-009  0.8720255E+02  0.7561462E-02  0.1309771E+00
          2   -1    0    0  501    0  0.00000000000E+00  0.00000000000E+00  0.48551217048E+03  0.48551217048E+03  0.00000000000E+00 0. -1.
         -2   -1    0    0    0  501 -0.00000000000E+00 -0.00000000000E+00 -0.39267291981E+02  0.39267291981E+02  0.00000000000E+00 0.  1.
         25    2    1    2    0    0  0.28574757159E+02 -0.18639253266E+02  0.39128036733E+03  0.41220324982E+03  0.12508898750E+03 0.  0.
          5    1    3    3  502    0 -0.27976600570E+02 -0.20678637985E+02  0.28936010921E+02  0.45442946387E+02  0.41800000000E+01 0.  1.
         -5    1    3    3    0  502  0.56551357728E+02  0.20393847187E+01  0.36234435641E+03  0.36676030344E+03  0.41800000000E+01 0.  1.
        -11    1    1    2    0    0  0.24633805690E+02  0.15950275316E+02 -0.76852990812E+01  0.30336438278E+02  0.00000000000E+00 0.  1.
         11    1    1    2    0    0 -0.53208562849E+02  0.26889779502E+01  0.62649810244E+02  0.82239774358E+02  0.00000000000E+00 0. -1.
</event>
<event>
 7    1  0.2556591E-009  0.2088136E+03  0.7561462E-02  0.1142509E+00
         -2   -1    0    0    0  501 -0.00000000000E+00  0.00000000000E+00  0.21652210571E+03  0.21652210571E+03  0.00000000000E+00 0.  1.
          2   -1    0    0  501    0  0.00000000000E+00 -0.00000000000E+00 -0.22017612933E+03  0.22017612933E+03  0.00000000000E+00 0. -1.
         25    2    1    2    0    0  0.17184466103E+03 -0.65573584995E+02  0.36738823814E+02  0.22545146081E+03  0.12509251549E+03 0.  0.
          5    1    3    3  502    0  0.53049583349E+02 -0.74448452994E+02 -0.19634267410E+02  0.93593842230E+02  0.41800000000E+01 0. -1.
         -5    1    3    3    0  502  0.11879507768E+03  0.88748679989E+01  0.56373091224E+02  0.13185761858E+03  0.41800000000E+01 0. -1.
        -11    1    1    2    0    0 -0.31908569783E+02  0.58699636153E+02 -0.66940260525E+01  0.67146214300E+02  0.00000000000E+00 0.  1.
         11    1    1    2    0    0 -0.13993609125E+03  0.68739488422E+01 -0.33698821380E+02  0.14410055992E+03  0.00000000000E+00 0. -1.
</event>
<event>
 7    1  0.2556591E-009  0.1650212E+03  0.7561462E-02  0.1183142E+00
         -1   -1    0    0    0  501 -0.00000000000E+00  0.00000000000E+00  0.40906904761E+02  0.40906904761E+02  0.00000000000E+00 0.  1.
          1   -1    0    0  501    0  0.00000000000E+00 -0.00000000000E+00 -0.72590851337E+03  0.72590851337E+03  0.00000000000E+00 0. -1.
         25    2    1    2    0    0  0.97913586836E+02  0.76892759781E+02 -0.25502319826E+03  0.31013681622E+03  0.12509374937E+03 0.  0.
          5    1    3    3  502    0  0.72915561918E+02  0.11162331389E+03 -0.18832756632E+03  0.23078385561E+03  0.41800000000E+01 0.  1.
         -5    1    3    3    0  502  0.24998024918E+02 -0.34730554106E+02 -0.66695631941E+02  0.79352960615E+02  0.41800000000E+01 0.  1.
        -11    1    1    2    0    0 -0.43683797621E+02  0.15641068674E+02 -0.11912316722E+03  0.12784070624E+03  0.00000000000E+00 0.  1.
         11    1    1    2    0    0 -0.54229789215E+02 -0.92533828455E+02 -0.31085524312E+03  0.32883789566E+03  0.00000000000E+00 0. -1.
</event>
<event>
 7    1  0.2556591E-009  0.1562061E+03  0.7561462E-02  0.1193048E+00
         -2   -1    0    0    0  501 -0.00000000000E+00  0.00000000000E+00  0.11027686815E+03  0.11027686815E+03  0.00000000000E+00 0. -1.
          2   -1    0    0  501    0  0.00000000000E+00 -0.00000000000E+00 -0.33039550703E+03  0.33039550703E+03  0.00000000000E+00 0.  1.
         25    2    1    2    0    0  0.57348322811E+02  0.14385172627E+03 -0.15153008677E+03  0.25017574574E+03  0.12507752508E+03 0.  0.
          5    1    3    3  502    0  0.25914459607E+02  0.10019807220E+03 -0.16656372991E+02  0.10491005695E+03  0.41800000000E+01 0. -1.
         -5    1    3    3    0  502  0.31433863203E+02  0.43653654071E+02 -0.13487371378E+03  0.14526568879E+03  0.41800000000E+01 0. -1.
        -11    1    1    2    0    0 -0.10379551464E+02 -0.23819147515E+02 -0.55073937886E+02  0.60895201052E+02  0.00000000000E+00 0.  1.
         11    1    1    2    0    0 -0.46968771347E+02 -0.12003257875E+03 -0.13514614226E+02  0.12960142839E+03  0.00000000000E+00 0. -1.
</event>
<event>
 7    1  0.3521706E-009  0.1102840E+03  0.7561462E-02  0.1260045E+00
          2   -1    0    0  501    0  0.00000000000E+00  0.00000000000E+00  0.12633388279E+04  0.12633388279E+04  0.00000000000E+00 0.  1.
         -2   -1    0    0    0  501 -0.00000000000E+00 -0.00000000000E+00 -0.14611023537E+02  0.14611023537E+02  0.00000000000E+00 0. -1.
         25    2    1    2    0    0  0.45506400721E+02  0.34242050581E+01  0.10024377646E+04  0.10112433621E+04  0.12509639422E+03 0.  0.
          5    1    3    3  502    0  0.86611167722E+02 -0.14787999218E+02  0.67458252572E+03  0.68029349232E+03  0.41800000000E+01 0.  1.
         -5    1    3    3    0  502 -0.41104767001E+02  0.18212204276E+02  0.32785523885E+03  0.33094986977E+03  0.41800000000E+01 0.  1.
        -11    1    1    2    0    0 -0.88268446806E+01 -0.36809778110E+02  0.42259183787E+02  0.56733689867E+02  0.00000000000E+00 0. -1.
         11    1    1    2    0    0 -0.36679556040E+02  0.33385573052E+02  0.20403085599E+03  0.20997279947E+03  0.00000000000E+00 0.  1.
</event>
<event>
 7    1  0.2556591E-009  0.2438000E+03  0.7561462E-02  0.1117287E+00
          1   -1    0    0  501    0  0.00000000000E+00  0.00000000000E+00  0.10432524196E+04  0.10432524196E+04  0.00000000000E+00 0. -1.
         -1   -1    0    0    0  501 -0.00000000000E+00 -0.00000000000E+00 -0.60713130465E+02  0.60713130465E+02  0.00000000000E+00 0.  1.
         25    2    1    2    0    0 -0.20705947123E+03 -0.83778210025E+02  0.57684299625E+03  0.63110005484E+03  0.12508806415E+03 0.  0.
          5    1    3    3  502    0 -0.94042492768E+02 -0.94661423957E+02  0.22785963081E+03  0.26408759794E+03  0.41800000000E+01 0.  1.
         -5    1    3    3    0  502 -0.11301697846E+03  0.10883213933E+02  0.34898336544E+03  0.36701245690E+03  0.41800000000E+01 0.  1.
        -11    1    1    2    0    0  0.19576107753E+03  0.10069481796E+03  0.34898974877E+03  0.41262051644E+03  0.00000000000E+00 0.  1.
         11    1    1    2    0    0  0.11298393699E+02 -0.16916607934E+02  0.56706544142E+02  0.60244978817E+02  0.00000000000E+00 0. -1.
</event>
<event>
 7    1  0.2556591E-009  0.1023021E+03  0.7561462E-02  0.1275528E+00
         -2   -1    0    0    0  501 -0.00000000000E+00  0.00000000000E+00  0.18038047509E+02  0.18038047509E+02  0.00000000000E+00 0. -1.
          2   -1    0    0  501    0  0.00000000000E+00 -0.00000000000E+00 -0.86159717560E+03  0.86159717560E+03  0.00000000000E+00 0.  1.
         25    2    1    2    0    0 -0.42355616726E+02 -0.39070299475E+02 -0.40058680452E+03  0.42360118697E+03  0.12509073137E+03 0.  0.
          5    1    3    3  502    0 -0.62428284044E+02 -0.49687497722E+02 -0.39017781402E+03  0.39827419830E+03  0.41800000000E+01 0.  1.
         -5    1    3    3    0  502  0.20072667318E+02  0.10617198246E+02 -0.10408990507E+02  0.25326988673E+02  0.41800000000E+01 0.  1.
        -11    1    1    2    0    0 -0.75243630777E+01  0.49992646105E+02 -0.29970782825E+03  0.30394187440E+03  0.00000000000E+00 0.  1.
         11    1    1    2    0    0  0.49879979803E+02 -0.10922346630E+02 -0.14326449532E+03  0.15209216173E+03  0.00000000000E+00 0. -1.
</event>
<event>
 7    1  0.2556591E-009  0.9591842E+02  0.7561462E-02  0.1289121E+00
         -1   -1    0    0    0  501 -0.00000000000E+00  0.00000000000E+00  0.12981742043E+02  0.12981742043E+02  0.00000000000E+00 0.  1.
          1   -1    0    0  501    0  0.00000000000E+00 -0.00000000000E+00 -0.11395758994E+04  0.11395758994E+04  0.00000000000E+00 0. -1.
         25    2    1    2    0    0 -0.40166835215E+01 -0.37779602362E+02 -0.83237381990E+03  0.84257721719E+03  0.12508700484E+03 0.  0.
          5    1    3    3  502    0 -0.61058519564E+02 -0.26016229831E+02 -0.56508122206E+03  0.56898088452E+03  0.41800000000E+01 0.  1.
         -5    1    3    3    0  502  0.57041836043E+02 -0.11763372532E+02 -0.26729259784E+03  0.27359633267E+03  0.41800000000E+01 0.  1.
        -11    1    1    2    0    0 -0.99149202589E+01 -0.11817944824E+02 -0.50127653636E+01  0.16220273740E+02  0.00000000000E+00 0.  1.
         11    1    1    2    0    0  0.13931603780E+02  0.49597547186E+02 -0.28920757210E+03  0.29376015051E+03  0.00000000000E+00 0. -1.
</event>
<event>
 7    1  0.2556591E-009  0.7012992E+02  0.7561462E-02  0.1359652E+00
          1   -1    0    0  501    0  0.00000000000E+00  0.00000000000E+00  0.27126569521E+03  0.27126569521E+03  0.00000000000E+00 0. -1.
         -1   -1    0    0    0  501 -0.00000000000E+00 -0.00000000000E+00 -0.54505943464E+02  0.54505943464E+02  0.00000000000E+00 0.  1.
         25    2    1    2    0    0 -0.18424476694E+02 -0.19853176353E+01  0.19224788634E+03  0.23010892940E+03  0.12508983476E+03 0.  0.
          5    1    3    3  502    0 -0.46391237260E+02 -0.96369273421E+01  0.14161166992E+02  0.49628906029E+02  0.41800000000E+01 0.  1.
         -5    1    3    3    0  502  0.27966760566E+02  0.76516097068E+01  0.17808671935E+03  0.18048002337E+03  0.41800000000E+01 0.  1.
        -11    1    1    2    0    0  0.39237786646E+02  0.10951452651E+02 -0.20248534012E+02  0.45492211924E+02  0.00000000000E+00 0.  1.
         11    1    1    2    0    0 -0.20813309953E+02 -0.89661350158E+01  0.44760399409E+02  0.50170497342E+02  0.00000000000E+00 0. -1.
</event>
<event>
 7    1  0.2556591E-009  0.1503124E+03  0.7561462E-02  0.1200090E+00
         -3   -1    0    0    0  501 -0.00000000000E+00  0.00000000000E+00  0.15035352761E+03  0.15035352761E+03  0.00000000000E+00 0.  1.
          3   -1    0    0  501    0  0.00000000000E+00 -0.00000000000E+00 -0.15914653300E+03  0.15914653300E+03  0.00000000000E+00 0. -1.
         25    2    1    2    0    0  0.73771241418E+02 -0.75875144739E+02  0.24026618267E+02  0.16560273191E+03  0.12509097802E+03 0.  0.
          5    1    3    3  502    0  0.81202081690E+02 -0.10372083728E+03  0.31567893807E+02  0.13552045778E+03  0.41800000000E+01 0. -1.
         -5    1    3    3    0  502 -0.74308402718E+01  0.27845692543E+02 -0.75412755396E+01  0.30082274135E+02  0.41800000000E+01 0. -1.
        -11    1    1    2    0    0 -0.51058027148E+02  0.96407046764E+02 -0.30042525883E+02  0.11315385174E+03  0.00000000000E+00 0.  1.
         11    1    1    2    0    0 -0.22713214270E+02 -0.20531902025E+02 -0.27770977664E+01  0.30743476955E+02  0.00000000000E+00 0. -1.
</event>
<event>
 7    1  0.2556591E-009  0.1247517E+03  0.7561462E-02  0.1235458E+00
          2   -1    0    0  501    0  0.00000000000E+00  0.00000000000E+00  0.68100604492E+02  0.68100604492E+02  0.00000000000E+00 0. -1.
         -2   -1    0    0    0  501 -0.00000000000E+00 -0.00000000000E+00 -0.34904342458E+03  0.34904342458E+03  0.00000000000E+00 0.  1.
         25    2    1    2    0    0 -0.99385753998E+02 -0.43444363906E+02 -0.12643391770E+03  0.20832256751E+03  0.12509122966E+03 0.  0.
          5    1    3    3  502    0 -0.83170725118E+02 -0.14278019773E+02 -0.76122890726E+01  0.84833075567E+02  0.41800000000E+01 0.  1.
         -5    1    3    3    0  502 -0.16215028880E+02 -0.29166344133E+02 -0.11882162863E+03  0.12348949195E+03  0.41800000000E+01 0.  1.
        -11    1    1    2    0    0  0.20851000070E+02 -0.21146104266E+02 -0.84923485302E+01  0.30887568909E+02  0.00000000000E+00 0. -1.
         11    1    1    2    0    0  0.78534753928E+02  0.64590468172E+02 -0.14601655386E+03  0.17793389265E+03  0.00000000000E+00 0.  1.
</event>
<event>
 7    1  0.2556591E-009  0.1018536E+03  0.7561462E-02  0.1276446E+00
         -2   -1    0    0    0  501 -0.00000000000E+00  0.00000000000E+00  0.13926038917E+03  0.13926038917E+03  0.00000000000E+00 0.  1.
          2   -1    0    0  501    0  0.00000000000E+00 -0.00000000000E+00 -0.99875624487E+02  0.99875624487E+02  0.00000000000E+00 0. -1.
         25    2    1    2    0    0 -0.19721169333E+02 -0.40865406429E+02  0.16028920744E+02  0.13402783840E+03  0.12509048407E+03 0.  0.
          5    1    3    3  502    0  0.39983695777E+02 -0.28519843600E+02  0.44686162935E+02  0.66531217972E+02  0.41800000000E+01 0. -1.
         -5    1    3    3    0  502 -0.59704865110E+02 -0.12345562829E+02 -0.28657242191E+02  0.67496620429E+02  0.41800000000E+01 0. -1.
        -11    1    1    2    0    0  0.43402047497E+02  0.51497265825E+02  0.35855264023E+02  0.76297484051E+02  0.00000000000E+00 0.  1.
         11    1    1    2    0    0 -0.23680878164E+02 -0.10631859396E+02 -0.12499420088E+02  0.28810691199E+02  0.00000000000E+00 0. -1.
</event>
<event>
 7    1  0.2556591E-009  0.1408136E+03  0.7561462E-02  0.1212238E+00
          1   -1    0    0  501    0  0.00000000000E+00  0.00000000000E+00  0.47349179541E+03  0.47349179541E+03  0.00000000000E+00 0. -1.
         -1   -1    0    0    0  501 -0.00000000000E+00 -0.00000000000E+00 -0.44058748179E+02  0.44058748179E+02  0.00000000000E+00 0.  1.
         25    2    1    2    0    0 -0.88024562887E+02  0.36593459080E+02  0.21212875365E+03  0.26407038325E+03  0.12508858568E+03 0.  0.
          5    1    3    3  502    0  0.23384321438E+02  0.37510752575E+02  0.45423388079E+02  0.63518813217E+02  0.41800000000E+01 0. -1.
         -5    1    3    3    0  502 -0.11140888433E+03 -0.91729349426E+00  0.16670536557E+03  0.20055157003E+03  0.41800000000E+01 0. -1.
        -11    1    1    2    0    0  0.31947614065E+02 -0.57589515448E+02  0.79542002510E+02  0.10326728668E+03  0.00000000000E+00 0.  1.
         11    1    1    2    0    0  0.56076948822E+02  0.20996056368E+02  0.13776229108E+03  0.15021287367E+03  0.00000000000E+00 0. -1.
</event>
<event>
 7    1  0.2556591E-009  0.1141143E+03  0.7561462E-02  0.1253135E+00
         -2   -1    0    0    0  501 -0.00000000000E+00  0.00000000000E+00  0.55539050946E+02  0.55539050946E+02  0.00000000000E+00 0. -1.
          2   -1    0    0  501    0  0.00000000000E+00 -0.00000000000E+00 -0.24909246779E+03  0.24909246779E+03  0.00000000000E+00 0.  1.
         25    2    1    2    0    0 -0.22868125807E+02  0.37891632383E+02 -0.10303144137E+03  0.16799364308E+03  0.12509060405E+03 0.  0.
          5    1    3    3  502    0 -0.32412535834E+02  0.79740978009E+02 -0.49974566373E+02  0.99619906330E+02  0.41800000000E+01 0.  1.
         -5    1    3    3    0  502  0.95444100273E+01 -0.41849345626E+02 -0.53056874998E+02  0.68373736746E+02  0.41800000000E+01 0.  1.
        -11    1    1    2    0    0  0.57121853100E+02 -0.24089880528E+02 -0.72971152467E+02  0.95749765211E+02  0.00000000000E+00 0. -1.
         11    1    1    2    0    0 -0.34253727293E+02 -0.13801751854E+02 -0.17550823002E+02  0.40888110445E+02  0.00000000000E+00 0.  1.
</event>
<event>
 7    1  0.2556591E-009  0.6217787E+02  0.7561462E-02  0.1388913E+00
          1   -1    0    0  501    0  0.00000000000E+00  0.00000000000E+00  0.23750670044E+03  0.23750670044E+03  0.00000000000E+00 0. -1.
         -1   -1    0    0    0  501 -0.00000000000E+00 -0.00000000000E+00 -0.55631129489E+02  0.55631129489E+02  0.00000000000E+00 0.  1.
         25    2    1    2    0    0  0.72574574153E+01 -0.91639043246E+01  0.57485474777E+02  0.13816140861E+03  0.12508935681E+03 0.  0.
          5    1    3    3  502    0  0.19940616969E+02  0.91277282138E+01 -0.35786481812E+02  0.42179240249E+02  0.41800000000E+01 0. -1.
         -5    1    3    3    0  502 -0.12683159554E+02 -0.18291632538E+02  0.93271956589E+02  0.95982168361E+02  0.41800000000E+01 0. -1.
        -11    1    1    2    0    0 -0.28082993381E+02  0.35845264570E+02  0.10833281600E+03  0.11751398441E+03  0.00000000000E+00 0.  1.
         11    1    1    2    0    0  0.20825535965E+02 -0.26681360245E+02  0.16057280177E+02  0.37462436913E+02  0.00000000000E+00 0. -1.
</event>
<event>
 7    1  0.2556591E-009  0.1002230E+03  0.7561462E-02  0.1279828E+00
          1   -1    0    0  501    0  0.00000000000E+00  0.00000000000E+00  0.14261982975E+03  0.14261982975E+03  0.00000000000E+00 0. -1.
         -1   -1    0    0    0  501 -0.00000000000E+00 -0.00000000000E+00 -0.13711357183E+03  0.13711357183E+03  0.00000000000E+00 0.  1.
         25    2    1    2    0    0  0.10862344216E+02  0.79422446027E+02  0.37084877444E+02  0.15312635384E+03  0.12508587710E+03 0.  0.
          5    1    3    3  502    0  0.18697691014E+02  0.94604752680E+02 -0.15424052307E+02  0.97749867869E+02  0.41800000000E+01 0.  1.
         -5    1    3    3    0  502 -0.78353467975E+01 -0.15182306652E+02  0.52508929751E+02  0.55376485969E+02  0.41800000000E+01 0.  1.
        -11    1    1    2    0    0  0.10179924911E+02 -0.12180095905E+02  0.29409298533E+02  0.33419940868E+02  0.00000000000E+00 0. -1.
         11    1    1    2    0    0 -0.21042269127E+02 -0.67242350122E+02 -0.60987918050E+02  0.93187106877E+02  0.00000000000E+00 0.  1.
</event>
<event>
 7    1  0.2556591E-009  0.1074962E+03  0.7561462E-02  0.1265278E+00
          2   -1    0    0  501    0  0.00000000000E+00  0.00000000000E+00  0.91569107350E+02  0.91569107350E+02  0.00000000000E+00 0. -1.
         -2   -1    0    0    0  501 -0.00000000000E+00 -0.00000000000E+00 -0.14923954622E+03  0.14923954622E+03  0.00000000000E+00 0.  1.
         25    2    1    2    0    0 -0.38844833572E+02  0.18862625857E+02 -0.22146476418E+02  0.13417062461E+03  0.12508625161E+03 0.  0.
          5    1    3    3  502    0  0.45447166309E+02 -0.91509304984E+00 -0.76968856959E+01  0.46292513112E+02  0.41800000000E+01 0.  1.
         -5    1    3    3    0  502 -0.84291999881E+02  0.19777718907E+02 -0.14449590723E+02  0.87878111502E+02  0.41800000000E+01 0.  1.
        -11    1    1    2    0    0 -0.14795766509E+02  0.13488346662E+02  0.15920733600E+02  0.25579678665E+02  0.00000000000E+00 0. -1.
         11    1    1    2    0    0  0.53640600081E+02 -0.32350972519E+02 -0.51444696052E+02  0.81058350290E+02  0.00000000000E+00 0.  1.
</event>
<event>
 7    1  0.2556591E-009  0.9409141E+02  0.7561462E-02  0.1293236E+00
         -1   -1    0    0    0  501 -0.00000000000E+00  0.00000000000E+00  0.29379059148E+02  0.29379059148E+02  0.00000000000E+00 0.  1.
          1   -1    0    0  501    0  0.00000000000E+00 -0.00000000000E+00 -0.39652360249E+03  0.39652360249E+03  0.00000000000E+00 0. -1.
         25    2    1    2    0    0  0.40175003585E+02 -0.22583442892E+02 -0.26998207035E+03  0.30109919333E+03  0.12508542324E+03 0.  0.
          5    1    3    3  502    0  0.74474026295E+02  0.18172303216E+02 -0.12629177545E+03  0.14779613710E+03  0.41800000000E+01 0.  1.
         -5    1    3    3    0  502 -0.34299022710E+02 -0.40755746108E+02 -0.14369029490E+03  0.15330305622E+03  0.41800000000E+01 0.  1.
        -11    1    1    2    0    0 -0.26705674523E+02 -0.51034868803E+01 -0.50141926817E+01  0.27647436741E+02  0.00000000000E+00 0.  1.
         11    1    1    2    0    0 -0.13469329062E+02  0.27686929772E+02 -0.92148280313E+02  0.97156031568E+02  0.00000000000E+00 0. -1.
</event>
<event>
 7    1  0.2556591E-009  0.8669645E+02  0.7561462E-02  0.1311055E+00
         -1   -1    0    0    0  501 -0.00000000000E+00  0.00000000000E+00  0.85575439380E+02  0.85575439380E+02  0.00000000000E+00 0.  1.
          1   -1    0    0  501    0  0.00000000000E+00 -0.00000000000E+00 -0.15029754617E+03  0.15029754617E+03  0.00000000000E+00 0. -1.
         25    2    1    2    0    0 -0.22934328262E+02 -0.20935286765E+02 -0.39666209224E+02  0.13484840423E+03  0.12508562797E+03 0.  0.
          5    1    3    3  502    0 -0.51141912179E+02 -0.54613562490E+02  0.84787940908E+00  0.74942162290E+02  0.41800000000E+01 0.  1.
         -5    1    3    3    0  502  0.28207583917E+02  0.33678275724E+02 -0.40514088633E+02  0.59906241945E+02  0.41800000000E+01 0.  1.
        -11    1    1    2    0    0  0.92909813225E+00  0.30369883784E+02 -0.54909872694E+02  0.62755774106E+02  0.00000000000E+00 0. -1.
         11    1    1    2    0    0  0.22005230130E+02 -0.94345970185E+01  0.29853975130E+02  0.38268807207E+02  0.00000000000E+00 0.  1.
</event>
<event>
 7    1  0.2556591E-009  0.1576588E+03  0.7561462E-02  0.1191366E+00
         -2   -1    0    0    0  501 -0.00000000000E+00  0.00000000000E+00  0.69869834669E+02  0.69869834669E+02  0.00000000000E+00 0.  1.
          2   -1    0    0  501    0  0.00000000000E+00 -0.00000000000E+00 -0.41503050706E+03  0.41503050706E+03  0.00000000000E+00 0. -1.
         25    2    1    2    0    0 -0.12887366817E+03  0.59240506091E+01 -0.16563479981E+03  0.24438794385E+03  0.12508822274E+03 0.  0.
          5    1    3    3  502    0 -0.34476389913E+01  0.42290368225E+02 -0.71875273434E+02  0.83569664295E+02  0.41800000000E+01 0. -1.
         -5    1    3    3    0  502 -0.12542602918E+03 -0.36366317616E+02 -0.93759526380E+02  0.16081827956E+03  0.41800000000E+01 0. -1.
        -11    1    1    2    0    0  0.68097230836E+01  0.16559979295E+02  0.45746029321E+01  0.18480590757E+02  0.00000000000E+00 0.  1.
         11    1    1    2    0    0  0.12206394509E+03 -0.22484029904E+02 -0.18410047551E+03  0.22203180712E+03  0.00000000000E+00 0. -1.
</event>
<event>
 7    1  0.2556591E-009  0.8250468E+02  0.7561462E-02  0.1322090E+00
          3   -1    0    0  501    0  0.00000000000E+00  0.00000000000E+00  0.44567114733E+03  0.44567114733E+03  0.00000000000E+00 0. -1.
         -3   -1    0    0    0  501 -0.00000000000E+00 -0.00000000000E+00 -0.36125607910E+02  0.36125607910E+02  0.00000000000E+00 0.  1.
         25    2    1    2    0    0 -0.28686266775E+02 -0.32932051776E+02  0.13344602745E+03  0.18804914716E+03  0.12508883872E+03 0.  0.
          5    1    3    3  502    0 -0.15062277837E+02 -0.49239882532E+02  0.15136608776E+03  0.15993937342E+03  0.41800000000E+01 0. -1.
         -5    1    3    3    0  502 -0.13623988938E+02  0.16307830755E+02 -0.17920060311E+02  0.28109773746E+02  0.41800000000E+01 0. -1.
        -11    1    1    2    0    0  0.32876920264E+02 -0.20072964847E+02  0.60765218864E+02  0.71946004944E+02  0.00000000000E+00 0.  1.
         11    1    1    2    0    0 -0.41906534896E+01  0.53005016623E+02  0.21533429311E+03  0.22180160314E+03  0.00000000000E+00 0. -1.
</event>
<event>
 7    1  0.2556591E-009  0.1194007E+03  0.7561462E-02  0.1244089E+00
         -2   -1    0    0    0  501 -0.00000000000E+00  0.00000000000E+00  0.86370909084E+02  0.86370909084E+02  0.00000000000E+00 0.  1.
          2   -1    0    0  501    0  0.00000000000E+00 -0.00000000000E+00 -0.35592379644E+03  0.35592379644E+03  0.00000000000E+00 0. -1.
         25    2    1    2    0    0  0.37978973870E+01  0.66221811142E+02 -0.29512049543E+03  0.32732690744E+03  0.12508814978E+03 0.  0.
          5    1    3    3  502    0  0.61999935418E+02  0.43727865437E+02 -0.19498810253E+03  0.20927004262E+03  0.41800000000E+01 0.  1.
         -5    1    3    3    0  502 -0.58202038031E+02  0.22493945705E+02 -0.10013239290E+03  0.11805686482E+03  0.41800000000E+01 0.  1.
        -11    1    1    2    0    0  0.73434742454E+01 -0.81245048533E+02  0.40460614784E+02  0.91059024121E+02  0.00000000000E+00 0.  1.
         11    1    1    2    0    0 -0.11141371632E+02  0.15023237391E+02 -0.14893006708E+02  0.23908773962E+02  0.00000000000E+00 0. -1.
</event>
<event>
 7    1  0.2556591E-009  0.1224428E+03  0.7561462E-02  0.1239121E+00
         -3   -1    0    0    0  501 -0.00000000000E+00  0.00000000000E+00  0.16725205750E+03  0.16725205750E+03  0.00000000000E+00 0.  1.
          3   -1    0    0  501    0  0.00000000000E+00 -0.00000000000E+00 -0.10902358339E+03  0.10902358339E+03  0.00000000000E+00 0. -1.
         25    2    1    2    0    0  0.85777838041E+01 -0.76999748566E+02  0.54721410168E+02  0.15698495723E+03  0.12508918583E+03 0.  0.
          5    1    3    3  502    0 -0.42709612901E+02  0.96626022677E+01  0.40442563159E+01  0.44173581764E+02  0.41800000000E+01 0. -1.
         -5    1    3    3    0  502  0.51287396705E+02 -0.86662350834E+02  0.50677153852E+02  0.11281137547E+03  0.41800000000E+01 0. -1.
        -11    1    1    2    0    0  0.27194514817E+02  0.24642921471E+02  0.33002719276E+02  0.49355796968E+02  0.00000000000E+00 0.  1.
         11    1    1    2    0    0 -0.35772298621E+02  0.52356827096E+02 -0.29495655342E+02  0.69934886689E+02  0.00000000000E+00 0. -1.
</event>
<event>
 7    1  0.2556591E-009  0.9995340E+02  0.7561462E-02  0.1280394E+00
          2   -1    0    0  501    0  0.00000000000E+00  0.00000000000E+00  0.98996725168E+03  0.98996725168E+03  0.00000000000E+00 0. -1.
         -2   -1    0    0    0  501 -0.00000000000E+00 -0.00000000000E+00 -0.13754712532E+02  0.13754712532E+02  0.00000000000E+00 0.  1.
         25    2    1    2    0    0  0.32704752045E+02  0.60886975575E+01  0.67101045812E+03  0.68338009069E+03  0.12508653168E+03 0.  0.
          5    1    3    3  502    0  0.74867650361E+02  0.47755267379E+01  0.55108028554E+03  0.55617885993E+03  0.41800000000E+01 0.  1.
         -5    1    3    3    0  502 -0.42162898316E+02  0.13131708196E+01  0.11993017258E+03  0.12720123076E+03  0.41800000000E+01 0.  1.
        -11    1    1    2    0    0  0.24438477385E+02  0.26167060775E+01  0.28353450182E+02  0.37523385573E+02  0.00000000000E+00 0. -1.
         11    1    1    2    0    0 -0.57143229430E+02 -0.87054036350E+01  0.27684863085E+03  0.28281848794E+03  0.00000000000E+00 0.  1.
</event>
<event>
 7    1  0.2556591E-009  0.9177751E+02  0.7561462E-02  0.1298603E+00
          1   -1    0    0  501    0  0.00000000000E+00  0.00000000000E+00  0.62813110701E+03  0.62813110701E+03  0.00000000000E+00 0. -1.
         -1   -1    0    0    0  501 -0.00000000000E+00 -0.00000000000E+00 -0.22365867486E+02  0.22365867486E+02  0.00000000000E+00 0.  1.
         25    2    1    2    0    0 -0.44095639226E+02 -0.14857148182E+02  0.35711194707E+03  0.38123702982E+03  0.12509024709E+03 0.  0.
          5    1    3    3  502    0  0.19865043308E+02  0.31825606235E+01  0.27386747823E+03  0.27463724560E+03  0.41800000000E+01 0. -1.
         -5    1    3    3    0  502 -0.63960682535E+02 -0.18039708806E+02  0.83244468837E+02  0.10659978422E+03  0.41800000000E+01 0. -1.
        -11    1    1    2    0    0  0.69569919554E+02  0.13787276398E+02  0.21876277381E+03  0.22997220246E+03  0.00000000000E+00 0. -1.
         11    1    1    2    0    0 -0.25474280328E+02  0.10698717844E+01  0.29890518652E+02  0.39287742225E+02  0.00000000000E+00 0.  1.
</event>
<event>
 7    1  0.2556591E-009  0.5904325E+02  0.7561462E-02  0.1401891E+00
          1   -1    0    0  501    0  0.00000000000E+00  0.00000000000E+00  0.99673546438E+03  0.99673546438E+03  0.00000000000E+00 0. -1.
         -1   -1    0    0    0  501 -0.00000000000E+00 -0.00000000000E+00 -0.16441038751E+02  0.16441038751E+02  0.00000000000E+00 0.  1.
         25    2    1    2    0    0  0.13886358346E+02  0.30857180618E+02  0.74735966121E+03  0.75851095739E+03  0.12508961877E+03 0.  0.
          5    1    3    3  502    0  0.35491404250E+01 -0.36199326269E+00 -0.37609356148E+01  0.66591646306E+01  0.41800000000E+01 0. -1.
         -5    1    3    3    0  502  0.10337217921E+02  0.31219173881E+02  0.75112059683E+03  0.75185179276E+03  0.41800000000E+01 0. -1.
        -11    1    1    2    0    0  0.97768360724E+01 -0.48783587577E+02  0.21341151091E+03  0.21913442890E+03  0.00000000000E+00 0. -1.
         11    1    1    2    0    0 -0.23663194418E+02  0.17926406958E+02  0.19523253501E+02  0.35531116838E+02  0.00000000000E+00 0.  1.
</event>
<event>
 7    1  0.2556591E-009  0.6557449E+02  0.7561462E-02  0.1375823E+00
          1   -1    0    0  501    0  0.00000000000E+00  0.00000000000E+00  0.22300698612E+03  0.22300698612E+03  0.00000000000E+00 0. -1.
         -1   -1    0    0    0  501 -0.00000000000E+00 -0.00000000000E+00 -0.70587136524E+02  0.70587136524E+02  0.00000000000E+00 0.  1.
         25    2    1    2    0    0 -0.11281152438E+02 -0.58420602897E+02  0.65233817389E+02  0.15311265333E+03  0.12509117649E+03 0.  0.
          5    1    3    3  502    0  0.32501736643E+01 -0.51175107742E+02  0.10114619233E+03  0.11347898441E+03  0.41800000000E+01 0. -1.
         -5    1    3    3    0  502 -0.14531326102E+02 -0.72454951548E+01 -0.35912374938E+02  0.39633668920E+02  0.41800000000E+01 0. -1.
        -11    1    1    2    0    0 -0.57008371254E+01  0.87769108787E+01 -0.19196382592E+02  0.21864007252E+02  0.00000000000E+00 0.  1.
         11    1    1    2    0    0  0.16981989563E+02  0.49643692018E+02  0.10638241479E+03  0.11861746205E+03  0.00000000000E+00 0. -1.
</event>
<event>
 7    1  0.2556591E-009  0.1878869E+03  0.7561462E-02  0.1160381E+00
         -1   -1    0    0    0  501 -0.00000000000E+00  0.00000000000E+00  0.69153712320E+02  0.69153712320E+02  0.00000000000E+00 0.  1.
          1   -1    0    0  501    0  0.00000000000E+00 -0.00000000000E+00 -0.62148670055E+03  0.62148670055E+03  0.00000000000E+00 0. -1.
         25    2    1    2    0    0  0.16849480338E+03 -0.24074569626E+01 -0.20189828030E+03  0.29121579316E+03  0.12508967976E+03 0.  0.
          5    1    3    3  502    0  0.59598666294E+02  0.34602579933E+02 -0.13355120351E+02  0.70321911248E+02  0.41800000000E+01 0.  1.
         -5    1    3    3    0  502  0.10889613709E+03 -0.37010036895E+02 -0.18854315995E+03  0.22089388191E+03  0.41800000000E+01 0.  1.
        -11    1    1    2    0    0 -0.82951604971E+01 -0.27457028799E+02 -0.50274196539E+02  0.57880851374E+02  0.00000000000E+00 0.  1.
         11    1    1    2    0    0 -0.16019964288E+03  0.29864485762E+02 -0.30016051140E+03  0.34154376834E+03  0.00000000000E+00 0. -1.
</event>
<event>
 7    1  0.2556591E-009  0.2339381E+03  0.7561462E-02  0.1123898E+00
         -1   -1    0    0    0  501 -0.00000000000E+00  0.00000000000E+00  0.24347906214E+03  0.24347906214E+03  0.00000000000E+00 0.  1.
          1   -1    0    0  501    0  0.00000000000E+00 -0.00000000000E+00 -0.28147577894E+03  0.28147577894E+03  0.00000000000E+00 0. -1.
         25    2    1    2    0    0 -0.17926580085E+03 -0.10230318174E+03 -0.13453303634E+03  0.27631266228E+03  0.12508949245E+03 0.  0.
          5    1    3    3  502    0 -0.31809582682E+02 -0.86763871412E+02 -0.60491953104E+02  0.11052858329E+03  0.41800000000E+01 0.  1.
         -5    1    3    3    0  502 -0.14745621817E+03 -0.15539310330E+02 -0.74041083240E+02  0.16578407900E+03  0.41800000000E+01 0.  1.
        -11    1    1    2    0    0  0.10642941397E+03  0.64125478431E+01  0.62142633945E+02  0.12341008015E+03  0.00000000000E+00 0.  1.
         11    1    1    2    0    0  0.72836386880E+02  0.95890633899E+02  0.34393685604E+02  0.12523209865E+03  0.00000000000E+00 0. -1.
</event>
<event>
 7    1  0.2556591E-009  0.1941905E+03  0.7561462E-02  0.1154735E+00
         -1   -1    0    0    0  501 -0.00000000000E+00  0.00000000000E+00  0.21093736923E+02  0.21093736923E+02  0.00000000000E+00 0.  1.
          1   -1    0    0  501    0  0.00000000000E+00 -0.00000000000E+00 -0.22341901351E+04  0.22341901351E+04  0.00000000000E+00 0. -1.
         25    2    1    2    0    0 -0.99215139545E+02 -0.16030047157E+03 -0.12055258853E+04  0.12265725843E+04  0.12509100446E+03 0.  0.
          5    1    3    3  502    0 -0.42631704939E+02 -0.61129033347E+02 -0.18233298781E+03  0.19702033354E+03  0.41800000000E+01 0. -1.
         -5    1    3    3    0  502 -0.56583434607E+02 -0.99171438220E+02 -0.10231928975E+04  0.10295522508E+04  0.41800000000E+01 0. -1.
        -11    1    1    2    0    0 -0.96490216879E+01  0.16613534204E+02 -0.38629102416E+02  0.43143025992E+02  0.00000000000E+00 0.  1.
         11    1    1    2    0    0  0.10886416123E+03  0.14368693736E+03 -0.96894141041E+03  0.98556826166E+03  0.00000000000E+00 0. -1.
</event>
<event>
 7    1  0.2556591E-009  0.1013904E+03  0.7561462E-02  0.1277399E+00
         -2   -1    0    0    0  501 -0.00000000000E+00  0.00000000000E+00  0.11104314875E+03  0.11104314875E+03  0.00000000000E+00 0.  1.
          2   -1    0    0  501    0  0.00000000000E+00 -0.00000000000E+00 -0.15435961085E+03  0.15435961085E+03  0.00000000000E+00 0. -1.
         25    2    1    2    0    0 -0.25994605195E+02  0.32454169890E+02  0.36085462498E+02  0.13667148334E+03  0.12509173079E+03 0.  0.
          5    1    3    3  502    0 -0.64110345779E+01  0.79885153914E+02  0.24383851847E+02  0.83873618088E+02  0.41800000000E+01 0. -1.
         -5    1    3    3    0  502 -0.19583570617E+02 -0.47430984024E+02  0.11701610651E+02  0.52797865254E+02  0.41800000000E+01 0. -1.
        -11    1    1    2    0    0  0.28971236298E+01  0.16586353821E+02 -0.72093028198E+02  0.74033135643E+02  0.00000000000E+00 0. -1.
         11    1    1    2    0    0  0.23097481565E+02 -0.49040523711E+02 -0.73088963979E+01  0.54698140618E+02  0.00000000000E+00 0.  1.
</event>
<event>
 7    1  0.2556591E-009  0.1010733E+03  0.7561462E-02  0.1278055E+00
          2   -1    0    0  501    0  0.00000000000E+00  0.00000000000E+00  0.60899898156E+02  0.60899898156E+02  0.00000000000E+00 0. -1.
         -2   -1    0    0    0  501 -0.00000000000E+00 -0.00000000000E+00 -0.31247884484E+03  0.31247884484E+03  0.00000000000E+00 0.  1.
         25    2    1    2    0    0  0.18751567297E+02  0.44420758525E+02 -0.41284118051E+02  0.14027499368E+03  0.12509144808E+03 0.  0.
          5    1    3    3  502    0 -0.39170244174E+02 -0.19092718551E+02 -0.30916740140E+02  0.53592510215E+02  0.41800000000E+01 0.  1.
         -5    1    3    3    0  502  0.57921811471E+02  0.63513477076E+02 -0.10367377911E+02  0.86682483462E+02  0.41800000000E+01 0.  1.
        -11    1    1    2    0    0 -0.13945500075E+02  0.10326571089E+02 -0.17520258584E+01  0.17440889811E+02  0.00000000000E+00 0. -1.
         11    1    1    2    0    0 -0.48060672211E+01 -0.54747329613E+02 -0.20854280277E+03  0.21566285951E+03  0.00000000000E+00 0.  1.
</event>
<event>
 7    1  0.2556591E-009  0.1163196E+03  0.7561462E-02  0.1249295E+00
         -1   -1    0    0    0  501 -0.00000000000E+00  0.00000000000E+00  0.11947416428E+02  0.11947416428E+02  0.00000000000E+00 0.  1.
          1   -1    0    0  501    0  0.00000000000E+00 -0.00000000000E+00 -0.11738285777E+04  0.11738285777E+04  0.00000000000E+00 0. -1.
         25    2    1    2    0    0  0.13084049405E+02  0.44911738469E+02 -0.72479274104E+03  0.73699333079E+03  0.12508555293E+03 0.  0.
          5    1    3    3  502    0  0.19824696662E+02  0.87513547648E+02 -0.46201257154E+03  0.47066413532E+03  0.41800000000E+01 0. -1.
         -5    1    3    3    0  502 -0.67406472573E+01 -0.42601809179E+02 -0.26278016951E+03  0.26632919546E+03  0.41800000000E+01 0. -1.
        -11    1    1    2    0    0  0.20999329383E+02 -0.58978242470E+02 -0.31848748338E+03  0.32458231928E+03  0.00000000000E+00 0. -1.
         11    1    1    2    0    0 -0.34083378787E+02  0.14066504001E+02 -0.11860093689E+03  0.12420034410E+03  0.00000000000E+00 0.  1.
</event>
<event>
 7    1  0.2556591E-009  0.1885016E+03  0.7561462E-02  0.1159820E+00
          2   -1    0    0  501    0  0.00000000000E+00  0.00000000000E+00  0.38224006912E+02  0.38224006912E+02  0.00000000000E+00 0. -1.
         -2   -1    0    0    0  501 -0.00000000000E+00 -0.00000000000E+00 -0.95832433593E+03  0.95832433593E+03  0.00000000000E+00 0.  1.
         25    2    1    2    0    0 -0.11320608115E+03  0.24501204173E+02 -0.36801890284E+03  0.40558746337E+03  0.12508937517E+03 0.  0.
          5    1    3    3  502    0 -0.22785976559E+02 -0.48689402531E+02 -0.10858632160E+03  0.12123662931E+03  0.41800000000E+01 0.  1.
         -5    1    3    3    0  502 -0.90420104594E+02  0.73190606705E+02 -0.25943258124E+03  0.28435083407E+03  0.41800000000E+01 0.  1.
        -11    1    1    2    0    0  0.24588664097E+02  0.71749349074E+02 -0.14925299972E+03  0.16741872482E+03  0.00000000000E+00 0.  1.
         11    1    1    2    0    0  0.88617417056E+02 -0.96250553248E+02 -0.40282842645E+03  0.42354215464E+03  0.00000000000E+00 0. -1.
</event>
<event>
 7    1  0.2556591E-009  0.1326742E+03  0.7561462E-02  0.1223541E+00
          1   -1    0    0  501    0  0.00000000000E+00  0.00000000000E+00  0.23398128673E+03  0.23398128673E+03  0.00000000000E+00 0.  1.
         -1   -1    0    0    0  501 -0.00000000000E+00 -0.00000000000E+00 -0.98192232442E+02  0.98192232442E+02  0.00000000000E+00 0. -1.
         25    2    1    2    0    0  0.76044451074E+02 -0.26584229275E+02 -0.22301466568E+01  0.14879952837E+03  0.12508735469E+03 0.  0.
          5    1    3    3  502    0 -0.23805037424E+02  0.24936805414E+02  0.87967984457E+01  0.35824295302E+02  0.41800000000E+01 0.  1.
         -5    1    3    3    0  502  0.99849488498E+02 -0.51521034689E+02 -0.11026945103E+02  0.11297523307E+03  0.41800000000E+01 0.  1.
        -11    1    1    2    0    0 -0.21459376131E+02  0.53267239150E+02  0.48412892627E+02  0.75111329127E+02  0.00000000000E+00 0. -1.
         11    1    1    2    0    0 -0.54585074942E+02 -0.26683009876E+02  0.89606308318E+02  0.10826266168E+03  0.00000000000E+00 0.  1.
</event>
<event>
 7    1  0.2556591E-009  0.1324368E+03  0.7561462E-02  0.1223884E+00
          1   -1    0    0  501    0  0.00000000000E+00  0.00000000000E+00  0.53025559098E+03  0.53025559098E+03  0.00000000000E+00 0. -1.
         -1   -1    0    0    0  501 -0.00000000000E+00 -0.00000000000E+00 -0.49481725454E+02  0.49481725454E+02  0.00000000000E+00 0.  1.
         25    2    1    2    0    0 -0.25663223378E+02  0.11812052201E+03  0.30223169161E+03  0.34871606088E+03  0.12509131446E+03 0.  0.
          5    1    3    3  502    0 -0.15305322773E+02  0.10845589981E+03  0.31220940993E+03  0.33089140689E+03  0.41800000000E+01 0.  1.
         -5    1    3    3    0  502 -0.10357900605E+02  0.96646221917E+01 -0.99777183190E+01  0.17824653991E+02  0.41800000000E+01 0.  1.
        -11    1    1    2    0    0 -0.20261633701E+02 -0.74310531862E+02  0.13004765503E+03  0.15114556402E+03  0.00000000000E+00 0. -1.
         11    1    1    2    0    0  0.45924857078E+02 -0.43809990143E+02  0.48494518889E+02  0.79875691523E+02  0.00000000000E+00 0.  1.
</event>
<event>
 7    1  0.2556591E-009  0.1022254E+03  0.7561462E-02  0.1275685E+00
         -3   -1    0    0    0  501 -0.00000000000E+00  0.00000000000E+00  0.91552286535E+02  0.91552286535E+02  0.00000000000E+00 0.  1.
          3   -1    0    0  501    0  0.00000000000E+00 -0.00000000000E+00 -0.14114234811E+03  0.14114234811E+03  0.00000000000E+00 0. -1.
         25    2    1    2    0    0  0.34122067498E+02  0.10099605732E+02 -0.25691243933E+02  0.13256584069E+03  0.12508934638E+03 0.  0.
          5    1    3    3  502    0  0.73194711563E+02  0.30438031078E+02  0.36651450706E+01  0.79466000435E+02  0.41800000000E+01 0.  1.
         -5    1    3    3    0  502 -0.39072644064E+02 -0.20338425346E+02 -0.29356389004E+02  0.53099840255E+02  0.41800000000E+01 0.  1.
        -11    1    1    2    0    0  0.90532426265E+00  0.28606101631E+02  0.17462334526E+02  0.33527030731E+02  0.00000000000E+00 0.  1.
         11    1    1    2    0    0 -0.35027391761E+02 -0.38705707363E+02 -0.41361152170E+02  0.66601763226E+02  0.00000000000E+00 0. -1.
</event>
<event>
 7    1  0.2556591E-009  0.9681069E+02  0.7561462E-02  0.1287149E+00
         -2   -1    0    0    0  501 -0.00000000000E+00  0.00000000000E+00  0.30342105582E+02  0.30342105582E+02  0.00000000000E+00 0.  1.
          2   -1    0    0  501    0  0.00000000000E+00 -0.00000000000E+00 -0.44894771533E+03  0.44894771533E+03  0.00000000000E+00 0. -1.
         25    2    1    2    0    0  0.84457162468E+01 -0.40524901291E+02 -0.23731988627E+03  0.27144436474E+03  0.12509083491E+03 0.  0.
          5    1    3    3  502    0 -0.27711109927E+02 -0.56190183213E+02 -0.21893519183E+03  0.22776157034E+03  0.41800000000E+01 0. -1.
         -5    1    3    3    0  502  0.36156826174E+02  0.15665281922E+02 -0.18384694448E+02  0.43682794400E+02  0.41800000000E+01 0. -1.
        -11    1    1    2    0    0 -0.12335077012E+02 -0.23776533140E+02 -0.10318774735E+03  0.10660763976E+03  0.00000000000E+00 0. -1.
         11    1    1    2    0    0  0.38893607649E+01  0.64301434431E+02 -0.78097976129E+02  0.10123781642E+03  0.00000000000E+00 0.  1.
</event>
<event>
 7    1  0.2556591E-009  0.1150323E+03  0.7561462E-02  0.1251525E+00
          2   -1    0    0  501    0  0.00000000000E+00  0.00000000000E+00  0.44899187090E+03  0.44899187090E+03  0.00000000000E+00 0. -1.
         -2   -1    0    0    0  501 -0.00000000000E+00 -0.00000000000E+00 -0.42029242729E+02  0.42029242729E+02  0.00000000000E+00 0.  1.
         25    2    1    2    0    0  0.22525400343E+02 -0.79983949899E+02  0.19364575891E+03  0.24505662473E+03  0.12509693633E+03 0.  0.
          5    1    3    3  502    0 -0.27960298144E+02 -0.49098438712E+02  0.17669231567E+02  0.59347359675E+02  0.41800000000E+01 0. -1.
         -5    1    3    3    0  502  0.50485698486E+02 -0.30885511187E+02  0.17597652734E+03  0.18570926506E+03  0.41800000000E+01 0. -1.
        -11    1    1    2    0    0  0.29258564558E+02  0.24274509474E+02  0.33301266874E+02  0.50539982050E+02  0.00000000000E+00 0.  1.
         11    1    1    2    0    0 -0.51783964901E+02  0.55709440425E+02  0.18001560239E+03  0.19542450685E+03  0.00000000000E+00 0. -1.
</event>
<event>
 7    1  0.2556591E-009  0.1426133E+03  0.7561462E-02  0.1209855E+00
         -2   -1    0    0    0  501 -0.00000000000E+00  0.00000000000E+00  0.65382407600E+03  0.65382407600E+03  0.00000000000E+00 0.  1.
          2   -1    0    0  501    0  0.00000000000E+00 -0.00000000000E+00 -0.34877963107E+02  0.34877963107E+02  0.00000000000E+00 0. -1.
         25    2    1    2    0    0 -0.70963017222E+02  0.73898164698E+02  0.38533647459E+03  0.41788144554E+03  0.12507603815E+03 0.  0.
          5    1    3    3  502    0  0.23787848678E+02  0.42179014432E+02  0.21439342864E+03  0.21983390468E+03  0.41800000000E+01 0.  1.
         -5    1    3    3    0  502 -0.94750865900E+02  0.31719150266E+02  0.17094304595E+03  0.19804754086E+03  0.41800000000E+01 0.  1.
        -11    1    1    2    0    0 -0.18921830031E+02  0.19270843015E+01  0.40087166935E+02  0.44370375911E+02  0.00000000000E+00 0. -1.
         11    1    1    2    0    0  0.89884847253E+02 -0.75825249000E+02  0.19352247138E+03  0.22645021766E+03  0.00000000000E+00 0.  1.
</event>
<event>
 7    1  0.2556591E-009  0.9199403E+02  0.7561462E-02  0.1298093E+00
          1   -1    0    0  501    0  0.00000000000E+00  0.00000000000E+00  0.54903296626E+03  0.54903296626E+03  0.00000000000E+00 0. -1.
         -1   -1    0    0    0  501 -0.00000000000E+00 -0.00000000000E+00 -0.31032965266E+02  0.31032965266E+02  0.00000000000E+00 0.  1.
         25    2    1    2    0    0 -0.22936172193E+02 -0.11536031117E+02  0.43337578801E+03  0.45179792917E+03  0.12509055583E+03 0.  0.
          5    1    3    3  502    0  0.19880174395E+02 -0.50988058068E+02  0.10713081604E+03  0.12037228728E+03  0.41800000000E+01 0. -1.
         -5    1    3    3    0  502 -0.42816346588E+02  0.39452026951E+02  0.32624497198E+03  0.33142564189E+03  0.41800000000E+01 0. -1.
        -11    1    1    2    0    0 -0.78193113497E+01 -0.23113788388E+02  0.77677341693E+02  0.81419642938E+02  0.00000000000E+00 0.  1.
         11    1    1    2    0    0  0.30755483543E+02  0.34649819505E+02  0.69468712922E+01  0.46848359421E+02  0.00000000000E+00 0. -1.
</event>
<event>
 7    1  0.2556591E-009  0.1243258E+03  0.7561462E-02  0.1236127E+00
          1   -1    0    0  501    0  0.00000000000E+00  0.00000000000E+00  0.10881960931E+03  0.10881960931E+03  0.00000000000E+00 0. -1.
         -1   -1    0    0    0  501 -0.00000000000E+00 -0.00000000000E+00 -0.19537009494E+03  0.19537009494E+03  0.00000000000E+00 0.  1.
         25    2    1    2    0    0 -0.40580875239E+02  0.67469332092E+02  0.14262211786E+02  0.14849283751E+03  0.12509114236E+03 0.  0.
          5    1    3    3  502    0 -0.41171069658E+02 -0.25657332182E+02 -0.14722918408E+02  0.50868383087E+02  0.41800000000E+01 0.  1.
         -5    1    3    3    0  502  0.59019441925E+00  0.93126664274E+02  0.28985130194E+02  0.97624454419E+02  0.41800000000E+01 0.  1.
        -11    1    1    2    0    0  0.51469081625E+02 -0.76764395348E+02 -0.10584972720E+03  0.14052047362E+03  0.00000000000E+00 0.  1.
         11    1    1    2    0    0 -0.10888206386E+02  0.92950632561E+01  0.50370297892E+01  0.15176393127E+02  0.00000000000E+00 0. -1.
</event>
<event>
 7    1  0.2556591E-009  0.1358526E+03  0.7561462E-02  0.1219021E+00
         -1   -1    0    0    0  501 -0.00000000000E+00  0.00000000000E+00  0.45902534272E+02  0.45902534272E+02  0.00000000000E+00 0.  1.
          1   -1    0    0  501    0  0.00000000000E+00 -0.00000000000E+00 -0.44634472553E+03  0.44634472553E+03  0.00000000000E+00 0. -1.
         25    2    1    2    0    0 -0.16479264598E+02 -0.85228710709E+02 -0.27013252682E+03  0.31008872895E+03  0.12509172028E+03 0.  0.
          5    1    3    3  502    0  0.30806764288E+02 -0.93848856253E+02 -0.21615822784E+03  0.23769416570E+03  0.41800000000E+01 0.  1.
         -5    1    3    3    0  502 -0.47286028886E+02  0.86201455444E+01 -0.53974298983E+02  0.72394563247E+02  0.41800000000E+01 0.  1.
        -11    1    1    2    0    0  0.28817942404E+02 -0.85089929526E+01 -0.48892383073E+02  0.57387645779E+02  0.00000000000E+00 0. -1.
         11    1    1    2    0    0 -0.12338677806E+02  0.93737703661E+02 -0.81417281362E+02  0.12477088507E+03  0.00000000000E+00 0.  1.
</event>
<event>
 7    1  0.2556591E-009  0.8538586E+02  0.7561462E-02  0.1314427E+00
          1   -1    0    0  501    0  0.00000000000E+00  0.00000000000E+00  0.18959999435E+03  0.18959999435E+03  0.00000000000E+00 0. -1.
         -1   -1    0    0    0  501 -0.00000000000E+00 -0.00000000000E+00 -0.68991364816E+02  0.68991364816E+02  0.00000000000E+00 0.  1.
         25    2    1    2    0    0 -0.10056294560E+02 -0.30312883048E+02  0.87452911895E+02  0.15593536706E+03  0.12509127453E+03 0.  0.
          5    1    3    3  502    0  0.38369640622E+02 -0.38359709831E+02 -0.12919294421E+01  0.54431958824E+02  0.41800000000E+01 0. -1.
         -5    1    3    3    0  502 -0.48425935183E+02  0.80468267827E+01  0.88744841337E+02  0.10150340824E+03  0.41800000000E+01 0. -1.
        -11    1    1    2    0    0  0.34001515763E+02  0.93523138034E+01 -0.20119342190E+02  0.40599960318E+02  0.00000000000E+00 0.  1.
         11    1    1    2    0    0 -0.23945221202E+02  0.20960569244E+02  0.53275059831E+02  0.62056031790E+02  0.00000000000E+00 0. -1.
</event>
<event>
 7    1  0.2556591E-009  0.1452985E+03  0.7561462E-02  0.1206372E+00
         -2   -1    0    0    0  501 -0.00000000000E+00  0.00000000000E+00  0.57097929330E+02  0.57097929330E+02  0.00000000000E+00 0.  1.
          2   -1    0    0  501    0  0.00000000000E+00 -0.00000000000E+00 -0.37354758306E+03  0.37354758306E+03  0.00000000000E+00 0. -1.
         25    2    1    2    0    0  0.68085733000E+02 -0.71076999495E+02 -0.17515168024E+03  0.23666953990E+03  0.12508698224E+03 0.  0.
          5    1    3    3  502    0  0.10412000800E+03 -0.47737355277E+02 -0.11249486817E+03  0.16060012117E+03  0.41800000000E+01 0.  1.
         -5    1    3    3    0  502 -0.36034274996E+02 -0.23339644218E+02 -0.62656812071E+02  0.76069418727E+02  0.41800000000E+01 0.  1.
        -11    1    1    2    0    0 -0.90152446609E+02  0.56390545122E+02 -0.11527042436E+03  0.15682674498E+03  0.00000000000E+00 0.  1.
         11    1    1    2    0    0  0.22066713609E+02  0.14686454373E+02 -0.26027549130E+02  0.37149227520E+02  0.00000000000E+00 0. -1.
</event>
<event>
 7    1  0.2556591E-009  0.1162926E+03  0.7561462E-02  0.1249342E+00
          2   -1    0    0  501    0  0.00000000000E+00  0.00000000000E+00  0.56809208039E+03  0.56809208039E+03  0.00000000000E+00 0. -1.
         -2   -1    0    0    0  501 -0.00000000000E+00 -0.00000000000E+00 -0.26995277771E+02  0.26995277771E+02  0.00000000000E+00 0.  1.
         25    2    1    2    0    0  0.43612594185E+01  0.55273630661E+02  0.35236868846E+03  0.37800054087E+03  0.12508605620E+03 0.  0.
          5    1    3    3  502    0 -0.16043407649E+02  0.89919490138E+02  0.28629559873E+03  0.30054209005E+03  0.41800000000E+01 0. -1.
         -5    1    3    3    0  502  0.20404667068E+02 -0.34645859477E+02  0.66073089732E+02  0.77458450822E+02  0.41800000000E+01 0. -1.
        -11    1    1    2    0    0 -0.11286565397E+02  0.21158211339E+02  0.18263947523E+02  0.30143461059E+02  0.00000000000E+00 0.  1.
         11    1    1    2    0    0  0.69253059783E+01 -0.76431842000E+02  0.17046416663E+03  0.18694335624E+03  0.00000000000E+00 0. -1.
</event>
<event>
 7    1  0.2556591E-009  0.9697273E+02  0.7561462E-02  0.1286794E+00
          2   -1    0    0  501    0  0.00000000000E+00  0.00000000000E+00  0.42737153639E+03  0.42737153639E+03  0.00000000000E+00 0. -1.
         -2   -1    0    0    0  501 -0.00000000000E+00 -0.00000000000E+00 -0.42688903032E+02  0.42688903032E+02  0.00000000000E+00 0.  1.
         25    2    1    2    0    0  0.42074095132E+02  0.63948455495E+02  0.25744176336E+03  0.29627878477E+03  0.12508086321E+03 0.  0.
          5    1    3    3  502    0 -0.18479515227E+02  0.13798481706E+02  0.19332230933E+03  0.19473797335E+03  0.41800000000E+01 0. -1.
         -5    1    3    3    0  502  0.60553610358E+02  0.50149973789E+02  0.64119454035E+02  0.10154081142E+03  0.41800000000E+01 0. -1.
        -11    1    1    2    0    0 -0.34442669911E+02 -0.80711105658E+01  0.10886323863E+03  0.11446678584E+03  0.00000000000E+00 0. -1.
         11    1    1    2    0    0 -0.76314252210E+01 -0.55877344929E+02  0.18377631368E+02  0.59314868810E+02  0.00000000000E+00 0.  1.
</event>
<event>
 7    1  0.2556591E-009  0.1120978E+03  0.7561462E-02  0.1256734E+00
          1   -1    0    0  501    0  0.00000000000E+00  0.00000000000E+00  0.32495819793E+02  0.32495819793E+02  0.00000000000E+00 0. -1.
         -1   -1    0    0    0  501 -0.00000000000E+00 -0.00000000000E+00 -0.50505498143E+03  0.50505498143E+03  0.00000000000E+00 0.  1.
         25    2    1    2    0    0 -0.11751987711E+02 -0.68642401237E+02 -0.20017329016E+03  0.24610283138E+03  0.12508944421E+03 0.  0.
          5    1    3    3  502    0 -0.88209469759E+01  0.28860024586E+02 -0.10659557052E+03  0.11086387229E+03  0.41800000000E+01 0. -1.
         -5    1    3    3    0  502 -0.29310407352E+01 -0.97502425823E+02 -0.93577719648E+02  0.13523895909E+03  0.41800000000E+01 0. -1.
        -11    1    1    2    0    0  0.18961928942E+02  0.80233077844E+02 -0.26087526591E+03  0.27359240833E+03  0.00000000000E+00 0.  1.
         11    1    1    2    0    0 -0.72099412312E+01 -0.11590676607E+02 -0.11510605556E+02  0.17855561516E+02  0.00000000000E+00 0. -1.
</event>
<event>
 7    1  0.2556591E-009  0.1124741E+03  0.7561462E-02  0.1256056E+00
         -2   -1    0    0    0  501 -0.00000000000E+00  0.00000000000E+00  0.16334155716E+02  0.16334155716E+02  0.00000000000E+00 0.  1.
          2   -1    0    0  501    0  0.00000000000E+00 -0.00000000000E+00 -0.13433607161E+04  0.13433607161E+04  0.00000000000E+00 0. -1.
         25    2    1    2    0    0  0.79786737069E+02 -0.44535799771E+02 -0.91311360681E+03  0.92616070820E+03  0.12509131704E+03 0.  0.
          5    1    3    3  502    0  0.57498129804E+01  0.52782906627E+01 -0.61226750714E+03  0.61233152246E+03  0.41800000000E+01 0.  1.
         -5    1    3    3    0  502  0.74036924089E+02 -0.49814090434E+02 -0.30084609967E+03  0.31382918574E+03  0.41800000000E+01 0.  1.
        -11    1    1    2    0    0 -0.81558566673E+02 -0.62963573791E+00 -0.30247374854E+03  0.31327713736E+03  0.00000000000E+00 0. -1.
         11    1    1    2    0    0  0.17718296038E+01  0.45165435509E+02 -0.11143920505E+03  0.12025702627E+03  0.00000000000E+00 0.  1.
</event>
<event>
 7    1  0.2556591E-009  0.1807422E+03  0.7561462E-02  0.1167087E+00
          2   -1    0    0  501    0  0.00000000000E+00  0.00000000000E+00  0.63421826459E+03  0.63421826459E+03  0.00000000000E+00 0.  1.
         -2   -1    0    0    0  501 -0.00000000000E+00 -0.00000000000E+00 -0.62385569852E+02  0.62385569852E+02  0.00000000000E+00 0. -1.
         25    2    1    2    0    0  0.11814424746E+03  0.11510384724E+03  0.32376203872E+03  0.38428609458E+03  0.12508791274E+03 0.  0.
          5    1    3    3  502    0  0.20002681363E+02  0.93725026884E+02  0.21902082571E+03  0.23910684310E+03  0.41800000000E+01 0. -1.
         -5    1    3    3    0  502  0.98141566096E+02  0.21378820357E+02  0.10474121301E+03  0.14517925147E+03  0.41800000000E+01 0. -1.
        -11    1    1    2    0    0 -0.86102929437E+02 -0.87066774002E+02  0.23935461983E+03  0.26885864618E+03  0.00000000000E+00 0.  1.
         11    1    1    2    0    0 -0.32041318022E+02 -0.28037073239E+02  0.87160361866E+01  0.43459093677E+02  0.00000000000E+00 0. -1.
</event>
<event>
 7    1  0.2556591E-009  0.9085342E+02  0.7561462E-02  0.1300798E+00
         -2   -1    0    0    0  501 -0.00000000000E+00  0.00000000000E+00  0.17292224776E+03  0.17292224776E+03  0.00000000000E+00 0.  1.
          2   -1    0    0  501    0  0.00000000000E+00 -0.00000000000E+00 -0.88943279391E+02  0.88943279391E+02  0.00000000000E+00 0. -1.
         25    2    1    2    0    0  0.18688181706E+02 -0.42530668536E+02  0.12945804250E+01  0.13344075427E+03  0.12508658225E+03 0.  0.
          5    1    3    3  502    0  0.33393064275E+02 -0.70934912353E+02 -0.34059365998E+02  0.85582541119E+02  0.41800000000E+01 0.  1.
         -5    1    3    3    0  502 -0.14704882568E+02  0.28404243817E+02  0.35353946423E+02  0.47858213149E+02  0.41800000000E+01 0.  1.
        -11    1    1    2    0    0 -0.33132233875E+02  0.88566029949E+01 -0.37933959854E+01  0.34504698104E+02  0.00000000000E+00 0. -1.
         11    1    1    2    0    0  0.14444052169E+02  0.33674065541E+02  0.86477783926E+02  0.93920074776E+02  0.00000000000E+00 0.  1.
</event>
<event>
 7    1  0.2556591E-009  0.6815030E+02  0.7561462E-02  0.1366498E+00
         -1   -1    0    0    0  501 -0.00000000000E+00  0.00000000000E+00  0.38146032298E+02  0.38146032298E+02  0.00000000000E+00 0.  1.
          1   -1    0    0  501    0  0.00000000000E+00 -0.00000000000E+00 -0.37727952750E+03  0.37727952750E+03  0.00000000000E+00 0. -1.
         25    2    1    2    0    0 -0.45783066762E+02 -0.18589125020E+02 -0.22358381073E+03  0.26091792599E+03  0.12508716525E+03 0.  0.
          5    1    3    3  502    0 -0.44090042056E+02 -0.37845784043E+02 -0.23216249024E+03  0.23935983258E+03  0.41800000000E+01 0. -1.
         -5    1    3    3    0  502 -0.16930247063E+01  0.19256659023E+02  0.85786795061E+01  0.21558093410E+02  0.41800000000E+01 0. -1.
        -11    1    1    2    0    0  0.10448373776E+02 -0.87202948504E+01  0.12755632845E+02  0.18652566207E+02  0.00000000000E+00 0.  1.
         11    1    1    2    0    0  0.35334692986E+02  0.27309419871E+02 -0.12830531731E+03  0.13585506760E+03  0.00000000000E+00 0. -1.
</event>
<event>
 7    1  0.2556591E-009  0.1222028E+03  0.7561462E-02  0.1239507E+00
          2   -1    0    0  501    0  0.00000000000E+00  0.00000000000E+00  0.12284844831E+03  0.12284844831E+03  0.00000000000E+00 0. -1.
         -2   -1    0    0    0  501 -0.00000000000E+00 -0.00000000000E+00 -0.14320848624E+03  0.14320848624E+03  0.00000000000E+00 0.  1.
         25    2    1    2    0    0 -0.18448700673E+02  0.70505048272E+02 -0.29836824399E+02  0.14781333364E+03  0.12508888489E+03 0.  0.
          5    1    3    3  502    0  0.31456187889E+02 -0.14580057346E+02  0.16649243180E+02  0.38687718041E+02  0.41800000000E+01 0.  1.
         -5    1    3    3    0  502 -0.49904888563E+02  0.85085105619E+02 -0.46486067579E+02  0.10912561560E+03  0.41800000000E+01 0.  1.
        -11    1    1    2    0    0  0.38876810433E+02 -0.16267922121E+01  0.22910558758E+02  0.45154695713E+02  0.00000000000E+00 0.  1.
         11    1    1    2    0    0 -0.20428109759E+02 -0.68878256060E+02 -0.13433772287E+02  0.73088905205E+02  0.00000000000E+00 0. -1.
</event>
<event>
 7    1  0.2556591E-009  0.9974414E+02  0.7561462E-02  0.1280835E+00
          2   -1    0    0  501    0  0.00000000000E+00  0.00000000000E+00  0.99882846097E+03  0.99882846097E+03  0.00000000000E+00 0. -1.
         -2   -1    0    0    0  501 -0.00000000000E+00 -0.00000000000E+00 -0.38683183828E+02  0.38683183828E+02  0.00000000000E+00 0.  1.
         25    2    1    2    0    0  0.81167431177E+01  0.12832986686E+02  0.93284473489E+03  0.94131597312E+03  0.12508355123E+03 0.  0.
          5    1    3    3  502    0 -0.11882145076E+01  0.60441816855E+02  0.27145597755E+03  0.27813745743E+03  0.41800000000E+01 0. -1.
         -5    1    3    3    0  502  0.93049576253E+01 -0.47608830168E+02  0.66138875734E+03  0.66317851569E+03  0.41800000000E+01 0. -1.
        -11    1    1    2    0    0 -0.68355571231E+01 -0.51279568241E+02  0.56165862621E+01  0.52037150205E+02  0.00000000000E+00 0.  1.
         11    1    1    2    0    0 -0.12811859945E+01  0.38446581555E+02  0.21683955993E+02  0.44158521469E+02  0.00000000000E+00 0. -1.
</event>
<event>
 7    1  0.2556591E-009  0.1098553E+03  0.7561462E-02  0.1260838E+00
         -2   -1    0    0    0  501 -0.00000000000E+00  0.00000000000E+00  0.39606335616E+02  0.39606335616E+02  0.00000000000E+00 0. -1.
          2   -1    0    0  501    0  0.00000000000E+00 -0.00000000000E+00 -0.33304106011E+03  0.33304106011E+03  0.00000000000E+00 0.  1.
         25    2    1    2    0    0 -0.34185842299E+02  0.14210698153E+02 -0.17020328444E+03  0.21444647172E+03  0.12509002934E+03 0.  0.
          5    1    3    3  502    0 -0.79875038353E+02 -0.55380894082E+01 -0.97379785573E+02  0.12613876178E+03  0.41800000000E+01 0.  1.
         -5    1    3    3    0  502  0.45689196053E+02  0.19748787561E+02 -0.72823498868E+02  0.88307709933E+02  0.41800000000E+01 0.  1.
        -11    1    1    2    0    0  0.46484742535E+02  0.21937911708E+02 -0.10270558966E+03  0.11485008231E+03  0.00000000000E+00 0.  1.
         11    1    1    2    0    0 -0.12298900235E+02 -0.36148609861E+02 -0.20525850391E+02  0.43350841700E+02  0.00000000000E+00 0. -1.
</event>
<event>
 7    1  0.2556591E-009  0.1399984E+03  0.7561462E-02  0.1213331E+00
          2   -1    0    0  501    0  0.00000000000E+00  0.00000000000E+00  0.14170696446E+04  0.14170696446E+04  0.00000000000E+00 0. -1.
         -2   -1    0    0    0  501 -0.00000000000E+00 -0.00000000000E+00 -0.23134049391E+02  0.23134049391E+02  0.00000000000E+00 0.  1.
         25    2    1    2    0    0 -0.13533082238E+03  0.33131508607E+01  0.93873624343E+03  0.95666013611E+03  0.12508985904E+03 0.  0.
          5    1    3    3  502    0 -0.82940165876E+02  0.89289669354E+01  0.20986900732E+03  0.22587888392E+03  0.41800000000E+01 0.  1.
         -5    1    3    3    0  502 -0.52390656508E+02 -0.56158160747E+01  0.72886723611E+03  0.73078125219E+03  0.41800000000E+01 0.  1.
        -11    1    1    2    0    0  0.53248869257E+02  0.22155327053E+02  0.79968603419E+02  0.98596542164E+02  0.00000000000E+00 0.  1.
         11    1    1    2    0    0  0.82081953127E+02 -0.25468477914E+02  0.37523074839E+03  0.38494701575E+03  0.00000000000E+00 0. -1.
</event>
<event>
 7    1  0.2556591E-009  0.9851320E+02  0.7561462E-02  0.1283454E+00
         -1   -1    0    0    0  501 -0.00000000000E+00  0.00000000000E+00  0.23343968600E+03  0.23343968600E+03  0.00000000000E+00 0.  1.
          1   -1    0    0  501    0  0.00000000000E+00 -0.00000000000E+00 -0.54807641912E+02  0.54807641912E+02  0.00000000000E+00 0. -1.
         25    2    1    2    0    0  0.39234090358E+01 -0.36174895133E+02  0.77725688932E+02  0.15169998361E+03  0.12509031190E+03 0.  0.
          5    1    3    3  502    0 -0.42203728780E+02  0.23734183803E+02  0.89756123575E+01  0.49421657408E+02  0.41800000000E+01 0.  1.
         -5    1    3    3    0  502  0.46127137816E+02 -0.59909078935E+02  0.68750076574E+02  0.10227832620E+03  0.41800000000E+01 0.  1.
        -11    1    1    2    0    0 -0.72051665823E+01 -0.17500633567E+02  0.74065358627E+02  0.76445169561E+02  0.00000000000E+00 0.  1.
         11    1    1    2    0    0  0.32817575466E+01  0.53675528700E+02  0.26840996532E+02  0.60102174742E+02  0.00000000000E+00 0. -1.
</event>
<event>
 7    1  0.2606611E-009  0.8967620E+02  0.7561462E-02  0.1303638E+00
         -2   -1    0    0    0  501 -0.00000000000E+00  0.00000000000E+00  0.66399233693E+02  0.66399233693E+02  0.00000000000E+00 0.  1.
          2   -1    0    0  501    0  0.00000000000E+00 -0.00000000000E+00 -0.25013090972E+03  0.25013090972E+03  0.00000000000E+00 0. -1.
         25    2    1    2    0    0 -0.34172950696E+02  0.32276390476E+02 -0.16426584910E+03  0.21174784599E+03  0.12507727675E+03 0.  0.
          5    1    3    3  502    0 -0.71580431292E+02  0.49288702658E+02 -0.81361208974E+02  0.11912284869E+03  0.41800000000E+01 0.  1.
         -5    1    3    3    0  502  0.37407480595E+02 -0.17012312183E+02 -0.82904640125E+02  0.92624997299E+02  0.41800000000E+01 0.  1.
        -11    1    1    2    0    0  0.30764925817E+02 -0.16527269486E+02 -0.55349826223E+02  0.65446425113E+02  0.00000000000E+00 0. -1.
         11    1    1    2    0    0  0.34080248794E+01 -0.15749120990E+02  0.35883999293E+02  0.39335872316E+02  0.00000000000E+00 0.  1.
</event>
<event>
 7    1  0.2556591E-009  0.9191125E+02  0.7561462E-02  0.1298288E+00
         -1   -1    0    0    0  501 -0.00000000000E+00  0.00000000000E+00  0.18593227610E+02  0.18593227610E+02  0.00000000000E+00 0.  1.
          1   -1    0    0  501    0  0.00000000000E+00 -0.00000000000E+00 -0.73832878998E+03  0.73832878998E+03  0.00000000000E+00 0. -1.
         25    2    1    2    0    0 -0.89935411303E+01 -0.35498539437E+02 -0.43646592518E+03  0.45551191096E+03  0.12509023583E+03 0.  0.
          5    1    3    3  502    0 -0.22392761716E+02  0.25958931847E+02 -0.35160365478E+02  0.49285146043E+02  0.41800000000E+01 0. -1.
         -5    1    3    3    0  502  0.13399220586E+02 -0.61457471284E+02 -0.40130555970E+03  0.40622676492E+03  0.41800000000E+01 0. -1.
        -11    1    1    2    0    0 -0.32245072562E+02  0.31056472304E+02 -0.22774761687E+03  0.23210606663E+03  0.00000000000E+00 0. -1.
         11    1    1    2    0    0  0.41238613692E+02  0.44420671325E+01 -0.55522020322E+02  0.69304040000E+02  0.00000000000E+00 0.  1.
</event>
<event>
 7    1  0.2556591E-009  0.1387615E+03  0.7561462E-02  0.1215005E+00
         -1   -1    0    0    0  501 -0.00000000000E+00  0.00000000000E+00  0.25051485670E+03  0.25051485670E+03  0.00000000000E+00 0.  1.
          1   -1    0    0  501    0  0.00000000000E+00 -0.00000000000E+00 -0.90478911288E+02  0.90478911288E+02  0.00000000000E+00 0. -1.
         25    2    1    2    0    0 -0.81496806671E+01  0.97284302007E+02  0.12443033444E+03  0.20164548013E+03  0.12508932335E+03 0.  0.
          5    1    3    3  502    0 -0.58829882545E+02  0.15564788639E+02  0.61678119117E+02  0.86746069095E+02  0.41800000000E+01 0. -1.
         -5    1    3    3    0  502  0.50680201878E+02  0.81719513368E+02  0.62752215321E+02  0.11489941103E+03  0.41800000000E+01 0. -1.
        -11    1    1    2    0    0 -0.31272758015E+02 -0.41312244395E+02 -0.15310400788E+02  0.54028652612E+02  0.00000000000E+00 0. -1.
         11    1    1    2    0    0  0.39422438682E+02 -0.55972057613E+02  0.50916011759E+02  0.85319635246E+02  0.00000000000E+00 0.  1.
</event>
<event>
 7    1  0.2556591E-009  0.8825304E+02  0.7561462E-02  0.1307138E+00
         -1   -1    0    0    0  501 -0.00000000000E+00  0.00000000000E+00  0.13590600707E+02  0.13590600707E+02  0.00000000000E+00 0.  1.
          1   -1    0    0  501    0  0.00000000000E+00 -0.00000000000E+00 -0.92235556496E+03  0.92235556496E+03  0.00000000000E+00 0. -1.
         25    2    1    2    0    0 -0.29148125852E+02  0.12282096788E+02 -0.53873928802E+03  0.55397388535E+03  0.12508629839E+03 0.  0.
          5    1    3    3  502    0  0.25714344762E+02  0.69768668831E+01 -0.23481995945E+02  0.35760043787E+02  0.41800000000E+01 0.  1.
         -5    1    3    3    0  502 -0.54862470614E+02  0.53052299050E+01 -0.51525729208E+03  0.51821384156E+03  0.41800000000E+01 0.  1.
        -11    1    1    2    0    0 -0.10705550198E+02 -0.42764972276E+02 -0.15318628830E+03  0.15940354633E+03  0.00000000000E+00 0.  1.
         11    1    1    2    0    0  0.39853676050E+02  0.30482875488E+02 -0.21683938792E+03  0.22256873399E+03  0.00000000000E+00 0. -1.
</event>
<event>
 7    1  0.2556591E-009  0.1607257E+03  0.7561462E-02  0.1187880E+00
          3   -1    0    0  501    0  0.00000000000E+00  0.00000000000E+00  0.52596311845E+02  0.52596311845E+02  0.00000000000E+00 0. -1.
         -3   -1    0    0    0  501 -0.00000000000E+00 -0.00000000000E+00 -0.59237414336E+03  0.59237414336E+03  0.00000000000E+00 0.  1.
         25    2    1    2    0    0 -0.49056751591E+02  0.13274694460E+03 -0.32979330034E+03  0.38004857488E+03  0.12507990302E+03 0.  0.
          5    1    3    3  502    0  0.23981504876E+02 -0.10610419078E+01 -0.11158475548E+02  0.26799670943E+02  0.41800000000E+01 0. -1.
         -5    1    3    3    0  502 -0.73038256467E+02  0.13380798651E+03 -0.31863482479E+03  0.35324890393E+03  0.41800000000E+01 0. -1.
        -11    1    1    2    0    0  0.18037251023E+02 -0.89873974058E+02 -0.70207942030E+02  0.11546353867E+03  0.00000000000E+00 0. -1.
         11    1    1    2    0    0  0.31019500568E+02 -0.42872970542E+02 -0.13977658914E+03  0.14945834166E+03  0.00000000000E+00 0.  1.
</event>
<event>
 7    1  0.2556591E-009  0.1364528E+03  0.7561462E-02  0.1218183E+00
          1   -1    0    0  501    0  0.00000000000E+00  0.00000000000E+00  0.76213219915E+03  0.76213219915E+03  0.00000000000E+00 0. -1.
         -1   -1    0    0    0  501 -0.00000000000E+00 -0.00000000000E+00 -0.27571232618E+02  0.27571232618E+02  0.00000000000E+00 0.  1.
         25    2    1    2    0    0  0.64002745103E+02 -0.55457490476E+02  0.52447080632E+03  0.54579314671E+03  0.12509455497E+03 0.  0.
          5    1    3    3  502    0  0.51426105164E+02 -0.94571247834E+02  0.41610751967E+03  0.42982706468E+03  0.41800000000E+01 0.  1.
         -5    1    3    3    0  502  0.12576639939E+02  0.39113757358E+02  0.10836328665E+03  0.11596608202E+03  0.41800000000E+01 0.  1.
        -11    1    1    2    0    0 -0.68059165592E+02 -0.21248075978E+00  0.11251040778E+03  0.13149405700E+03  0.00000000000E+00 0.  1.
         11    1    1    2    0    0  0.40564204881E+01  0.55669971235E+02  0.97579752434E+02  0.11241622805E+03  0.00000000000E+00 0. -1.
</event>
<event>
 7    1  0.2556591E-009  0.1225748E+03  0.7561462E-02  0.1238909E+00
          1   -1    0    0  501    0  0.00000000000E+00  0.00000000000E+00  0.55898848238E+03  0.55898848238E+03  0.00000000000E+00 0. -1.
         -1   -1    0    0    0  501 -0.00000000000E+00 -0.00000000000E+00 -0.37653568517E+02  0.37653568517E+02  0.00000000000E+00 0.  1.
         25    2    1    2    0    0 -0.98028546253E+02  0.64128884229E+01  0.29077895258E+03  0.33143263063E+03  0.12507784921E+03 0.  0.
          5    1    3    3  502    0 -0.59839478846E+02 -0.49566793420E+02  0.87401828652E+02  0.11702214444E+03  0.41800000000E+01 0.  1.
         -5    1    3    3    0  502 -0.38189067407E+02  0.55979681842E+02  0.20337712393E+03  0.21441048619E+03  0.41800000000E+01 0.  1.
        -11    1    1    2    0    0  0.19901196013E+02  0.49084367307E+01 -0.10445930078E+01  0.20524169373E+02  0.00000000000E+00 0.  1.
         11    1    1    2    0    0  0.78127350240E+02 -0.11321325154E+02  0.23160055428E+03  0.24468525089E+03  0.00000000000E+00 0. -1.
</event>
<event>
 7    1  0.2556591E-009  0.1436973E+03  0.7561462E-02  0.1208439E+00
         -1   -1    0    0    0  501 -0.00000000000E+00  0.00000000000E+00  0.46803806477E+02  0.46803806477E+02  0.00000000000E+00 0.  1.
          1   -1    0    0  501    0  0.00000000000E+00 -0.00000000000E+00 -0.45010282633E+03  0.45010282633E+03  0.00000000000E+00 0. -1.
         25    2    1    2    0    0 -0.27974248161E+02 -0.86106028736E+02 -0.19975047750E+03  0.25247394549E+03  0.12508410429E+03 0.  0.
          5    1    3    3  502    0  0.38773301800E+00 -0.11400805412E+03 -0.15482978316E+03  0.19232191995E+03  0.41800000000E+01 0.  1.
         -5    1    3    3    0  502 -0.28361981179E+02  0.27902025382E+02 -0.44920694344E+02  0.60152025545E+02  0.41800000000E+01 0.  1.
        -11    1    1    2    0    0  0.53024040400E+02  0.93236413002E+02 -0.14506430270E+03  0.18041127872E+03  0.00000000000E+00 0. -1.
         11    1    1    2    0    0 -0.25049792239E+02 -0.71303842662E+01 -0.58484239652E+02  0.64021408597E+02  0.00000000000E+00 0.  1.
</event>
<event>
 7    1  0.2556591E-009  0.9528322E+02  0.7561462E-02  0.1290539E+00
         -3   -1    0    0    0  501 -0.00000000000E+00  0.00000000000E+00  0.16253868452E+04  0.16253868452E+04  0.00000000000E+00 0.  1.
          3   -1    0    0  501    0  0.00000000000E+00 -0.00000000000E+00 -0.12216156638E+02  0.12216156638E+02  0.00000000000E+00 0. -1.
         25    2    1    2    0    0 -0.30191629063E+02  0.36357712661E+02  0.13290536328E+04  0.13357636979E+04  0.12509068745E+03 0.  0.
          5    1    3    3  502    0 -0.17959785888E+02 -0.22662149258E+02  0.10425216485E+04  0.10429309598E+04  0.41800000000E+01 0.  1.
         -5    1    3    3    0  502 -0.12231843176E+02  0.59019861919E+02  0.28653198433E+03  0.29283273815E+03  0.41800000000E+01 0.  1.
        -11    1    1    2    0    0  0.61439342674E+02 -0.32325851302E+02  0.21372428814E+03  0.22471721081E+03  0.00000000000E+00 0. -1.
         11    1    1    2    0    0 -0.31247713611E+02 -0.40318613598E+01  0.70392767550E+02  0.77122093042E+02  0.00000000000E+00 0.  1.
</event>
<event>
 7    1  0.3691269E-009  0.1059190E+03  0.7561462E-02  0.1268319E+00
         -1   -1    0    0    0  501 -0.00000000000E+00  0.00000000000E+00  0.17364827635E+03  0.17364827635E+03  0.00000000000E+00 0. -1.
          1   -1    0    0  501    0  0.00000000000E+00 -0.00000000000E+00 -0.10069756351E+03  0.10069756351E+03  0.00000000000E+00 0.  1.
         25    2    1    2    0    0  0.52689426115E+02  0.50885652450E+02  0.59108856290E+02  0.15654676509E+03  0.12508999768E+03 0.  0.
          5    1    3    3  502    0  0.59989413350E+02  0.83036954838E+02  0.18681663091E+02  0.10421296713E+03  0.41800000000E+01 0. -1.
         -5    1    3    3    0  502 -0.72999872350E+01 -0.32151302389E+02  0.40427193199E+02  0.52333797960E+02  0.41800000000E+01 0. -1.
        -11    1    1    2    0    0 -0.45723813122E+02 -0.31616536581E+02  0.50952113763E+02  0.75408158503E+02  0.00000000000E+00 0. -1.
         11    1    1    2    0    0 -0.69656129921E+01 -0.19269115869E+02 -0.37110257218E+02  0.42390916262E+02  0.00000000000E+00 0.  1.
</event>
<event>
 7    1  0.2556591E-009  0.1401537E+03  0.7561462E-02  0.1213122E+00
         -1   -1    0    0    0  501 -0.00000000000E+00  0.00000000000E+00  0.80929280632E+02  0.80929280632E+02  0.00000000000E+00 0.  1.
          1   -1    0    0  501    0  0.00000000000E+00 -0.00000000000E+00 -0.49017065128E+03  0.49017065128E+03  0.00000000000E+00 0. -1.
         25    2    1    2    0    0 -0.10759887081E+03 -0.66915191860E+02 -0.36964084202E+03  0.41028999328E+03  0.12509343147E+03 0.  0.
          5    1    3    3  502    0 -0.11233286933E+03 -0.56477015439E+02 -0.17639105367E+03  0.21665549386E+03  0.41800000000E+01 0.  1.
         -5    1    3    3    0  502  0.47339985214E+01 -0.10438176421E+02 -0.19324978835E+03  0.19363449942E+03  0.41800000000E+01 0.  1.
        -11    1    1    2    0    0  0.72380479400E+02  0.76994564476E+02 -0.57207771463E+02  0.12016582656E+03  0.00000000000E+00 0. -1.
         11    1    1    2    0    0  0.35218391407E+02 -0.10079372616E+02  0.17607242836E+02  0.40644112069E+02  0.00000000000E+00 0.  1.
</event>
<event>
 7    1  0.2556591E-009  0.9531062E+02  0.7561462E-02  0.1290478E+00
          3   -1    0    0  501    0  0.00000000000E+00  0.00000000000E+00  0.19491851350E+03  0.19491851350E+03  0.00000000000E+00 0. -1.
         -3   -1    0    0    0  501 -0.00000000000E+00 -0.00000000000E+00 -0.64080348114E+02  0.64080348114E+02  0.00000000000E+00 0.  1.
         25    2    1    2    0    0 -0.59118017417E+01 -0.23529763918E+02  0.52518103646E+02  0.13781956179E+03  0.12508989252E+03 0.  0.
          5    1    3    3  502    0 -0.11554092204E+02  0.45098617093E+02  0.50487606994E+02  0.68803002626E+02  0.41800000000E+01 0. -1.
         -5    1    3    3    0  502  0.56422904626E+01 -0.68628381011E+02  0.20304966527E+01  0.69016559162E+02  0.41800000000E+01 0. -1.
        -11    1    1    2    0    0  0.30692308146E+02 -0.10813931485E+02  0.45801093503E+00  0.32544871600E+02  0.00000000000E+00 0.  1.
         11    1    1    2    0    0 -0.24780506404E+02  0.34343695403E+02  0.77862050804E+02  0.88634428226E+02  0.00000000000E+00 0. -1.
</event>
<event>
 7    1  0.2556591E-009  0.1043923E+03  0.7561462E-02  0.1271322E+00
          3   -1    0    0  501    0  0.00000000000E+00  0.00000000000E+00  0.44708449189E+02  0.44708449189E+02  0.00000000000E+00 0. -1.
         -3   -1    0    0    0  501 -0.00000000000E+00 -0.00000000000E+00 -0.31142331757E+03  0.31142331757E+03  0.00000000000E+00 0.  1.
         25    2    1    2    0    0 -0.25978383437E+02 -0.82212861936E+01 -0.20772374602E+03  0.24400647529E+03  0.12509012499E+03 0.  0.
          5    1    3    3  502    0  0.27501452079E+02 -0.46020477103E+02 -0.13873468580E+03  0.14879179958E+03  0.41800000000E+01 0. -1.
         -5    1    3    3    0  502 -0.53479835516E+02  0.37799190910E+02 -0.68989060216E+02  0.95214675705E+02  0.41800000000E+01 0. -1.
        -11    1    1    2    0    0  0.49532235543E+02  0.29494765589E+02 -0.18225476573E+02  0.60461157377E+02  0.00000000000E+00 0. -1.
         11    1    1    2    0    0 -0.23553852106E+02 -0.21273479396E+02 -0.40765645789E+02  0.51664134089E+02  0.00000000000E+00 0.  1.
</event>
<event>
 7    1  0.2556591E-009  0.9380454E+02  0.7561462E-02  0.1293891E+00
         -1   -1    0    0    0  501 -0.00000000000E+00  0.00000000000E+00  0.10549248185E+03  0.10549248185E+03  0.00000000000E+00 0.  1.
          1   -1    0    0  501    0  0.00000000000E+00 -0.00000000000E+00 -0.14432909997E+03  0.14432909997E+03  0.00000000000E+00 0. -1.
         25    2    1    2    0    0  0.16983041351E+02  0.55328664339E+02 -0.41803618575E+02  0.14403552133E+03  0.12509597950E+03 0.  0.
          5    1    3    3  502    0  0.29944372755E+02  0.60374695739E+02 -0.79106435872E+02  0.10400514382E+03  0.41800000000E+01 0.  1.
         -5    1    3    3    0  502 -0.12961331404E+02 -0.50460314004E+01  0.37302817297E+02  0.40030377502E+02  0.41800000000E+01 0.  1.
        -11    1    1    2    0    0  0.36458910912E+02 -0.22170350741E+02 -0.18359668890E+01  0.42710038765E+02  0.00000000000E+00 0. -1.
         11    1    1    2    0    0 -0.53441952263E+02 -0.33158313598E+02  0.48029673443E+01  0.63076021733E+02  0.00000000000E+00 0.  1.
</event>
<event>
 7    1  0.2926872E-009  0.1474363E+03  0.7561462E-02  0.1203659E+00
          1   -1    0    0  501    0  0.00000000000E+00  0.00000000000E+00  0.31466057557E+03  0.31466057557E+03  0.00000000000E+00 0. -1.
         -1   -1    0    0    0  501 -0.00000000000E+00 -0.00000000000E+00 -0.72407900897E+02  0.72407900897E+02  0.00000000000E+00 0.  1.
         25    2    1    2    0    0  0.74930218296E+02 -0.71606008460E+02  0.11191210043E+03  0.19726514862E+03  0.12508901861E+03 0.  0.
          5    1    3    3  502    0 -0.30591242884E+02  0.49373873780E+01  0.14444716515E+02  0.34443056928E+02  0.41800000000E+01 0. -1.
         -5    1    3    3    0  502  0.10552146118E+03 -0.76543395838E+02  0.97467383910E+02  0.16282209169E+03  0.41800000000E+01 0. -1.
        -11    1    1    2    0    0  0.22498249536E+01  0.53959322713E+02  0.29310260801E+02  0.61447226204E+02  0.00000000000E+00 0.  1.
         11    1    1    2    0    0 -0.77180043250E+02  0.17646685747E+02  0.10103031344E+03  0.12835610164E+03  0.00000000000E+00 0. -1.
</event>
<event>
 7    1  0.2556591E-009  0.9109849E+02  0.7561462E-02  0.1300213E+00
          2   -1    0    0  501    0  0.00000000000E+00  0.00000000000E+00  0.92774355782E+03  0.92774355782E+03  0.00000000000E+00 0. -1.
         -2   -1    0    0    0  501 -0.00000000000E+00 -0.00000000000E+00 -0.18247648351E+02  0.18247648351E+02  0.00000000000E+00 0.  1.
         25    2    1    2    0    0 -0.10871869017E+02  0.65519902018E+02  0.58666652745E+03  0.60352100455E+03  0.12509569702E+03 0.  0.
          5    1    3    3  502    0 -0.72233723636E+01  0.75389358071E+01 -0.24680179192E+01  0.11514172739E+02  0.41800000000E+01 0.  1.
         -5    1    3    3    0  502 -0.36484966530E+01  0.57980966211E+02  0.58913454537E+03  0.59200683182E+03  0.41800000000E+01 0.  1.
        -11    1    1    2    0    0  0.35380328393E+02 -0.77670762394E+02  0.21750310530E+03  0.23364955763E+03  0.00000000000E+00 0. -1.
         11    1    1    2    0    0 -0.24508459376E+02  0.12150860376E+02  0.10532627673E+03  0.10882064399E+03  0.00000000000E+00 0.  1.
</event>
<event>
 7    1  0.2556591E-009  0.1122523E+03  0.7561462E-02  0.1256455E+00
         -1   -1    0    0    0  501 -0.00000000000E+00  0.00000000000E+00  0.15304495099E+02  0.15304495099E+02  0.00000000000E+00 0.  1.
          1   -1    0    0  501    0  0.00000000000E+00 -0.00000000000E+00 -0.98569923401E+03  0.98569923401E+03  0.00000000000E+00 0. -1.
         25    2    1    2    0    0 -0.38582037790E+02 -0.20596170322E+02 -0.71043251059E+03  0.72268552453E+03  0.12508892588E+03 0.  0.
          5    1    3    3  502    0 -0.79895283324E+02 -0.26655643333E+01 -0.55708232393E+03  0.56280418403E+03  0.41800000000E+01 0.  1.
         -5    1    3    3    0  502  0.41313245534E+02 -0.17930605989E+02 -0.15335018667E+03  0.15988134050E+03  0.41800000000E+01 0.  1.
        -11    1    1    2    0    0  0.63630250963E+02 -0.44727954345E+01 -0.17492075966E+03  0.18618831031E+03  0.00000000000E+00 0.  1.
         11    1    1    2    0    0 -0.25048213173E+02  0.25068965756E+02 -0.85041468656E+02  0.92129894271E+02  0.00000000000E+00 0. -1.
</event>
<event>
 7    1  0.2556591E-009  0.1284975E+03  0.7561462E-02  0.1229702E+00
         -2   -1    0    0    0  501 -0.00000000000E+00  0.00000000000E+00  0.32288571772E+02  0.32288571772E+02  0.00000000000E+00 0.  1.
          2   -1    0    0  501    0  0.00000000000E+00 -0.00000000000E+00 -0.71145585208E+03  0.71145585208E+03  0.00000000000E+00 0. -1.
         25    2    1    2    0    0 -0.10073341543E+03 -0.34488130584E+02 -0.36685576392E+03  0.40195149692E+03  0.12508078276E+03 0.  0.
          5    1    3    3  502    0  0.36991262452E+00  0.87935504387E+01 -0.21061024667E+03  0.21083550879E+03  0.41800000000E+01 0.  1.
         -5    1    3    3    0  502 -0.10110332806E+03 -0.43281681022E+02 -0.15624551725E+03  0.19111598813E+03  0.41800000000E+01 0.  1.
        -11    1    1    2    0    0  0.84311479820E+01  0.43632800657E+02 -0.77689121620E+02  0.89501425505E+02  0.00000000000E+00 0.  1.
         11    1    1    2    0    0  0.92302267450E+02 -0.91446700730E+01 -0.23462239477E+03  0.25229150143E+03  0.00000000000E+00 0. -1.
</event>
<event>
 7    1  0.2556591E-009  0.1785393E+03  0.7561462E-02  0.1169224E+00
          2   -1    0    0  501    0  0.00000000000E+00  0.00000000000E+00  0.95700122628E+02  0.95700122628E+02  0.00000000000E+00 0. -1.
         -2   -1    0    0    0  501 -0.00000000000E+00 -0.00000000000E+00 -0.41570639735E+03  0.41570639735E+03  0.00000000000E+00 0.  1.
         25    2    1    2    0    0 -0.10830327340E+03  0.96281842059E+02 -0.27323482891E+03  0.33362293408E+03  0.12508876159E+03 0.  0.
          5    1    3    3  502    0  0.41999079814E+01  0.76704390386E+02 -0.11803423859E+03  0.14089271312E+03  0.41800000000E+01 0. -1.
         -5    1    3    3    0  502 -0.11250318138E+03  0.19577451673E+02 -0.15520059032E+03  0.19273022096E+03  0.41800000000E+01 0. -1.
        -11    1    1    2    0    0 -0.51317152478E+01 -0.37997898971E+02  0.76948732212E+01  0.39107363775E+02  0.00000000000E+00 0.  1.
         11    1    1    2    0    0  0.11343498865E+03 -0.58283943088E+02 -0.54466319033E+02  0.13867622212E+03  0.00000000000E+00 0. -1.
</event>
<event>
 7    1  0.2556591E-009  0.8769762E+02  0.7561462E-02  0.1308525E+00
         -1   -1    0    0    0  501 -0.00000000000E+00  0.00000000000E+00  0.22804375826E+03  0.22804375826E+03  0.00000000000E+00 0.  1.
          1   -1    0    0  501    0  0.00000000000E+00 -0.00000000000E+00 -0.57232883421E+02  0.57232883421E+02  0.00000000000E+00 0. -1.
         25    2    1    2    0    0  0.80443407790E+01 -0.39938884418E+00  0.15827774466E+03  0.20190086909E+03  0.12508895056E+03 0.  0.
          5    1    3    3  502    0  0.62257291148E+01  0.45887290444E+02  0.14681062371E+03  0.15399751544E+03  0.41800000000E+01 0. -1.
         -5    1    3    3    0  502  0.18186116642E+01 -0.46286679288E+02  0.11467120953E+02  0.47903353649E+02  0.41800000000E+01 0. -1.
        -11    1    1    2    0    0  0.25634892947E+02 -0.28268126511E+02  0.70962873216E+01  0.38814842607E+02  0.00000000000E+00 0. -1.
         11    1    1    2    0    0 -0.33679233726E+02  0.28667515356E+02  0.54368428549E+01  0.44560929986E+02  0.00000000000E+00 0.  1.
</event>
<event>
 7    1  0.2556591E-009  0.2898569E+03  0.7561462E-02  0.1090424E+00
          1   -1    0    0  501    0  0.00000000000E+00  0.00000000000E+00  0.15096213451E+03  0.15096213451E+03  0.00000000000E+00 0. -1.
         -1   -1    0    0    0  501 -0.00000000000E+00 -0.00000000000E+00 -0.91097210564E+03  0.91097210564E+03  0.00000000000E+00 0.  1.
         25    2    1    2    0    0 -0.96152780323E+02 -0.26056463557E+03 -0.69923456085E+03  0.76270285261E+03  0.12508950320E+03 0.  0.
          5    1    3    3  502    0  0.26634959450E+02 -0.27941889301E+02 -0.60192213811E+02  0.71629220616E+02  0.41800000000E+01 0.  1.
         -5    1    3    3    0  502 -0.12278773977E+03 -0.23262274627E+03 -0.63904234704E+03  0.69107363199E+03  0.41800000000E+01 0.  1.
        -11    1    1    2    0    0  0.24699087117E+02  0.75193174613E+02  0.24768247363E+02  0.82930841611E+02  0.00000000000E+00 0. -1.
         11    1    1    2    0    0  0.71453693206E+02  0.18537146096E+03 -0.85543657633E+02  0.21630054593E+03  0.00000000000E+00 0.  1.
</event>
<event>
 7    1  0.2556591E-009  0.1118802E+03  0.7561462E-02  0.1257127E+00
         -2   -1    0    0    0  501 -0.00000000000E+00  0.00000000000E+00  0.98786506461E+02  0.98786506461E+02  0.00000000000E+00 0.  1.
          2   -1    0    0  501    0  0.00000000000E+00 -0.00000000000E+00 -0.14422509779E+03  0.14422509779E+03  0.00000000000E+00 0. -1.
         25    2    1    2    0    0  0.12355447076E+02 -0.35604843631E+02  0.11014331825E+02  0.13110546004E+03  0.12508782589E+03 0.  0.
          5    1    3    3  502    0 -0.53978993256E+02 -0.63102901830E+01 -0.10161615465E+02  0.55446210908E+02  0.41800000000E+01 0.  1.
         -5    1    3    3    0  502  0.66334440333E+02 -0.29294553448E+02  0.21175947290E+02  0.75659249135E+02  0.41800000000E+01 0.  1.
        -11    1    1    2    0    0 -0.19423884870E+02 -0.27196147544E+02 -0.18965130109E+02  0.38426474008E+02  0.00000000000E+00 0.  1.
         11    1    1    2    0    0  0.70684377938E+01  0.62800991175E+02 -0.37487793044E+02  0.73479670200E+02  0.00000000000E+00 0. -1.
</event>
<event>
 7    1  0.2556591E-009  0.1009519E+03  0.7561462E-02  0.1278307E+00
         -1   -1    0    0    0  501 -0.00000000000E+00  0.00000000000E+00  0.69741982576E+02  0.69741982576E+02  0.00000000000E+00 0.  1.
          1   -1    0    0  501    0  0.00000000000E+00 -0.00000000000E+00 -0.26522939804E+03  0.26522939804E+03  0.00000000000E+00 0. -1.
         25    2    1    2    0    0  0.43900259009E+02  0.17741940253E+02 -0.25773007386E+02  0.13621196952E+03  0.12508974197E+03 0.  0.
          5    1    3    3  502    0  0.76621091562E+02 -0.30448330640E+01  0.16664276033E+02  0.78582651879E+02  0.41800000000E+01 0. -1.
         -5    1    3    3    0  502 -0.32720832554E+02  0.20786773317E+02 -0.42437283419E+02  0.57629317643E+02  0.41800000000E+01 0. -1.
        -11    1    1    2    0    0 -0.58459243591E+02 -0.31224378638E+02 -0.16577080194E+03  0.17852843963E+03  0.00000000000E+00 0. -1.
         11    1    1    2    0    0  0.14558984582E+02  0.13482438384E+02 -0.39436061375E+01  0.20230971460E+02  0.00000000000E+00 0.  1.
</event>
<event>
 7    1  0.2556591E-009  0.1000290E+03  0.7561462E-02  0.1280235E+00
         -2   -1    0    0    0  501 -0.00000000000E+00  0.00000000000E+00  0.11041888333E+02  0.11041888333E+02  0.00000000000E+00 0.  1.
          2   -1    0    0  501    0  0.00000000000E+00 -0.00000000000E+00 -0.14047871084E+04  0.14047871084E+04  0.00000000000E+00 0. -1.
         25    2    1    2    0    0  0.21549060157E+02  0.24686626405E+02 -0.10884973669E+04  0.10961513136E+04  0.12508953982E+03 0.  0.
          5    1    3    3  502    0 -0.29287181941E+02 -0.21339350255E+02 -0.74268303999E+03  0.74357829258E+03  0.41800000000E+01 0.  1.
         -5    1    3    3    0  502  0.50836242098E+02  0.46025976661E+02 -0.34581432692E+03  0.35257302100E+03  0.41800000000E+01 0. -1.
        -11    1    1    2    0    0 -0.28976154757E+02 -0.55807897109E+02 -0.19587746126E+03  0.20572340351E+03  0.00000000000E+00 0.  1.
         11    1    1    2    0    0  0.74270946001E+01  0.31121270704E+02 -0.10937039188E+03  0.11395427963E+03  0.00000000000E+00 0. -1.
</event>
<event>
 7    1  0.2556591E-009  0.1457880E+03  0.7561462E-02  0.1205746E+00
         -1   -1    0    0    0  501 -0.00000000000E+00  0.00000000000E+00  0.58311936717E+03  0.58311936717E+03  0.00000000000E+00 0.  1.
          1   -1    0    0  501    0  0.00000000000E+00 -0.00000000000E+00 -0.39980035482E+02  0.39980035482E+02  0.00000000000E+00 0. -1.
         25    2    1    2    0    0 -0.33852369968E+02  0.10116697995E+03  0.27620452685E+03  0.32142920523E+03  0.12508817905E+03 0.  0.
          5    1    3    3  502    0  0.31264884533E+02  0.92408460943E+02  0.18133995388E+03  0.20595744204E+03  0.41800000000E+01 0. -1.
         -5    1    3    3    0  502 -0.65117254501E+02  0.87585190058E+01  0.94864572965E+02  0.11547176318E+03  0.41800000000E+01 0. -1.
        -11    1    1    2    0    0 -0.22329367645E+02 -0.26505261413E+02  0.26225641736E+02  0.43461636261E+02  0.00000000000E+00 0. -1.
         11    1    1    2    0    0  0.56181737613E+02 -0.74661718536E+02  0.24070916310E+03  0.25820856116E+03  0.00000000000E+00 0.  1.
</event>
<event>
 7    1  0.2556591E-009  0.1108787E+03  0.7561462E-02  0.1258951E+00
         -1   -1    0    0    0  501 -0.00000000000E+00  0.00000000000E+00  0.18730294216E+03  0.18730294216E+03  0.00000000000E+00 0.  1.
          1   -1    0    0  501    0  0.00000000000E+00 -0.00000000000E+00 -0.18440683882E+03  0.18440683882E+03  0.00000000000E+00 0. -1.
         25    2    1    2    0    0  0.79373457211E+02  0.74944983300E+01  0.12620631449E+03  0.19476479511E+03  0.12509587677E+03 0.  0.
          5    1    3    3  502    0  0.82478435906E+02  0.17176602030E+02  0.14800290540E+03  0.17035275300E+03  0.41800000000E+01 0. -1.
         -5    1    3    3    0  502 -0.31049786948E+01 -0.96821037004E+01 -0.21796590914E+02  0.24412042115E+02  0.41800000000E+01 0. -1.
        -11    1    1    2    0    0 -0.87007914422E+02  0.26985922723E+02 -0.81676755640E+02  0.12235076464E+03  0.00000000000E+00 0.  1.
         11    1    1    2    0    0  0.76344572103E+01 -0.34480421053E+02 -0.41633455508E+02  0.54594221218E+02  0.00000000000E+00 0. -1.
</event>
<event>
 7    1  0.2556591E-009  0.1166399E+03  0.7561462E-02  0.1248745E+00
         -1   -1    0    0    0  501 -0.00000000000E+00  0.00000000000E+00  0.41249805520E+02  0.41249805520E+02  0.00000000000E+00 0.  1.
          1   -1    0    0  501    0  0.00000000000E+00 -0.00000000000E+00 -0.53091636493E+03  0.53091636493E+03  0.00000000000E+00 0. -1.
         25    2    1    2    0    0  0.49136244544E+02 -0.10070483799E+02 -0.97308441711E+02  0.16622977740E+03  0.12509045085E+03 0.  0.
          5    1    3    3  502    0  0.65452610141E+02 -0.53250053444E+02 -0.81157747101E+02  0.11714804600E+03  0.41800000000E+01 0.  1.
         -5    1    3    3    0  502 -0.16316365596E+02  0.43179569645E+02 -0.16150694610E+02  0.49081731402E+02  0.41800000000E+01 0.  1.
        -11    1    1    2    0    0 -0.22195670492E+01 -0.36368959879E+02 -0.10669873535E+03  0.11274860463E+03  0.00000000000E+00 0.  1.
         11    1    1    2    0    0 -0.46916677495E+02  0.46439443678E+02 -0.28565938235E+03  0.29318778842E+03  0.00000000000E+00 0. -1.
</event>
<event>
 7    1  0.2556591E-009  0.1125617E+03  0.7561462E-02  0.1255898E+00
         -2   -1    0    0    0  501 -0.00000000000E+00  0.00000000000E+00  0.29113638395E+03  0.29113638395E+03  0.00000000000E+00 0.  1.
          2   -1    0    0  501    0  0.00000000000E+00 -0.00000000000E+00 -0.64756604505E+02  0.64756604505E+02  0.00000000000E+00 0. -1.
         25    2    1    2    0    0  0.24647658736E+02  0.40665563692E+02  0.35689050461E+02  0.13849944914E+03  0.12508874425E+03 0.  0.
          5    1    3    3  502    0 -0.50239986447E+02  0.25667139258E+02  0.79080804579E+01  0.57121523198E+02  0.41800000000E+01 0. -1.
         -5    1    3    3    0  502  0.74887645184E+02  0.14998424435E+02  0.27780970003E+02  0.81377925944E+02  0.41800000000E+01 0. -1.
        -11    1    1    2    0    0  0.28964953906E+02 -0.13372128455E+02  0.12190919698E+03  0.12601442251E+03  0.00000000000E+00 0.  1.
         11    1    1    2    0    0 -0.53612612642E+02 -0.27293435237E+02  0.68781532004E+02  0.91379116795E+02  0.00000000000E+00 0. -1.
</event>
<event>
 7    1  0.2556591E-009  0.7034155E+02  0.7561462E-02  0.1358935E+00
         -3   -1    0    0    0  501 -0.00000000000E+00  0.00000000000E+00  0.24951764599E+03  0.24951764599E+03  0.00000000000E+00 0.  1.
          3   -1    0    0  501    0  0.00000000000E+00 -0.00000000000E+00 -0.32427150900E+02  0.32427150900E+02  0.00000000000E+00 0. -1.
         25    2    1    2    0    0 -0.44894258878E+00  0.59030248518E+01  0.17616523226E+03  0.21614159874E+03  0.12509178389E+03 0.  0.
          5    1    3    3  502    0  0.13367306985E+02  0.45301522477E+02  0.15194680837E+02  0.49792203812E+02  0.41800000000E+01 0. -1.
         -5    1    3    3    0  502 -0.13816249574E+02 -0.39398497625E+02  0.16097055143E+03  0.16634939493E+03  0.41800000000E+01 0. -1.
        -11    1    1    2    0    0  0.24352536990E+02 -0.11228923975E+02  0.24430786852E+02  0.36276688627E+02  0.00000000000E+00 0.  1.
         11    1    1    2    0    0 -0.23903594402E+02  0.53258991233E+01  0.16494475973E+02  0.29526509519E+02  0.00000000000E+00 0. -1.
</event>
<event>
 7    1  0.2556591E-009  0.1877938E+03  0.7561462E-02  0.1160466E+00
          1   -1    0    0  501    0  0.00000000000E+00  0.00000000000E+00  0.23778246955E+04  0.23778246955E+04  0.00000000000E+00 0. -1.
         -1   -1    0    0    0  501 -0.00000000000E+00 -0.00000000000E+00 -0.16796696756E+02  0.16796696756E+02  0.00000000000E+00 0.  1.
         25    2    1    2    0    0 -0.10161405889E+03  0.13446477291E+03  0.12514613594E+04  0.12689403372E+04  0.12509138016E+03 0.  0.
          5    1    3    3  502    0 -0.97125169278E+01  0.78933110362E+02  0.26678203421E+03  0.27841496920E+03  0.41800000000E+01 0.  1.
         -5    1    3    3    0  502 -0.91901541959E+02  0.55531662548E+02  0.98467932514E+03  0.99052536804E+03  0.41800000000E+01 0.  1.
        -11    1    1    2    0    0  0.11352802276E+03 -0.13521409228E+03  0.10653848795E+04  0.10799149985E+04  0.00000000000E+00 0.  1.
         11    1    1    2    0    0 -0.11913963870E+02  0.74931937024E+00  0.44181759894E+02  0.45766056439E+02  0.00000000000E+00 0. -1.
</event>
<event>
 7    1  0.2556591E-009  0.7376175E+02  0.7561462E-02  0.1347749E+00
         -2   -1    0    0    0  501 -0.00000000000E+00  0.00000000000E+00  0.22825328354E+03  0.22825328354E+03  0.00000000000E+00 0.  1.
          2   -1    0    0  501    0  0.00000000000E+00 -0.00000000000E+00 -0.69467669353E+02  0.69467669353E+02  0.00000000000E+00 0. -1.
         25    2    1    2    0    0 -0.32961507200E+02  0.44745653021E+01  0.15142963813E+03  0.19921119862E+03  0.12509070173E+03 0.  0.
          5    1    3    3  502    0  0.65658459235E+01 -0.87508734786E+01  0.15656937056E+03  0.15700677793E+03  0.41800000000E+01 0.  1.
         -5    1    3    3    0  502 -0.39527353124E+02  0.13225438781E+02 -0.51397324319E+01  0.42204420685E+02  0.41800000000E+01 0.  1.
        -11    1    1    2    0    0  0.62851603696E+02  0.36173090606E+01 -0.88246812847E+01  0.63571094153E+02  0.00000000000E+00 0.  1.
         11    1    1    2    0    0 -0.29890096496E+02 -0.80918743627E+01  0.16180657349E+02  0.34938660127E+02  0.00000000000E+00 0. -1.
</event>
<event>
 7    1  0.2556591E-009  0.9771119E+02  0.7561462E-02  0.1285184E+00
         -2   -1    0    0    0  501 -0.00000000000E+00  0.00000000000E+00  0.18640979560E+03  0.18640979560E+03  0.00000000000E+00 0.  1.
          2   -1    0    0  501    0  0.00000000000E+00 -0.00000000000E+00 -0.13127905043E+03  0.13127905043E+03  0.00000000000E+00 0. -1.
         25    2    1    2    0    0 -0.74802248026E+02 -0.17221193592E+02 -0.53762047017E+02  0.15630653918E+03  0.12509768452E+03 0.  0.
          5    1    3    3  502    0 -0.25201371351E+02  0.17814847576E+02  0.36157507027E+02  0.47721228259E+02  0.41800000000E+01 0. -1.
         -5    1    3    3    0  502 -0.49600876675E+02 -0.35036041169E+02 -0.89919554044E+02  0.10858531092E+03  0.41800000000E+01 0. -1.
        -11    1    1    2    0    0 -0.13578407059E+02  0.26245368548E+01  0.55285657412E+02  0.56989167808E+02  0.00000000000E+00 0.  1.
         11    1    1    2    0    0  0.88380655085E+02  0.14596656737E+02  0.53607134770E+02  0.10439313904E+03  0.00000000000E+00 0. -1.
</event>
<event>
 7    1  0.2556591E-009  0.2190229E+03  0.7561462E-02  0.1134614E+00
          1   -1    0    0  501    0  0.00000000000E+00  0.00000000000E+00  0.58930150488E+02  0.58930150488E+02  0.00000000000E+00 0. -1.
         -1   -1    0    0    0  501 -0.00000000000E+00 -0.00000000000E+00 -0.13110409854E+04  0.13110409854E+04  0.00000000000E+00 0.  1.
         25    2    1    2    0    0  0.38045165076E+02  0.18634870507E+03 -0.22025468617E+03  0.31675370957E+03  0.12509001270E+03 0.  0.
          5    1    3    3  502    0  0.75587537255E+02  0.16951716735E+03 -0.17060326505E+03  0.25213586072E+03  0.41800000000E+01 0. -1.
         -5    1    3    3    0  502 -0.37542372178E+02  0.16831537721E+02 -0.49651421120E+02  0.64617848850E+02  0.41800000000E+01 0. -1.
        -11    1    1    2    0    0  0.36236696093E+01 -0.16345377106E+03 -0.79597529647E+03  0.81259272630E+03  0.00000000000E+00 0.  1.
         11    1    1    2    0    0 -0.41668834686E+02 -0.22894934014E+02 -0.23588085223E+03  0.24062469998E+03  0.00000000000E+00 0. -1.
</event>
<event>
 7    1  0.2556591E-009  0.1066681E+03  0.7561462E-02  0.1266867E+00
          2   -1    0    0  501    0  0.00000000000E+00  0.00000000000E+00  0.79964490034E+03  0.79964490034E+03  0.00000000000E+00 0. -1.
         -2   -1    0    0    0  501 -0.00000000000E+00 -0.00000000000E+00 -0.16858115563E+02  0.16858115563E+02  0.00000000000E+00 0.  1.
         25    2    1    2    0    0 -0.80765694559E+01 -0.20450169624E+02  0.58594452284E+03  0.59955292557E+03  0.12509710750E+03 0.  0.
          5    1    3    3  502    0  0.58248224718E+02 -0.14627406124E+02  0.26599745820E+03  0.27272502060E+03  0.41800000000E+01 0. -1.
         -5    1    3    3    0  502 -0.66324794174E+02 -0.58227634995E+01  0.31994706463E+03  0.32682790496E+03  0.41800000000E+01 0. -1.
        -11    1    1    2    0    0  0.15024741194E+02 -0.31030016772E+02  0.11462034109E+03  0.11969305486E+03  0.00000000000E+00 0. -1.
         11    1    1    2    0    0 -0.69481717383E+01  0.51480186396E+02  0.82221920849E+02  0.97257035478E+02  0.00000000000E+00 0.  1.
</event>
<event>
 7    1  0.2556591E-009  0.9966752E+02  0.7561462E-02  0.1280997E+00
          2   -1    0    0  501    0  0.00000000000E+00  0.00000000000E+00  0.30680505921E+02  0.30680505921E+02  0.00000000000E+00 0.  1.
         -2   -1    0    0    0  501 -0.00000000000E+00 -0.00000000000E+00 -0.63720435766E+03  0.63720435766E+03  0.00000000000E+00 0. -1.
         25    2    1    2    0    0 -0.56565746921E+02  0.55207168124E+02 -0.42537247183E+03  0.45037407254E+03  0.12509016863E+03 0.  0.
          5    1    3    3  502    0  0.23383400866E+01  0.27326006317E+02 -0.34809736358E+03  0.34920112455E+03  0.41800000000E+01 0.  1.
         -5    1    3    3    0  502 -0.58904087007E+02  0.27881161807E+02 -0.77275108249E+02  0.10117294799E+03  0.41800000000E+01 0.  1.
        -11    1    1    2    0    0  0.20693223186E+02 -0.65725695347E+02 -0.16081178903E+03  0.17495287367E+03  0.00000000000E+00 0. -1.
         11    1    1    2    0    0  0.35872523735E+02  0.10518527223E+02 -0.20339590886E+02  0.42557917377E+02  0.00000000000E+00 0.  1.
</event>
<event>
 7    1  0.2556591E-009  0.1126962E+03  0.7561462E-02  0.1255657E+00
          2   -1    0    0  501    0  0.00000000000E+00  0.00000000000E+00  0.71583327649E+03  0.71583327649E+03  0.00000000000E+00 0.  1.
         -2   -1    0    0    0  501 -0.00000000000E+00 -0.00000000000E+00 -0.60389017797E+02  0.60389017797E+02  0.00000000000E+00 0. -1.
         25    2    1    2    0    0  0.78520533674E+02  0.20103936431E+00  0.63822924998E+03  0.65509340125E+03  0.12508107052E+03 0.  0.
          5    1    3    3  502    0  0.52876197229E+02  0.60869621903E+02  0.38765138805E+03  0.39596978946E+03  0.41800000000E+01 0. -1.
         -5    1    3    3    0  502  0.25644336444E+02 -0.60668582538E+02  0.25057786193E+03  0.25912361179E+03  0.41800000000E+01 0. -1.
        -11    1    1    2    0    0 -0.38551973593E+02  0.22142152760E+01  0.54247469674E+02  0.66587877149E+02  0.00000000000E+00 0.  1.
         11    1    1    2    0    0 -0.39968560080E+02 -0.24152546403E+01 -0.37032460959E+02  0.54541015892E+02  0.00000000000E+00 0. -1.
</event>
<event>
 7    1  0.2556591E-009  0.6144188E+02  0.7561462E-02  0.1391879E+00
          2   -1    0    0  501    0  0.00000000000E+00  0.00000000000E+00  0.54214616409E+03  0.54214616409E+03  0.00000000000E+00 0. -1.
         -2   -1    0    0    0  501 -0.00000000000E+00 -0.00000000000E+00 -0.23183384468E+02  0.23183384468E+02  0.00000000000E+00 0.  1.
         25    2    1    2    0    0  0.13353423559E+02  0.22254245289E+02  0.27354396902E+03  0.30190649606E+03  0.12509062324E+03 0.  0.
          5    1    3    3  502    0  0.10297037562E+02  0.50433150245E+01 -0.11218842142E+02  0.16577057278E+02  0.41800000000E+01 0.  1.
         -5    1    3    3    0  502  0.30563859973E+01  0.17210930265E+02  0.28476281116E+03  0.28532943879E+03  0.41800000000E+01 0.  1.
        -11    1    1    2    0    0  0.35474869202E+02  0.64644315056E+01  0.12913690450E+03  0.13407682620E+03  0.00000000000E+00 0.  1.
         11    1    1    2    0    0 -0.48828292762E+02 -0.28718676795E+02  0.11628190610E+03  0.12934622630E+03  0.00000000000E+00 0. -1.
</event>
<event>
 7    1  0.2556591E-009  0.1011895E+03  0.7561462E-02  0.1277814E+00
          3   -1    0    0  501    0  0.00000000000E+00  0.00000000000E+00  0.93211033252E+02  0.93211033252E+02  0.00000000000E+00 0. -1.
         -3   -1    0    0    0  501 -0.00000000000E+00 -0.00000000000E+00 -0.13676906904E+03  0.13676906904E+03  0.00000000000E+00 0.  1.
         25    2    1    2    0    0 -0.72019456560E+01  0.14526575877E+02 -0.45298526288E+02  0.13402693016E+03  0.12509345345E+03 0.  0.
          5    1    3    3  502    0  0.28657840597E+02  0.58062733249E+02 -0.60109988103E+01  0.65162545428E+02  0.41800000000E+01 0.  1.
         -5    1    3    3    0  502 -0.35859786253E+02 -0.43536157372E+02 -0.39287527477E+02  0.68864384729E+02  0.41800000000E+01 0.  1.
        -11    1    1    2    0    0 -0.64041437038E+01  0.31910607259E+02  0.26154663062E+02  0.41753638309E+02  0.00000000000E+00 0. -1.
         11    1    1    2    0    0  0.13606089360E+02 -0.46437183135E+02 -0.24414172565E+02  0.54199533829E+02  0.00000000000E+00 0.  1.
</event>
<event>
 7    1  0.2556591E-009  0.9242497E+02  0.7561462E-02  0.1297083E+00
          2   -1    0    0  501    0  0.00000000000E+00  0.00000000000E+00  0.31927333068E+03  0.31927333068E+03  0.00000000000E+00 0. -1.
         -2   -1    0    0    0  501 -0.00000000000E+00 -0.00000000000E+00 -0.43027284216E+02  0.43027284216E+02  0.00000000000E+00 0.  1.
         25    2    1    2    0    0  0.31440564325E+02  0.53011102151E+01  0.18242440294E+03  0.22347853442E+03  0.12508949478E+03 0.  0.
          5    1    3    3  502    0  0.26305160698E+02 -0.58847981357E+02  0.90393353512E+02  0.11110120228E+03  0.41800000000E+01 0.  1.
         -5    1    3    3    0  502  0.51354036274E+01  0.64149091572E+02  0.92031049425E+02  0.11237733214E+03  0.41800000000E+01 0.  1.
        -11    1    1    2    0    0  0.58000451604E+01 -0.15999305049E+02  0.98350034402E+02  0.99811560216E+02  0.00000000000E+00 0. -1.
         11    1    1    2    0    0 -0.37240609486E+02  0.10698194834E+02 -0.45283908704E+01  0.39010520266E+02  0.00000000000E+00 0.  1.
</event>
<event>
 7    1  0.2556591E-009  0.1526263E+03  0.7561462E-02  0.1197282E+00
          4   -1    0    0  501    0  0.00000000000E+00  0.00000000000E+00  0.12566141418E+03  0.12566141418E+03  0.00000000000E+00 0. -1.
         -4   -1    0    0    0  501 -0.00000000000E+00 -0.00000000000E+00 -0.23899134387E+03  0.23899134387E+03  0.00000000000E+00 0.  1.
         25    2    1    2    0    0 -0.11239041216E+03 -0.58065923820E+02 -0.11403609236E+03  0.21132078522E+03  0.12509591380E+03 0.  0.
          5    1    3    3  502    0 -0.89448992672E+02 -0.92759343326E+02 -0.10971959717E+03  0.16929642781E+03  0.41800000000E+01 0.  1.
         -5    1    3    3    0  502 -0.22941419487E+02  0.34693419506E+02 -0.43164951897E+01  0.42024357411E+02  0.41800000000E+01 0.  1.
        -11    1    1    2    0    0  0.86565606882E+02  0.64444495177E+02  0.31708447446E+02  0.11248165581E+03  0.00000000000E+00 0. -1.
         11    1    1    2    0    0  0.25824805277E+02 -0.63785713571E+01 -0.31002284776E+02  0.40850317031E+02  0.00000000000E+00 0.  1.
</event>
<event>
 7    1  0.2556591E-009  0.1238682E+03  0.7561462E-02  0.1236849E+00
         -2   -1    0    0    0  501 -0.00000000000E+00  0.00000000000E+00  0.17411195169E+03  0.17411195169E+03  0.00000000000E+00 0.  1.
          2   -1    0    0  501    0  0.00000000000E+00 -0.00000000000E+00 -0.14409486206E+03  0.14409486206E+03  0.00000000000E+00 0. -1.
         25    2    1    2    0    0 -0.11011228126E+03 -0.38622907227E+02  0.25181007660E+02  0.17291207071E+03  0.12509219642E+03 0.  0.
          5    1    3    3  502    0 -0.94010100843E+02 -0.13626077834E+02 -0.38440576900E+02  0.10256080835E+03  0.41800000000E+01 0. -1.
         -5    1    3    3    0  502 -0.16102180413E+02 -0.24996829392E+02  0.63621584559E+02  0.70351262360E+02  0.41800000000E+01 0. -1.
        -11    1    1    2    0    0  0.60236654088E+02  0.11612235040E+01  0.41296962641E+02  0.73042741317E+02  0.00000000000E+00 0.  1.
         11    1    1    2    0    0  0.49875627169E+02  0.37461683723E+02 -0.36460880675E+02  0.72252001719E+02  0.00000000000E+00 0. -1.
</event>
<event>
 7    1  0.2556591E-009  0.1690410E+03  0.7561462E-02  0.1178852E+00
         -2   -1    0    0    0  501 -0.00000000000E+00  0.00000000000E+00  0.33078131982E+02  0.33078131982E+02  0.00000000000E+00 0. -1.
          2   -1    0    0  501    0  0.00000000000E+00 -0.00000000000E+00 -0.10966343516E+04  0.10966343516E+04  0.00000000000E+00 0.  1.
         25    2    1    2    0    0  0.13805843249E+03 -0.75470391442E+02 -0.57880504312E+03  0.61271433763E+03  0.12509065046E+03 0.  0.
          5    1    3    3  502    0  0.11376132343E+03 -0.77047205174E+02 -0.27051987396E+03  0.30344090882E+03  0.41800000000E+01 0.  1.
         -5    1    3    3    0  502  0.24297109065E+02  0.15768137318E+01 -0.30828516915E+03  0.30927342882E+03  0.41800000000E+01 0.  1.
        -11    1    1    2    0    0 -0.99029157673E+02  0.97852119701E+01 -0.22034014601E+03  0.24176911379E+03  0.00000000000E+00 0. -1.
         11    1    1    2    0    0 -0.39029274821E+02  0.65685179472E+02 -0.26441103050E+03  0.27522903216E+03  0.00000000000E+00 0.  1.
</event>
<event>
 7    1  0.2556591E-009  0.1030622E+03  0.7561462E-02  0.1273985E+00
         -2   -1    0    0    0  501 -0.00000000000E+00  0.00000000000E+00  0.32176856761E+02  0.32176856761E+02  0.00000000000E+00 0. -1.
          2   -1    0    0  501    0  0.00000000000E+00 -0.00000000000E+00 -0.63710380076E+03  0.63710380076E+03  0.00000000000E+00 0.  1.
         25    2    1    2    0    0 -0.20445997425E+02 -0.26073144713E+02 -0.53235080371E+03  0.54785739609E+03  0.12510995388E+03 0.  0.
          5    1    3    3  502    0 -0.65831423033E+02 -0.24656506029E+02 -0.19280077891E+03  0.20525918322E+03  0.41800000000E+01 0.  1.
         -5    1    3    3    0  502  0.45385425608E+02 -0.14166386846E+01 -0.33955002480E+03  0.34259821287E+03  0.41800000000E+01 0.  1.
        -11    1    1    2    0    0 -0.21159831300E+02 -0.19231008197E+02 -0.46556876840E+02  0.54636186891E+02  0.00000000000E+00 0.  1.
         11    1    1    2    0    0  0.41605828725E+02  0.45304152911E+02 -0.26019263456E+02  0.66787074540E+02  0.00000000000E+00 0. -1.
</event>
<event>
 7    1  0.2556591E-009  0.1128728E+03  0.7561462E-02  0.1255341E+00
          1   -1    0    0  501    0  0.00000000000E+00  0.00000000000E+00  0.29982635720E+03  0.29982635720E+03  0.00000000000E+00 0. -1.
         -1   -1    0    0    0  501 -0.00000000000E+00 -0.00000000000E+00 -0.67617931959E+02  0.67617931959E+02  0.00000000000E+00 0.  1.
         25    2    1    2    0    0 -0.76930750473E+02  0.47615506476E+01  0.55398593966E+02  0.15702821006E+03  0.12509133387E+03 0.  0.
          5    1    3    3  502    0 -0.77905004441E+02 -0.33749200914E+02  0.75217472681E+02  0.11350479671E+03  0.41800000000E+01 0.  1.
         -5    1    3    3    0  502  0.97425396795E+00  0.38510751561E+02 -0.19818878715E+02  0.43523413356E+02  0.41800000000E+01 0.  1.
        -11    1    1    2    0    0  0.52088978776E+02 -0.35077230655E+02  0.15086409619E+03  0.16341251280E+03  0.00000000000E+00 0. -1.
         11    1    1    2    0    0  0.24841771697E+02  0.30315680007E+02  0.25945735084E+02  0.47003566295E+02  0.00000000000E+00 0.  1.
</event>
<event>
 7    1  0.2556591E-009  0.1181411E+03  0.7561462E-02  0.1246195E+00
          1   -1    0    0  501    0  0.00000000000E+00  0.00000000000E+00  0.70750087019E+03  0.70750087019E+03  0.00000000000E+00 0. -1.
         -1   -1    0    0    0  501 -0.00000000000E+00 -0.00000000000E+00 -0.20895024208E+02  0.20895024208E+02  0.00000000000E+00 0.  1.
         25    2    1    2    0    0  0.16344896720E+02  0.49505001182E+02  0.31992521045E+03  0.34744391785E+03  0.12508890829E+03 0.  0.
          5    1    3    3  502    0  0.70539766368E+02  0.31537151020E+02  0.20320358199E+03  0.21743876993E+03  0.41800000000E+01 0. -1.
         -5    1    3    3    0  502 -0.54194869648E+02  0.17967850162E+02  0.11672162846E+03  0.13000514792E+03  0.41800000000E+01 0. -1.
        -11    1    1    2    0    0  0.35971761277E+02 -0.14956329668E+02  0.10895179971E+03  0.11570719107E+03  0.00000000000E+00 0.  1.
         11    1    1    2    0    0 -0.52316657997E+02 -0.34548671514E+02  0.25772883583E+03  0.26524478548E+03  0.00000000000E+00 0. -1.
</event>
<event>
 7    1  0.2556591E-009  0.1923566E+03  0.7561462E-02  0.1156353E+00
         -1   -1    0    0    0  501 -0.00000000000E+00  0.00000000000E+00  0.14860535429E+03  0.14860535429E+03  0.00000000000E+00 0.  1.
          1   -1    0    0  501    0  0.00000000000E+00 -0.00000000000E+00 -0.30659101309E+03  0.30659101309E+03  0.00000000000E+00 0. -1.
         25    2    1    2    0    0 -0.18213867429E+03 -0.21661251715E+02 -0.86020785346E+02  0.23809909123E+03  0.12509154743E+03 0.  0.
          5    1    3    3  502    0 -0.15511001834E+03 -0.47979138128E+02 -0.10722963999E+03  0.19461958683E+03  0.41800000000E+01 0. -1.
         -5    1    3    3    0  502 -0.27028655951E+02  0.26317886412E+02  0.21208854649E+02  0.43479504405E+02  0.41800000000E+01 0. -1.
        -11    1    1    2    0    0  0.57930378175E+02 -0.17047510717E+01 -0.69756884730E+02  0.90691002083E+02  0.00000000000E+00 0.  1.
         11    1    1    2    0    0  0.12420829611E+03  0.23366002787E+02 -0.22079887278E+01  0.12640627407E+03  0.00000000000E+00 0. -1.
</event>
<event>
 7    1  0.2556591E-009  0.9323932E+02  0.7561462E-02  0.1295192E+00
         -3   -1    0    0    0  501 -0.00000000000E+00  0.00000000000E+00  0.17921742583E+03  0.17921742583E+03  0.00000000000E+00 0.  1.
          3   -1    0    0  501    0  0.00000000000E+00 -0.00000000000E+00 -0.67365120298E+02  0.67365120298E+02  0.00000000000E+00 0. -1.
         25    2    1    2    0    0  0.31312168851E+01 -0.11186895830E+02  0.52145379517E+02  0.13601723990E+03  0.12508636132E+03 0.  0.
          5    1    3    3  502    0 -0.20933155209E+02  0.51741484835E+02  0.36197693134E+02  0.66656759809E+02  0.41800000000E+01 0.  1.
         -5    1    3    3    0  502  0.24064372094E+02 -0.62928380665E+02  0.15947686383E+02  0.69360480091E+02  0.41800000000E+01 0.  1.
        -11    1    1    2    0    0 -0.32513292009E+02  0.77323958070E+01  0.71336694536E+02  0.78777078452E+02  0.00000000000E+00 0.  1.
         11    1    1    2    0    0  0.29382075124E+02  0.34545000227E+01 -0.11629768524E+02  0.31788227772E+02  0.00000000000E+00 0. -1.
</event>
<event>
 7    1  0.2556591E-009  0.1136063E+03  0.7561462E-02  0.1254034E+00
          2   -1    0    0  501    0  0.00000000000E+00  0.00000000000E+00  0.27438924886E+03  0.27438924886E+03  0.00000000000E+00 0. -1.
         -2   -1    0    0    0  501 -0.00000000000E+00 -0.00000000000E+00 -0.61922377166E+02  0.61922377166E+02  0.00000000000E+00 0.  1.
         25    2    1    2    0    0 -0.41441792665E+02  0.87401048467E+00  0.42290549268E+02  0.13839360259E+03  0.12508442192E+03 0.  0.
          5    1    3    3  502    0 -0.18300749708E+02 -0.61660732616E+02  0.14695082125E+02  0.66108858902E+02  0.41800000000E+01 0.  1.
         -5    1    3    3    0  502 -0.23141042957E+02  0.62534743101E+02  0.27595467142E+02  0.72284743692E+02  0.41800000000E+01 0.  1.
        -11    1    1    2    0    0  0.27449685217E+02 -0.43303513433E+02  0.12134770199E+03  0.13173437013E+03  0.00000000000E+00 0.  1.
         11    1    1    2    0    0  0.13992107448E+02  0.42429502948E+02  0.48828620431E+02  0.66183653303E+02  0.00000000000E+00 0. -1.
</event>
<event>
 7    1  0.2556591E-009  0.1962675E+03  0.7561462E-02  0.1152927E+00
         -1   -1    0    0    0  501 -0.00000000000E+00  0.00000000000E+00  0.11650145401E+03  0.11650145401E+03  0.00000000000E+00 0.  1.
          1   -1    0    0  501    0  0.00000000000E+00 -0.00000000000E+00 -0.40520127079E+03  0.40520127079E+03  0.00000000000E+00 0. -1.
         25    2    1    2    0    0 -0.17757629257E+03 -0.18990880758E+02 -0.21960598493E+03  0.30946403378E+03  0.12508879386E+03 0.  0.
          5    1    3    3  502    0 -0.13513275179E+03 -0.53573551162E+02 -0.20725196475E+03  0.25318340246E+03  0.41800000000E+01 0. -1.
         -5    1    3    3    0  502 -0.42443540784E+02  0.34582670404E+02 -0.12354020176E+02  0.56280631314E+02  0.41800000000E+01 0. -1.
        -11    1    1    2    0    0  0.16445959371E+03 -0.53556958711E+01 -0.34805370481E+02  0.16818755976E+03  0.00000000000E+00 0.  1.
         11    1    1    2    0    0  0.13116698858E+02  0.24346576629E+02 -0.34288461366E+02  0.44051131261E+02  0.00000000000E+00 0. -1.
</event>
<event>
 7    1  0.2556591E-009  0.1111592E+03  0.7561462E-02  0.1258438E+00
          2   -1    0    0  501    0  0.00000000000E+00  0.00000000000E+00  0.26655072363E+03  0.26655072363E+03  0.00000000000E+00 0. -1.
         -2   -1    0    0    0  501 -0.00000000000E+00 -0.00000000000E+00 -0.54278557931E+02  0.54278557931E+02  0.00000000000E+00 0.  1.
         25    2    1    2    0    0  0.19488658152E+02 -0.38685468648E+02  0.15257077954E+03  0.20200299986E+03  0.12510394039E+03 0.  0.
          5    1    3    3  502    0 -0.45113364518E+02 -0.48484706113E+02  0.67530408556E+02  0.94677404193E+02  0.41800000000E+01 0. -1.
         -5    1    3    3    0  502  0.64602022670E+02  0.97992374649E+01  0.85040370986E+02  0.10732559567E+03  0.41800000000E+01 0. -1.
        -11    1    1    2    0    0 -0.25768126222E+02 -0.19278865935E+02 -0.40486623001E+01  0.32435515522E+02  0.00000000000E+00 0.  1.
         11    1    1    2    0    0  0.62794680702E+01  0.57964334582E+02  0.63750048458E+02  0.86390766181E+02  0.00000000000E+00 0. -1.
</event>
<event>
 7    1  0.2556591E-009  0.8549187E+02  0.7561462E-02  0.1314151E+00
          1   -1    0    0  501    0  0.00000000000E+00  0.00000000000E+00  0.29506462831E+02  0.29506462831E+02  0.00000000000E+00 0. -1.
         -1   -1    0    0    0  501 -0.00000000000E+00 -0.00000000000E+00 -0.60341724997E+03  0.60341724997E+03  0.00000000000E+00 0.  1.
         25    2    1    2    0    0 -0.40847886801E+02  0.48593345354E+02 -0.41325105453E+03  0.43640946453E+03  0.12508766361E+03 0.  0.
          5    1    3    3  502    0 -0.18940143840E+02  0.57849108989E+01  0.10908979276E+00  0.20240517370E+02  0.41800000000E+01 0. -1.
         -5    1    3    3    0  502 -0.21907742961E+02  0.42808434455E+02 -0.41336014432E+03  0.41616894716E+03  0.41800000000E+01 0. -1.
        -11    1    1    2    0    0 -0.36672780622E+01 -0.57045393363E+02 -0.12940921806E+03  0.14147215822E+03  0.00000000000E+00 0.  1.
         11    1    1    2    0    0  0.44515164864E+02  0.84520480091E+01 -0.31250514554E+02  0.55042090061E+02  0.00000000000E+00 0. -1.
</event>
<event>
 7    1  0.2556591E-009  0.6640002E+03  0.7561462E-02  0.9780858E-01
         -2   -1    0    0    0  501 -0.00000000000E+00  0.00000000000E+00  0.10373481979E+04  0.10373481979E+04  0.00000000000E+00 0.  1.
          2   -1    0    0  501    0  0.00000000000E+00 -0.00000000000E+00 -0.42976864404E+03  0.42976864404E+03  0.00000000000E+00 0. -1.
         25    2    1    2    0    0 -0.48216703300E+03 -0.44821318602E+03  0.28571560497E+03  0.72846474193E+03  0.12508942990E+03 0.  0.
          5    1    3    3  502    0 -0.29642346632E+03 -0.20738206072E+03  0.11479933992E+03  0.37956626739E+03  0.41800000000E+01 0.  1.
         -5    1    3    3    0  502 -0.18574356668E+03 -0.24083112530E+03  0.17091626505E+03  0.34889847454E+03  0.41800000000E+01 0.  1.
        -11    1    1    2    0    0  0.50925653430E+02  0.21211288588E+02  0.90677525477E+01  0.55906753412E+02  0.00000000000E+00 0.  1.
         11    1    1    2    0    0  0.43124137958E+03  0.42700189743E+03  0.31279619636E+03  0.68274534661E+03  0.00000000000E+00 0. -1.
</event>
<event>
 7    1  0.2556591E-009  0.8225350E+02  0.7561462E-02  0.1322775E+00
         -1   -1    0    0    0  501 -0.00000000000E+00  0.00000000000E+00  0.21127309839E+02  0.21127309839E+02  0.00000000000E+00 0.  1.
          1   -1    0    0  501    0  0.00000000000E+00 -0.00000000000E+00 -0.60787900024E+03  0.60787900024E+03  0.00000000000E+00 0. -1.
         25    2    1    2    0    0 -0.14687842484E+02  0.40719435516E+01 -0.43381410633E+03  0.45174674260E+03  0.12509247443E+03 0.  0.
          5    1    3    3  502    0 -0.42831499281E+02  0.19911835333E+02 -0.59804461082E+02  0.76322110049E+02  0.41800000000E+01 0. -1.
         -5    1    3    3    0  502  0.28143656797E+02 -0.15839891782E+02 -0.37400964525E+03  0.37542463255E+03  0.41800000000E+01 0. -1.
        -11    1    1    2    0    0  0.47733316884E+02 -0.14475436076E+02 -0.11775126999E+03  0.12788029314E+03  0.00000000000E+00 0. -1.
         11    1    1    2    0    0 -0.33045474400E+02  0.10403492524E+02 -0.35186314085E+02  0.49379274336E+02  0.00000000000E+00 0.  1.
</event>
<event>
 7    1  0.2556591E-009  0.1076310E+03  0.7561462E-02  0.1265021E+00
          2   -1    0    0  501    0  0.00000000000E+00  0.00000000000E+00  0.76681216443E+03  0.76681216443E+03  0.00000000000E+00 0. -1.
         -2   -1    0    0    0  501 -0.00000000000E+00 -0.00000000000E+00 -0.37815678446E+02  0.37815678446E+02  0.00000000000E+00 0.  1.
         25    2    1    2    0    0  0.30072799123E+02 -0.71046698252E+02  0.63678262080E+03  0.65352253332E+03  0.12509032271E+03 0.  0.
          5    1    3    3  502    0  0.58404363056E+02 -0.65854417537E+02  0.23987383897E+03  0.25554804823E+03  0.41800000000E+01 0. -1.
         -5    1    3    3    0  502 -0.28331563932E+02 -0.51922807147E+01  0.39690878183E+03  0.39797448509E+03  0.41800000000E+01 0. -1.
        -11    1    1    2    0    0 -0.96328175230E+01  0.76320694479E+02  0.25361035214E+02  0.80998899290E+02  0.00000000000E+00 0.  1.
         11    1    1    2    0    0 -0.20439981601E+02 -0.52739962269E+01  0.66852829977E+02  0.70106410263E+02  0.00000000000E+00 0. -1.
</event>
<event>
 7    1  0.2556591E-009  0.1128958E+03  0.7561462E-02  0.1255299E+00
          2   -1    0    0  501    0  0.00000000000E+00  0.00000000000E+00  0.51544994181E+03  0.51544994181E+03  0.00000000000E+00 0. -1.
         -2   -1    0    0    0  501 -0.00000000000E+00 -0.00000000000E+00 -0.59971098951E+02  0.59971098951E+02  0.00000000000E+00 0.  1.
         25    2    1    2    0    0 -0.66233250898E+02  0.70823176288E+02  0.82629751204E+02  0.17854664769E+03  0.12509381997E+03 0.  0.
          5    1    3    3  502    0 -0.67620067783E+02  0.66146751150E+02  0.11304514045E+03  0.14746030799E+03  0.41800000000E+01 0.  1.
         -5    1    3    3    0  502  0.13868168849E+01  0.46764251379E+01 -0.30415389243E+02  0.31086339700E+02  0.41800000000E+01 0.  1.
        -11    1    1    2    0    0  0.33530365190E+02  0.12018576626E+02  0.19209405342E+03  0.19536851572E+03  0.00000000000E+00 0. -1.
         11    1    1    2    0    0  0.32702885708E+02 -0.82841752914E+02  0.18075503823E+03  0.20150587734E+03  0.00000000000E+00 0.  1.
</event>
<event>
 7    1  0.2556591E-009  0.1570030E+03  0.7561462E-02  0.1192122E+00
         -1   -1    0    0    0  501 -0.00000000000E+00  0.00000000000E+00  0.41695946138E+02  0.41695946138E+02  0.00000000000E+00 0.  1.
          1   -1    0    0  501    0  0.00000000000E+00 -0.00000000000E+00 -0.85324520854E+03  0.85324520854E+03  0.00000000000E+00 0. -1.
         25    2    1    2    0    0 -0.85945998661E+02 -0.12690244956E+03 -0.44664869697E+03  0.48850105544E+03  0.12508907335E+03 0.  0.
          5    1    3    3  502    0 -0.15076713587E+02 -0.25799062251E+01 -0.21902690911E+03  0.21960014236E+03  0.41800000000E+01 0. -1.
         -5    1    3    3    0  502 -0.70869285074E+02 -0.12432254334E+03 -0.22762178786E+03  0.26890091309E+03  0.41800000000E+01 0. -1.
        -11    1    1    2    0    0  0.24864688014E+02  0.56806054113E+02 -0.54978440717E+02  0.82872247692E+02  0.00000000000E+00 0.  1.
         11    1    1    2    0    0  0.61081310646E+02  0.70096395452E+02 -0.30992212471E+03  0.32356785154E+03  0.00000000000E+00 0. -1.
</event>
<event>
 7    1  0.2556591E-009  0.1152603E+03  0.7561462E-02  0.1251127E+00
         -2   -1    0    0    0  501 -0.00000000000E+00  0.00000000000E+00  0.48657404932E+02  0.48657404932E+02  0.00000000000E+00 0.  1.
          2   -1    0    0  501    0  0.00000000000E+00 -0.00000000000E+00 -0.35477820823E+03  0.35477820823E+03  0.00000000000E+00 0. -1.
         25    2    1    2    0    0 -0.23873568248E+02  0.65281177236E+02 -0.13366713259E+03  0.19582192448E+03  0.12509094455E+03 0.  0.
          5    1    3    3  502    0  0.30967840001E+02  0.78840114381E+02 -0.94376259634E+02  0.12688231371E+03  0.41800000000E+01 0.  1.
         -5    1    3    3    0  502 -0.54841408249E+02 -0.13558937145E+02 -0.39290872959E+02  0.68939610770E+02  0.41800000000E+01 0.  1.
        -11    1    1    2    0    0 -0.31040119724E+01 -0.61785355894E+02 -0.43017111423E+02  0.75349432436E+02  0.00000000000E+00 0.  1.
         11    1    1    2    0    0  0.26977580221E+02 -0.34958213417E+01 -0.12943655928E+03  0.13226425625E+03  0.00000000000E+00 0. -1.
</event>
<event>
 7    1  0.2556591E-009  0.1204324E+03  0.7561462E-02  0.1242385E+00
         -2   -1    0    0    0  501 -0.00000000000E+00  0.00000000000E+00  0.33120463568E+03  0.33120463568E+03  0.00000000000E+00 0. -1.
          2   -1    0    0  501    0  0.00000000000E+00 -0.00000000000E+00 -0.52067120583E+02  0.52067120583E+02  0.00000000000E+00 0.  1.
         25    2    1    2    0    0  0.48928212092E+02  0.40963509972E+02  0.21521771105E+03  0.25697804772E+03  0.12508826793E+03 0.  0.
          5    1    3    3  502    0  0.10415845309E+02 -0.40363992725E+02  0.11412976363E+03  0.12157638376E+03  0.41800000000E+01 0. -1.
         -5    1    3    3    0  502  0.38512366783E+02  0.81327502698E+02  0.10108794742E+03  0.13540166396E+03  0.41800000000E+01 0. -1.
        -11    1    1    2    0    0 -0.53001011467E+02 -0.65362357970E+02  0.50756646621E+02  0.98272998490E+02  0.00000000000E+00 0. -1.
         11    1    1    2    0    0  0.40727993746E+01  0.24398847998E+02  0.13163157432E+02  0.28020710054E+02  0.00000000000E+00 0.  1.
</event>
<event>
 7    1  0.2556591E-009  0.9358340E+02  0.7561462E-02  0.1294399E+00
         -2   -1    0    0    0  501 -0.00000000000E+00  0.00000000000E+00  0.20459254488E+02  0.20459254488E+02  0.00000000000E+00 0.  1.
          2   -1    0    0  501    0  0.00000000000E+00 -0.00000000000E+00 -0.60215127685E+03  0.60215127685E+03  0.00000000000E+00 0. -1.
         25    2    1    2    0    0  0.59106234583E+01 -0.26794798036E+00 -0.40232448499E+03  0.42136469691E+03  0.12509280281E+03 0.  0.
          5    1    3    3  502    0  0.19363813188E+02  0.58316600194E+02 -0.25192478019E+03  0.25934407723E+03  0.41800000000E+01 0. -1.
         -5    1    3    3    0  502 -0.13453189729E+02 -0.58584548174E+02 -0.15039970479E+03  0.16202061968E+03  0.41800000000E+01 0. -1.
        -11    1    1    2    0    0  0.27185586422E+02  0.12652086057E+02 -0.15778222712E+02  0.33883383873E+02  0.00000000000E+00 0.  1.
         11    1    1    2    0    0 -0.33096209880E+02 -0.12384138077E+02 -0.16358931466E+03  0.16736245055E+03  0.00000000000E+00 0. -1.
</event>
<event>
 7    1  0.2556591E-009  0.7891035E+02  0.7561462E-02  0.1332172E+00
          4   -1    0    0  501    0  0.00000000000E+00  0.00000000000E+00  0.29128797661E+03  0.29128797661E+03  0.00000000000E+00 0. -1.
         -4   -1    0    0    0  501 -0.00000000000E+00 -0.00000000000E+00 -0.51338878577E+02  0.51338878577E+02  0.00000000000E+00 0.  1.
         25    2    1    2    0    0  0.14041491153E+02  0.12998753358E+02  0.21057654549E+03  0.24567357026E+03  0.12508753155E+03 0.  0.
          5    1    3    3  502    0  0.15149466601E+02  0.65515636791E+02  0.15540172995E+03  0.16937820130E+03  0.41800000000E+01 0. -1.
         -5    1    3    3    0  502 -0.11079754477E+01 -0.52516883433E+02  0.55174815537E+02  0.76295368959E+02  0.41800000000E+01 0. -1.
        -11    1    1    2    0    0 -0.24724159263E+02 -0.82836875136E+01 -0.28083807715E+02  0.38322366653E+02  0.00000000000E+00 0.  1.
         11    1    1    2    0    0  0.10682668110E+02 -0.47150658440E+01  0.57456360254E+02  0.58630918273E+02  0.00000000000E+00 0. -1.
</event>
<event>
 7    1  0.2556591E-009  0.9812864E+02  0.7561462E-02  0.1284281E+00
         -1   -1    0    0    0  501 -0.00000000000E+00  0.00000000000E+00  0.11343606363E+03  0.11343606363E+03  0.00000000000E+00 0.  1.
          1   -1    0    0  501    0  0.00000000000E+00 -0.00000000000E+00 -0.13062728627E+03  0.13062728627E+03  0.00000000000E+00 0. -1.
         25    2    1    2    0    0  0.38360597384E+02  0.34308502845E+02  0.11505626756E+01  0.13527433970E+03  0.12509682006E+03 0.  0.
          5    1    3    3  502    0 -0.19952259421E+02  0.26400397440E+02 -0.48025002460E+02  0.58471761580E+02  0.41800000000E+01 0.  1.
         -5    1    3    3    0  502  0.58312856804E+02  0.79081054046E+01  0.49175565136E+02  0.76802578122E+02  0.41800000000E+01 0.  1.
        -11    1    1    2    0    0 -0.61863872861E+01  0.30729672190E+02 -0.18161656673E+02  0.36227474569E+02  0.00000000000E+00 0. -1.
         11    1    1    2    0    0 -0.32174210098E+02 -0.65038175035E+02 -0.18012864275E+00  0.72561535634E+02  0.00000000000E+00 0.  1.
</event>
<event>
 7    1  0.2556591E-009  0.1073458E+03  0.7561462E-02  0.1265566E+00
         -2   -1    0    0    0  501 -0.00000000000E+00  0.00000000000E+00  0.37658808007E+02  0.37658808007E+02  0.00000000000E+00 0.  1.
          2   -1    0    0  501    0  0.00000000000E+00 -0.00000000000E+00 -0.40735463181E+03  0.40735463181E+03  0.00000000000E+00 0. -1.
         25    2    1    2    0    0  0.52391459440E+02 -0.33299022170E+01 -0.25135526711E+03  0.28562747562E+03  0.12509049226E+03 0.  0.
          5    1    3    3  502    0 -0.18553253609E+02 -0.48052217632E+02 -0.97640623675E+02  0.11047353815E+03  0.41800000000E+01 0. -1.
         -5    1    3    3    0  502  0.70944713050E+02  0.44722315415E+02 -0.15371464344E+03  0.17515393747E+03  0.41800000000E+01 0. -1.
        -11    1    1    2    0    0  0.10223940481E+02 -0.10781470530E+02  0.85806116091E+01  0.17157970781E+02  0.00000000000E+00 0.  1.
         11    1    1    2    0    0 -0.62615399921E+02  0.14111372747E+02 -0.12692116830E+03  0.14222799341E+03  0.00000000000E+00 0. -1.
</event>
<event>
 7    1  0.2556591E-009  0.1307732E+03  0.7561462E-02  0.1226313E+00
          2   -1    0    0  501    0  0.00000000000E+00  0.00000000000E+00  0.23201483364E+03  0.23201483364E+03  0.00000000000E+00 0. -1.
         -2   -1    0    0    0  501 -0.00000000000E+00 -0.00000000000E+00 -0.88465212791E+02  0.88465212791E+02  0.00000000000E+00 0.  1.
         25    2    1    2    0    0 -0.29031519814E+01  0.89096359799E+02  0.11017117497E+03  0.18903306211E+03  0.12509684709E+03 0.  0.
          5    1    3    3  502    0  0.50706772343E+02  0.77101098001E+01  0.60962028551E+02  0.79777590084E+02  0.41800000000E+01 0. -1.
         -5    1    3    3    0  502 -0.53609924324E+02  0.81386249999E+02  0.49209146423E+02  0.10925547202E+03  0.41800000000E+01 0. -1.
        -11    1    1    2    0    0  0.18137872306E+02 -0.94614596937E+02  0.22614263774E+01  0.96363989201E+02  0.00000000000E+00 0.  1.
         11    1    1    2    0    0 -0.15234720325E+02  0.55182371382E+01  0.31117019502E+02  0.35082995129E+02  0.00000000000E+00 0. -1.
</event>
<event>
 7    1  0.2556591E-009  0.1961617E+03  0.7561462E-02  0.1153018E+00
         -2   -1    0    0    0  501 -0.00000000000E+00  0.00000000000E+00  0.96155485992E+02  0.96155485992E+02  0.00000000000E+00 0.  1.
          2   -1    0    0  501    0  0.00000000000E+00 -0.00000000000E+00 -0.54448343007E+03  0.54448343007E+03  0.00000000000E+00 0. -1.
         25    2    1    2    0    0 -0.92520961256E+02  0.14724419280E+03 -0.37535890060E+03  0.43218303857E+03  0.12508754528E+03 0.  0.
          5    1    3    3  502    0 -0.58238500147E+02  0.15200903042E+03 -0.22443707867E+03  0.27728675214E+03  0.41800000000E+01 0. -1.
         -5    1    3    3    0  502 -0.34282461109E+02 -0.47648376177E+01 -0.15092182192E+03  0.15489628643E+03  0.41800000000E+01 0. -1.
        -11    1    1    2    0    0  0.16008703615E+02 -0.10696395800E+03 -0.32113272106E+02  0.11282211285E+03  0.00000000000E+00 0.  1.
         11    1    1    2    0    0  0.76512257642E+02 -0.40280234796E+02 -0.40855771369E+02  0.95633764638E+02  0.00000000000E+00 0. -1.
</event>
<event>
 7    1  0.2556591E-009  0.6606002E+02  0.7561462E-02  0.1374028E+00
          1   -1    0    0  501    0  0.00000000000E+00  0.00000000000E+00  0.15620041631E+03  0.15620041631E+03  0.00000000000E+00 0. -1.
         -1   -1    0    0    0  501 -0.00000000000E+00 -0.00000000000E+00 -0.10935446759E+03  0.10935446759E+03  0.00000000000E+00 0.  1.
         25    2    1    2    0    0 -0.52088413174E+02 -0.14490456676E+02  0.74992932772E+02  0.15554953202E+03  0.12509412785E+03 0.  0.
          5    1    3    3  502    0 -0.39386354442E+02 -0.18027349777E+02  0.10979225983E+03  0.11810200242E+03  0.41800000000E+01 0. -1.
         -5    1    3    3    0  502 -0.12702058732E+02  0.35368931011E+01 -0.34799327063E+02  0.37447529596E+02  0.41800000000E+01 0. -1.
        -11    1    1    2    0    0  0.62198814371E+02  0.16742395290E+02  0.14578751739E+02  0.66041958719E+02  0.00000000000E+00 0. -1.
         11    1    1    2    0    0 -0.10110401197E+02 -0.22519386137E+01 -0.42725735791E+02  0.43963393167E+02  0.00000000000E+00 0.  1.
</event>
<event>
 7    1  0.2556591E-009  0.1009254E+03  0.7561462E-02  0.1278362E+00
          1   -1    0    0  501    0  0.00000000000E+00  0.00000000000E+00  0.77335186532E+03  0.77335186532E+03  0.00000000000E+00 0. -1.
         -1   -1    0    0    0  501 -0.00000000000E+00 -0.00000000000E+00 -0.26853945567E+02  0.26853945567E+02  0.00000000000E+00 0.  1.
         25    2    1    2    0    0 -0.66229225842E+01  0.42820152197E+02  0.63477137035E+03  0.64842886697E+03  0.12509146399E+03 0.  0.
          5    1    3    3  502    0  0.56307738300E+02  0.32875073777E+02  0.39169868629E+03  0.39711039411E+03  0.41800000000E+01 0. -1.
         -5    1    3    3    0  502 -0.62930660884E+02  0.99450784208E+01  0.24307268406E+03  0.25131847286E+03  0.41800000000E+01 0. -1.
        -11    1    1    2    0    0  0.11858843785E+00 -0.57034292424E+02  0.22695620891E+02  0.61384165574E+02  0.00000000000E+00 0.  1.
         11    1    1    2    0    0  0.65043341463E+01  0.14214140227E+02  0.89030928516E+02  0.90392778348E+02  0.00000000000E+00 0. -1.
</event>
<event>
 7    1  0.2556591E-009  0.1486242E+03  0.7561462E-02  0.1202174E+00
          2   -1    0    0  501    0  0.00000000000E+00  0.00000000000E+00  0.58840551721E+03  0.58840551721E+03  0.00000000000E+00 0. -1.
         -2   -1    0    0    0  501 -0.00000000000E+00 -0.00000000000E+00 -0.55597227461E+02  0.55597227461E+02  0.00000000000E+00 0.  1.
         25    2    1    2    0    0 -0.13059955676E+03 -0.23653416339E+02  0.38500039430E+03  0.42601890320E+03  0.12510425230E+03 0.  0.
          5    1    3    3  502    0 -0.92408906461E+02  0.15607328686E+01  0.95762386254E+02  0.13315310324E+03  0.41800000000E+01 0. -1.
         -5    1    3    3    0  502 -0.38190650295E+02 -0.25214149207E+02  0.28923800804E+03  0.29286579996E+03  0.41800000000E+01 0. -1.
        -11    1    1    2    0    0  0.44416946967E+02 -0.33268098399E+02  0.38142492394E+02  0.67338557120E+02  0.00000000000E+00 0. -1.
         11    1    1    2    0    0  0.86182609789E+02  0.56921514737E+02  0.10966540305E+03  0.15064528435E+03  0.00000000000E+00 0.  1.
</event>
<event>
 7    1  0.2556591E-009  0.2495171E+03  0.7561462E-02  0.1113610E+00
          2   -1    0    0  501    0  0.00000000000E+00  0.00000000000E+00  0.37066356426E+03  0.37066356426E+03  0.00000000000E+00 0. -1.
         -2   -1    0    0    0  501 -0.00000000000E+00 -0.00000000000E+00 -0.17871793771E+03  0.17871793771E+03  0.00000000000E+00 0.  1.
         25    2    1    2    0    0 -0.10730247578E+03  0.20074157983E+03  0.15210659340E+03  0.30098983065E+03  0.12508980460E+03 0.  0.
          5    1    3    3  502    0 -0.74251520217E+02  0.21183208110E+03  0.12851322709E+03  0.25868753502E+03  0.41800000000E+01 0. -1.
         -5    1    3    3    0  502 -0.33050955568E+02 -0.11090501260E+02  0.23593366313E+02  0.42302295637E+02  0.41800000000E+01 0. -1.
        -11    1    1    2    0    0 -0.52061342513E+01 -0.55258411260E+02 -0.13068657077E+02  0.57020922884E+02  0.00000000000E+00 0.  1.
         11    1    1    2    0    0  0.11250861004E+03 -0.14548316858E+03  0.52907690218E+02  0.19137074843E+03  0.00000000000E+00 0. -1.
</event>
<event>
 7    1  0.2556591E-009  0.1613960E+03  0.7561462E-02  0.1187130E+00
         -1   -1    0    0    0  501 -0.00000000000E+00  0.00000000000E+00  0.19958650357E+03  0.19958650357E+03  0.00000000000E+00 0.  1.
          1   -1    0    0  501    0  0.00000000000E+00 -0.00000000000E+00 -0.15705918191E+03  0.15705918191E+03  0.00000000000E+00 0. -1.
         25    2    1    2    0    0  0.12195242755E+03 -0.52461065270E+02 -0.21428700794E+02  0.18365834428E+03  0.12508653105E+03 0.  0.
          5    1    3    3  502    0  0.46196316316E+02 -0.87046388779E+02 -0.56447623505E+01  0.98795289274E+02  0.41800000000E+01 0.  1.
         -5    1    3    3    0  502  0.75756111237E+02  0.34585323509E+02 -0.15783938444E+02  0.84863055005E+02  0.41800000000E+01 0.  1.
        -11    1    1    2    0    0 -0.11338941849E+02  0.24023910041E+02  0.51694138930E+02  0.58120597516E+02  0.00000000000E+00 0.  1.
         11    1    1    2    0    0 -0.11061348570E+03  0.28437155230E+02  0.12261883517E+02  0.11486674368E+03  0.00000000000E+00 0. -1.
</event>
<event>
 7    1  0.2556591E-009  0.1209881E+03  0.7561462E-02  0.1241476E+00
         -2   -1    0    0    0  501 -0.00000000000E+00  0.00000000000E+00  0.14237648633E+03  0.14237648633E+03  0.00000000000E+00 0.  1.
          2   -1    0    0  501    0  0.00000000000E+00 -0.00000000000E+00 -0.15425965377E+03  0.15425965377E+03  0.00000000000E+00 0. -1.
         25    2    1    2    0    0  0.63767591093E+02  0.82109166140E+01  0.70396399377E+02  0.15728109331E+03  0.12509182405E+03 0.  0.
          5    1    3    3  502    0 -0.23504347700E+02  0.31159282542E+02  0.51898239785E+02  0.65071152918E+02  0.41800000000E+01 0. -1.
         -5    1    3    3    0  502  0.87271938792E+02 -0.22948365928E+02  0.18498159592E+02  0.92209940395E+02  0.41800000000E+01 0. -1.
        -11    1    1    2    0    0  0.21234371896E+02 -0.16627391202E+02 -0.22082418772E+02  0.34856877468E+02  0.00000000000E+00 0.  1.
         11    1    1    2    0    0 -0.85001962989E+02  0.84164745876E+01 -0.60197148046E+02  0.10449816931E+03  0.00000000000E+00 0. -1.
</event>
<event>
 7    1  0.2556591E-009  0.8662917E+02  0.7561462E-02  0.1311226E+00
         -2   -1    0    0    0  501 -0.00000000000E+00  0.00000000000E+00  0.95120023570E+01  0.95120023570E+01  0.00000000000E+00 0.  1.
          2   -1    0    0  501    0  0.00000000000E+00 -0.00000000000E+00 -0.17353329235E+04  0.17353329235E+04  0.00000000000E+00 0. -1.
         25    2    1    2    0    0 -0.14820526660E+02  0.73106499547E+02 -0.12608727465E+04  0.12692563809E+04  0.12508984504E+03 0.  0.
          5    1    3    3  502    0 -0.11433830449E+02  0.27910401860E+02 -0.11349816432E+04  0.11353900325E+04  0.41800000000E+01 0. -1.
         -5    1    3    3    0  502 -0.33866962111E+01  0.45196097687E+02 -0.12589110330E+03  0.13386634845E+03  0.41800000000E+01 0. -1.
        -11    1    1    2    0    0  0.36833306910E+02 -0.25367623440E+02 -0.26989405400E+03  0.27357450393E+03  0.00000000000E+00 0. -1.
         11    1    1    2    0    0 -0.22012780250E+02 -0.47738876106E+02 -0.19505412059E+03  0.20201404096E+03  0.00000000000E+00 0.  1.
</event>
<event>
 7    1  0.2556591E-009  0.1036406E+03  0.7561462E-02  0.1272821E+00
          1   -1    0    0  501    0  0.00000000000E+00  0.00000000000E+00  0.32005064176E+02  0.32005064176E+02  0.00000000000E+00 0. -1.
         -1   -1    0    0    0  501 -0.00000000000E+00 -0.00000000000E+00 -0.49390405273E+03  0.49390405273E+03  0.00000000000E+00 0.  1.
         25    2    1    2    0    0  0.40331173740E+02 -0.39869178704E+02 -0.31835666489E+03  0.34672577553E+03  0.12510652400E+03 0.  0.
          5    1    3    3  502    0  0.58247191016E+02  0.47837607188E+01 -0.27704364519E+03  0.28317180892E+03  0.41800000000E+01 0.  1.
         -5    1    3    3    0  502 -0.17916017277E+02 -0.44652939423E+02 -0.41313019703E+02  0.63553966604E+02  0.41800000000E+01 0.  1.
        -11    1    1    2    0    0 -0.64308796421E+02  0.15382390927E+02 -0.12181709012E+03  0.13860607019E+03  0.00000000000E+00 0.  1.
         11    1    1    2    0    0  0.23977622681E+02  0.24486787777E+02 -0.21725233546E+02  0.40577271196E+02  0.00000000000E+00 0. -1.
</event>
<event>
 7    1  0.2556591E-009  0.1021871E+03  0.7561462E-02  0.1275763E+00
          1   -1    0    0  501    0  0.00000000000E+00  0.00000000000E+00  0.10062543015E+03  0.10062543015E+03  0.00000000000E+00 0. -1.
         -1   -1    0    0    0  501 -0.00000000000E+00 -0.00000000000E+00 -0.16534240535E+03  0.16534240535E+03  0.00000000000E+00 0.  1.
         25    2    1    2    0    0  0.69108211307E+02  0.10070304493E+02 -0.35181724778E+02  0.14752514598E+03  0.12509420065E+03 0.  0.
          5    1    3    3  502    0 -0.15284164297E+02  0.22976351618E+02 -0.53286042139E+02  0.60153080542E+02  0.41800000000E+01 0. -1.
         -5    1    3    3    0  502  0.84392375603E+02 -0.12906047125E+02  0.18104317360E+02  0.87372065441E+02  0.41800000000E+01 0. -1.
        -11    1    1    2    0    0 -0.16193820784E+02  0.23340664720E+02 -0.45699010665E+02  0.53809163131E+02  0.00000000000E+00 0.  1.
         11    1    1    2    0    0 -0.52914390522E+02 -0.33410969213E+02  0.16163760247E+02  0.64633526388E+02  0.00000000000E+00 0. -1.
</event>
<event>
 7    1  0.2556591E-009  0.2178352E+03  0.7561462E-02  0.1135507E+00
          2   -1    0    0  501    0  0.00000000000E+00  0.00000000000E+00  0.76298697911E+02  0.76298697911E+02  0.00000000000E+00 0. -1.
         -2   -1    0    0    0  501 -0.00000000000E+00 -0.00000000000E+00 -0.86379028745E+03  0.86379028745E+03  0.00000000000E+00 0.  1.
         25    2    1    2    0    0  0.18702569815E+03 -0.69276269316E+02 -0.18467676161E+03  0.29921681829E+03  0.12508950719E+03 0.  0.
          5    1    3    3  502    0  0.11290326828E+03  0.21864404759E+02 -0.11437451790E+03  0.16224735106E+03  0.41800000000E+01 0. -1.
         -5    1    3    3    0  502  0.74122429879E+02 -0.91140674075E+02 -0.70302243713E+02  0.13696946723E+03  0.41800000000E+01 0. -1.
        -11    1    1    2    0    0 -0.94839901418E+02  0.14867855973E+02 -0.40206025285E+03  0.41336195636E+03  0.00000000000E+00 0.  1.
         11    1    1    2    0    0 -0.92185796736E+02  0.54408413343E+02 -0.20075457508E+03  0.22751021071E+03  0.00000000000E+00 0. -1.
</event>
<event>
 7    1  0.2556591E-009  0.1040669E+03  0.7561462E-02  0.1271969E+00
          2   -1    0    0  501    0  0.00000000000E+00  0.00000000000E+00  0.14550469331E+04  0.14550469331E+04  0.00000000000E+00 0. -1.
         -2   -1    0    0    0  501 -0.00000000000E+00 -0.00000000000E+00 -0.99549076533E+01  0.99549076533E+01  0.00000000000E+00 0.  1.
         25    2    1    2    0    0  0.40202075504E+02 -0.30716098168E+02  0.87876073430E+03  0.88906022531E+03  0.12509184832E+03 0.  0.
          5    1    3    3  502    0  0.62284384185E+01  0.31570677254E+02  0.61609105647E+03  0.61694502459E+03  0.41800000000E+01 0. -1.
         -5    1    3    3    0  502  0.33973637085E+02 -0.62286775422E+02  0.26266967784E+03  0.27211520072E+03  0.41800000000E+01 0. -1.
        -11    1    1    2    0    0 -0.51078934388E+02 -0.18410405455E+02  0.27788691913E+03  0.28314155539E+03  0.00000000000E+00 0. -1.
         11    1    1    2    0    0  0.10876858884E+02  0.49126503623E+02  0.28844437197E+03  0.29280006000E+03  0.00000000000E+00 0.  1.
</event>
<event>
 7    1  0.4050206E-009  0.1781420E+03  0.7561462E-02  0.1169613E+00
          2   -1    0    0  501    0  0.00000000000E+00  0.00000000000E+00  0.13916174342E+04  0.13916174342E+04  0.00000000000E+00 0. -1.
         -2   -1    0    0    0  501 -0.00000000000E+00 -0.00000000000E+00 -0.27636450756E+02  0.27636450756E+02  0.00000000000E+00 0.  1.
         25    2    1    2    0    0 -0.14757048036E+03  0.68848210920E+02  0.69164844956E+03  0.72148586740E+03  0.12508859368E+03 0.  0.
          5    1    3    3  502    0 -0.18284491082E+02  0.54401562483E+02  0.37085717567E+03  0.37529504361E+03  0.41800000000E+01 0. -1.
         -5    1    3    3    0  502 -0.12928598928E+03  0.14446648438E+02  0.32079127389E+03  0.34619082379E+03  0.41800000000E+01 0. -1.
        -11    1    1    2    0    0  0.10868776221E+03 -0.70693236305E+02  0.61467369264E+03  0.62819926118E+03  0.00000000000E+00 0. -1.
         11    1    1    2    0    0  0.38882718153E+02  0.18450253847E+01  0.57658841219E+02  0.69568756352E+02  0.00000000000E+00 0.  1.
</event>
<event>
 7    1  0.2556591E-009  0.1034877E+03  0.7561462E-02  0.1273128E+00
         -3   -1    0    0    0  501 -0.00000000000E+00  0.00000000000E+00  0.53596842841E+03  0.53596842841E+03  0.00000000000E+00 0.  1.
          3   -1    0    0  501    0  0.00000000000E+00 -0.00000000000E+00 -0.24563559637E+02  0.24563559637E+02  0.00000000000E+00 0. -1.
         25    2    1    2    0    0  0.41113225870E+00  0.34473010049E+02  0.32167554803E+03  0.34685967976E+03  0.12509165356E+03 0.  0.
          5    1    3    3  502    0 -0.45726937273E+02 -0.13185942600E+02  0.59055061684E+02  0.75959163931E+02  0.41800000000E+01 0. -1.
         -5    1    3    3    0  502  0.46138069532E+02  0.47658952649E+02  0.26262048635E+03  0.27090051583E+03  0.41800000000E+01 0. -1.
        -11    1    1    2    0    0 -0.41453629271E+02 -0.30575817301E+02  0.69057924069E+02  0.86152660203E+02  0.00000000000E+00 0. -1.
         11    1    1    2    0    0  0.41042497012E+02 -0.38971927479E+01  0.12067139667E+03  0.12751964808E+03  0.00000000000E+00 0.  1.
</event>
<event>
 7    1  0.2556591E-009  0.5742683E+02  0.7561462E-02  0.1408959E+00
         -2   -1    0    0    0  501 -0.00000000000E+00  0.00000000000E+00  0.22689129485E+03  0.22689129485E+03  0.00000000000E+00 0. -1.
          2   -1    0    0  501    0  0.00000000000E+00 -0.00000000000E+00 -0.64646896387E+02  0.64646896387E+02  0.00000000000E+00 0.  1.
         25    2    1    2    0    0 -0.23355220841E+02  0.27975648907E+02  0.44612644159E+02  0.13771537378E+03  0.12508850021E+03 0.  0.
          5    1    3    3  502    0 -0.20164093579E+02  0.17528491216E+02 -0.42198370299E+02  0.50119991321E+02  0.41800000000E+01 0. -1.
         -5    1    3    3    0  502 -0.31911272622E+01  0.10447157691E+02  0.86811014458E+02  0.87595382460E+02  0.41800000000E+01 0. -1.
        -11    1    1    2    0    0 -0.56190958170E+01 -0.43076509126E+02  0.11269581216E+03  0.12077874794E+03  0.00000000000E+00 0. -1.
         11    1    1    2    0    0  0.28974316658E+02  0.15100860220E+02  0.49359421444E+01  0.33044069513E+02  0.00000000000E+00 0.  1.
</event>
<event>
 7    1  0.2556591E-009  0.1080171E+03  0.7561462E-02  0.1264287E+00
         -1   -1    0    0    0  501 -0.00000000000E+00  0.00000000000E+00  0.17881081427E+03  0.17881081427E+03  0.00000000000E+00 0.  1.
          1   -1    0    0  501    0  0.00000000000E+00 -0.00000000000E+00 -0.71459871198E+02  0.71459871198E+02  0.00000000000E+00 0. -1.
         25    2    1    2    0    0  0.21804877054E+02 -0.13144658490E+02  0.85897402076E+02  0.15386524299E+03  0.12509162485E+03 0.  0.
          5    1    3    3  502    0  0.69246644311E+02  0.16827600706E+02  0.48049171191E+02  0.86049178648E+02  0.41800000000E+01 0.  1.
         -5    1    3    3    0  502 -0.47441767257E+02 -0.29972259196E+02  0.37848230885E+02  0.67816064343E+02  0.41800000000E+01 0.  1.
        -11    1    1    2    0    0 -0.97504562923E+01  0.49305655151E+02  0.28296929276E+02  0.57678724277E+02  0.00000000000E+00 0.  1.
         11    1    1    2    0    0 -0.12054420761E+02 -0.36160996661E+02 -0.68433882801E+01  0.38726718200E+02  0.00000000000E+00 0. -1.
</event>
<event>
 7    1  0.2556591E-009  0.9896061E+02  0.7561462E-02  0.1282497E+00
         -2   -1    0    0    0  501 -0.00000000000E+00  0.00000000000E+00  0.34724421641E+03  0.34724421641E+03  0.00000000000E+00 0.  1.
          2   -1    0    0  501    0  0.00000000000E+00 -0.00000000000E+00 -0.93295753520E+02  0.93295753520E+02  0.00000000000E+00 0. -1.
         25    2    1    2    0    0 -0.42823576342E+02  0.42362137940E+02  0.29230580270E+03  0.32359855471E+03  0.12507970618E+03 0.  0.
          5    1    3    3  502    0 -0.67365470894E+02  0.39281647779E+02  0.28767891865E+03  0.29809023325E+03  0.41800000000E+01 0. -1.
         -5    1    3    3    0  502  0.24541894551E+02  0.30804901612E+01  0.46268840468E+01  0.25508321462E+02  0.41800000000E+01 0. -1.
        -11    1    1    2    0    0  0.28518865626E+02  0.17322394060E+02  0.14079782362E+02  0.36216450736E+02  0.00000000000E+00 0.  1.
         11    1    1    2    0    0  0.14304710716E+02 -0.59684532000E+02 -0.52437122174E+02  0.80724964482E+02  0.00000000000E+00 0. -1.
</event>
<event>
 7    1  0.2556591E-009  0.8858529E+02  0.7561462E-02  0.1306314E+00
         -4   -1    0    0    0  501 -0.00000000000E+00  0.00000000000E+00  0.12134176275E+03  0.12134176275E+03  0.00000000000E+00 0.  1.
          4   -1    0    0  501    0  0.00000000000E+00 -0.00000000000E+00 -0.11593559979E+03  0.11593559979E+03  0.00000000000E+00 0. -1.
         25    2    1    2    0    0 -0.23999590367E+02 -0.22881945386E+02 -0.17409192201E+02  0.13057501976E+03  0.12508873671E+03 0.  0.
          5    1    3    3  502    0  0.45103941239E+02 -0.19125736460E+02 -0.33377764159E+02  0.59428165466E+02  0.41800000000E+01 0. -1.
         -5    1    3    3    0  502 -0.69103531606E+02 -0.37562089258E+01  0.15968571958E+02  0.71146854297E+02  0.41800000000E+01 0. -1.
        -11    1    1    2    0    0  0.19722069297E+02 -0.12290273240E+02  0.54451331497E+02  0.59202688583E+02  0.00000000000E+00 0.  1.
         11    1    1    2    0    0  0.42775210697E+01  0.35172218626E+02 -0.31635976342E+02  0.47499654195E+02  0.00000000000E+00 0. -1.
</event>
<event>
 7    1  0.2556591E-009  0.9547790E+02  0.7561462E-02  0.1290103E+00
         -2   -1    0    0    0  501 -0.00000000000E+00  0.00000000000E+00  0.67388621240E+02  0.67388621240E+02  0.00000000000E+00 0.  1.
          2   -1    0    0  501    0  0.00000000000E+00 -0.00000000000E+00 -0.25207630751E+03  0.25207630751E+03  0.00000000000E+00 0. -1.
         25    2    1    2    0    0 -0.40911795612E+02  0.10705838254E+02 -0.17367477742E+03  0.21817064947E+03  0.12508842466E+03 0.  0.
          5    1    3    3  502    0  0.22152790376E+02 -0.21025249709E+02 -0.13312833804E+03  0.13665077401E+03  0.41800000000E+01 0.  1.
         -5    1    3    3    0  502 -0.63064585988E+02  0.31731087963E+02 -0.40546439379E+02  0.81519875463E+02  0.41800000000E+01 0.  1.
        -11    1    1    2    0    0  0.22329866860E+01  0.31834427299E+02 -0.26797361796E+02  0.41671520134E+02  0.00000000000E+00 0.  1.
         11    1    1    2    0    0  0.38678808926E+02 -0.42540265553E+02  0.15784452948E+02  0.59622759146E+02  0.00000000000E+00 0. -1.
</event>
<event>
 7    1  0.2556591E-009  0.9402843E+02  0.7561462E-02  0.1293379E+00
          2   -1    0    0  501    0  0.00000000000E+00  0.00000000000E+00  0.30868820723E+03  0.30868820723E+03  0.00000000000E+00 0. -1.
         -2   -1    0    0    0  501 -0.00000000000E+00 -0.00000000000E+00 -0.52230973815E+02  0.52230973815E+02  0.00000000000E+00 0.  1.
         25    2    1    2    0    0  0.28491154117E+02  0.60227232739E+02  0.14807708364E+03  0.20497282103E+03  0.12509184321E+03 0.  0.
          5    1    3    3  502    0  0.38715133626E+02  0.67245309422E+02  0.25623472870E+02  0.81821928435E+02  0.41800000000E+01 0. -1.
         -5    1    3    3    0  502 -0.10223979509E+02 -0.70180766826E+01  0.12245361077E+03  0.12315089259E+03  0.41800000000E+01 0. -1.
        -11    1    1    2    0    0 -0.20276470137E+02  0.12667375187E+02 -0.13595285956E+01  0.23946731580E+02  0.00000000000E+00 0.  1.
         11    1    1    2    0    0 -0.82146839798E+01 -0.72894607926E+02  0.10973967837E+03  0.13199962844E+03  0.00000000000E+00 0. -1.
</event>
<event>
 7    1  0.2556591E-009  0.1002048E+03  0.7561462E-02  0.1279866E+00
          2   -1    0    0  501    0  0.00000000000E+00  0.00000000000E+00  0.22868202725E+03  0.22868202725E+03  0.00000000000E+00 0. -1.
         -2   -1    0    0    0  501 -0.00000000000E+00 -0.00000000000E+00 -0.79599076440E+02  0.79599076440E+02  0.00000000000E+00 0.  1.
         25    2    1    2    0    0 -0.27767776171E+02 -0.31112128027E+02  0.16164917160E+03  0.20861519960E+03  0.12510328902E+03 0.  0.
          5    1    3    3  502    0 -0.72082614906E+02 -0.15633783673E+01  0.60458031414E+02  0.94185951639E+02  0.41800000000E+01 0.  1.
         -5    1    3    3    0  502  0.44314838735E+02 -0.29548749660E+02  0.10119114018E+03  0.11442924796E+03  0.41800000000E+01 0.  1.
        -11    1    1    2    0    0  0.24414169989E+02  0.49966486859E+02 -0.38346525052E+02  0.67551147206E+02  0.00000000000E+00 0.  1.
         11    1    1    2    0    0  0.33536061817E+01 -0.18854358832E+02  0.25780304265E+02  0.32114756879E+02  0.00000000000E+00 0. -1.
</event>
<event>
 7    1  0.2556591E-009  0.8772647E+02  0.7561462E-02  0.1308453E+00
         -1   -1    0    0    0  501 -0.00000000000E+00  0.00000000000E+00  0.20829356642E+02  0.20829356642E+02  0.00000000000E+00 0.  1.
          1   -1    0    0  501    0  0.00000000000E+00 -0.00000000000E+00 -0.54747229424E+03  0.54747229424E+03  0.00000000000E+00 0. -1.
         25    2    1    2    0    0 -0.84280062943E+01  0.81981908505E+01 -0.27647089075E+03  0.30368090477E+03  0.12509075453E+03 0.  0.
          5    1    3    3  502    0 -0.42071173905E+02 -0.19463750655E+02 -0.34888072720E+02  0.58167613681E+02  0.41800000000E+01 0.  1.
         -5    1    3    3    0  502  0.33643167610E+02  0.27661941506E+02 -0.24158281803E+03  0.24551329109E+03  0.41800000000E+01 0.  1.
        -11    1    1    2    0    0 -0.32467722763E+02 -0.24963743465E+02 -0.99486250934E+02  0.10758650303E+03  0.00000000000E+00 0. -1.
         11    1    1    2    0    0  0.40895729058E+02  0.16765552615E+02 -0.15068579591E+03  0.15703424308E+03  0.00000000000E+00 0.  1.
</event>
<event>
 7    1  0.2556591E-009  0.1422605E+03  0.7561462E-02  0.1210319E+00
          1   -1    0    0  501    0  0.00000000000E+00  0.00000000000E+00  0.15658204181E+04  0.15658204181E+04  0.00000000000E+00 0. -1.
         -1   -1    0    0    0  501 -0.00000000000E+00 -0.00000000000E+00 -0.18519696381E+02  0.18519696381E+02  0.00000000000E+00 0.  1.
         25    2    1    2    0    0 -0.69107985635E+02  0.67552539528E+02  0.12202593609E+04  0.12304557794E+04  0.12509699414E+03 0.  0.
          5    1    3    3  502    0  0.24755130967E+02  0.54200849638E+02  0.60188573098E+03  0.60484250360E+03  0.41800000000E+01 0.  1.
         -5    1    3    3    0  502 -0.93863116602E+02  0.13351689891E+02  0.61837362996E+03  0.62561327584E+03  0.41800000000E+01 0.  1.
        -11    1    1    2    0    0  0.48545756269E+02  0.10077671427E+02  0.17562668724E+03  0.18249104960E+03  0.00000000000E+00 0. -1.
         11    1    1    2    0    0  0.20562229366E+02 -0.77630210955E+02  0.15141467357E+03  0.17139328546E+03  0.00000000000E+00 0.  1.
</event>
<event>
 7    1  0.2556591E-009  0.6341743E+02  0.7561462E-02  0.1384025E+00
          4   -1    0    0  501    0  0.00000000000E+00  0.00000000000E+00  0.52686851186E+02  0.52686851186E+02  0.00000000000E+00 0. -1.
         -4   -1    0    0    0  501 -0.00000000000E+00 -0.00000000000E+00 -0.24850912168E+03  0.24850912168E+03  0.00000000000E+00 0.  1.
         25    2    1    2    0    0 -0.21009618756E+02 -0.20378553264E+02 -0.14048665577E+03  0.19036767363E+03  0.12508661480E+03 0.  0.
          5    1    3    3  502    0 -0.24764677448E+02 -0.14160275040E+02 -0.16342365589E+03  0.16594748067E+03  0.41800000000E+01 0.  1.
         -5    1    3    3    0  502  0.37550586918E+01 -0.62182782242E+01  0.22937000116E+02  0.24420192960E+02  0.41800000000E+01 0.  1.
        -11    1    1    2    0    0 -0.19216937068E+02  0.40363544978E+02 -0.47507284957E+02  0.65233799195E+02  0.00000000000E+00 0.  1.
         11    1    1    2    0    0  0.40226555824E+02 -0.19984991714E+02 -0.78283297713E+01  0.45594500044E+02  0.00000000000E+00 0. -1.
</event>
<event>
 7    1  0.2556591E-009  0.8515339E+02  0.7561462E-02  0.1315032E+00
         -2   -1    0    0    0  501 -0.00000000000E+00  0.00000000000E+00  0.53184284435E+02  0.53184284435E+02  0.00000000000E+00 0.  1.
          2   -1    0    0  501    0  0.00000000000E+00 -0.00000000000E+00 -0.26377222074E+03  0.26377222074E+03  0.00000000000E+00 0. -1.
         25    2    1    2    0    0 -0.23706426658E+02  0.42141514488E+02 -0.13074260654E+03  0.18729124267E+03  0.12508588453E+03 0.  0.
          5    1    3    3  502    0  0.33452770884E+02 -0.34641700062E+01 -0.10389497282E+03  0.10928278058E+03  0.41800000000E+01 0. -1.
         -5    1    3    3    0  502 -0.57159197541E+02  0.45605684494E+02 -0.26847633718E+02  0.78008462092E+02  0.41800000000E+01 0. -1.
        -11    1    1    2    0    0  0.55022097803E+01 -0.44480560748E+02 -0.95530670726E+02  0.10552205289E+03  0.00000000000E+00 0. -1.
         11    1    1    2    0    0  0.18204216878E+02  0.23390462597E+01  0.15685340958E+02  0.24143209615E+02  0.00000000000E+00 0.  1.
</event>
<event>
 7    1  0.2556591E-009  0.1101667E+03  0.7561462E-02  0.1260261E+00
         -3   -1    0    0    0  501 -0.00000000000E+00  0.00000000000E+00  0.46729507372E+02  0.46729507372E+02  0.00000000000E+00 0.  1.
          3   -1    0    0  501    0  0.00000000000E+00 -0.00000000000E+00 -0.32018721899E+03  0.32018721899E+03  0.00000000000E+00 0. -1.
         25    2    1    2    0    0  0.22045810383E+02 -0.51384827635E+02 -0.13569513331E+03  0.19284097645E+03  0.12509218491E+03 0.  0.
          5    1    3    3  502    0  0.16831709028E+02  0.40527631541E+02 -0.53814729397E+02  0.69565026035E+02  0.41800000000E+01 0. -1.
         -5    1    3    3    0  502  0.52141013546E+01 -0.91912459177E+02 -0.81880403913E+02  0.12327595041E+03  0.41800000000E+01 0. -1.
        -11    1    1    2    0    0 -0.43835157474E+02  0.27412596500E+02 -0.26309297749E+02  0.58009918339E+02  0.00000000000E+00 0.  1.
         11    1    1    2    0    0  0.21789347091E+02  0.23972231136E+02 -0.11145328056E+03  0.11606583158E+03  0.00000000000E+00 0. -1.
</event>
<event>
 7    1  0.2556591E-009  0.1402395E+03  0.7561462E-02  0.1213007E+00
         -1   -1    0    0    0  501 -0.00000000000E+00  0.00000000000E+00  0.31531819294E+02  0.31531819294E+02  0.00000000000E+00 0.  1.
          1   -1    0    0  501    0  0.00000000000E+00 -0.00000000000E+00 -0.10211833386E+04  0.10211833386E+04  0.00000000000E+00 0. -1.
         25    2    1    2    0    0 -0.12377670760E+03 -0.16004463432E+02 -0.72372495779E+03  0.74498365062E+03  0.12508400763E+03 0.  0.
          5    1    3    3  502    0 -0.83567180045E+01 -0.10090806712E+02 -0.18178818659E+01  0.13872137917E+02  0.41800000000E+01 0.  1.
         -5    1    3    3    0  502 -0.11541998960E+03 -0.59136567206E+01 -0.72190707593E+03  0.73111151270E+03  0.41800000000E+01 0.  1.
        -11    1    1    2    0    0  0.12224743573E+03  0.38781347189E+02 -0.24602255468E+03  0.27744463563E+03  0.00000000000E+00 0.  1.
         11    1    1    2    0    0  0.15292718710E+01 -0.22776883757E+02 -0.19904006857E+02  0.30286871662E+02  0.00000000000E+00 0. -1.
</event>
<event>
 7    1  0.2556591E-009  0.1089581E+03  0.7561462E-02  0.1262512E+00
          2   -1    0    0  501    0  0.00000000000E+00  0.00000000000E+00  0.24117902738E+03  0.24117902738E+03  0.00000000000E+00 0. -1.
         -2   -1    0    0    0  501 -0.00000000000E+00 -0.00000000000E+00 -0.63018230150E+02  0.63018230150E+02  0.00000000000E+00 0.  1.
         25    2    1    2    0    0 -0.51102248439E+02  0.26739189515E+02  0.10656569573E+03  0.17415618185E+03  0.12509078350E+03 0.  0.
          5    1    3    3  502    0 -0.72218138743E+02 -0.19981574023E+02  0.27699875810E+02  0.79996739832E+02  0.41800000000E+01 0.  1.
         -5    1    3    3    0  502  0.21115890303E+02  0.46720763539E+02  0.78865819919E+02  0.94159442014E+02  0.41800000000E+01 0.  1.
        -11    1    1    2    0    0  0.30479624759E+02  0.22604811562E+02 -0.32125655098E+01  0.38082878152E+02  0.00000000000E+00 0.  1.
         11    1    1    2    0    0  0.20622623680E+02 -0.49344001077E+02  0.74807667015E+02  0.91958197535E+02  0.00000000000E+00 0. -1.
</event>
<event>
 7    1  0.2556591E-009  0.1164607E+03  0.7561462E-02  0.1249053E+00
          2   -1    0    0  501    0  0.00000000000E+00  0.00000000000E+00  0.30283070764E+03  0.30283070764E+03  0.00000000000E+00 0. -1.
         -2   -1    0    0    0  501 -0.00000000000E+00 -0.00000000000E+00 -0.57203469538E+02  0.57203469538E+02  0.00000000000E+00 0.  1.
         25    2    1    2    0    0 -0.10979830617E+01  0.47080967816E+02  0.58828065540E+02  0.14603602911E+03  0.12509179592E+03 0.  0.
          5    1    3    3  502    0 -0.46579369800E+02  0.68565153582E+02  0.32751330685E+02  0.89224100098E+02  0.41800000000E+01 0. -1.
         -5    1    3    3    0  502  0.45481386738E+02 -0.21484185766E+02  0.26076734855E+02  0.56811929014E+02  0.41800000000E+01 0. -1.
        -11    1    1    2    0    0 -0.24721787428E+02  0.17241851238E+02  0.29824140570E+02  0.42401975998E+02  0.00000000000E+00 0.  1.
         11    1    1    2    0    0  0.25819770490E+02 -0.64322819054E+02  0.15697503199E+03  0.17159617207E+03  0.00000000000E+00 0. -1.
</event>
<event>
 7    1  0.2556591E-009  0.1026078E+03  0.7561462E-02  0.1274906E+00
         -1   -1    0    0    0  501 -0.00000000000E+00  0.00000000000E+00  0.13341096419E+03  0.13341096419E+03  0.00000000000E+00 0.  1.
          1   -1    0    0  501    0  0.00000000000E+00 -0.00000000000E+00 -0.11391092896E+03  0.11391092896E+03  0.00000000000E+00 0. -1.
         25    2    1    2    0    0 -0.55548871582E+01 -0.62611564819E+01  0.71700433520E+02  0.14442326579E+03  0.12508824358E+03 0.  0.
          5    1    3    3  502    0 -0.63606014035E+02 -0.17469206451E+02  0.38342468786E+02  0.76410179349E+02  0.41800000000E+01 0. -1.
         -5    1    3    3    0  502  0.58051126877E+02  0.11208049969E+02  0.33357964734E+02  0.68013086439E+02  0.41800000000E+01 0. -1.
        -11    1    1    2    0    0  0.42379185828E+02 -0.64840961945E+00 -0.49742961018E+02  0.65351189716E+02  0.00000000000E+00 0. -1.
         11    1    1    2    0    0 -0.36824298670E+02  0.69095661014E+01 -0.24574372724E+01  0.37547437652E+02  0.00000000000E+00 0.  1.
</event>
<event>
 7    1  0.2556591E-009  0.1976947E+03  0.7561462E-02  0.1151699E+00
         -2   -1    0    0    0  501 -0.00000000000E+00  0.00000000000E+00  0.41193829934E+02  0.41193829934E+02  0.00000000000E+00 0. -1.
          2   -1    0    0  501    0  0.00000000000E+00 -0.00000000000E+00 -0.98596091215E+03  0.98596091215E+03  0.00000000000E+00 0.  1.
         25    2    1    2    0    0 -0.13063617869E+03 -0.10580178061E+03 -0.54850588455E+03  0.58716659972E+03  0.12508430149E+03 0.  0.
          5    1    3    3  502    0 -0.90606408915E+02 -0.13023573940E+03 -0.37097527370E+03  0.40349844516E+03  0.41800000000E+01 0. -1.
         -5    1    3    3    0  502 -0.40029769780E+02  0.24433958786E+02 -0.17753061085E+03  0.18366815456E+03  0.41800000000E+01 0. -1.
        -11    1    1    2    0    0  0.39210581281E+02  0.88158227279E+02 -0.23022392323E+03  0.24962451312E+03  0.00000000000E+00 0.  1.
         11    1    1    2    0    0  0.91425597413E+02  0.17643553331E+02 -0.16603727443E+03  0.19036362924E+03  0.00000000000E+00 0. -1.
</event>
<event>
 7    1  0.2556591E-009  0.5554808E+02  0.7561462E-02  0.1417525E+00
         -2   -1    0    0    0  501 -0.00000000000E+00  0.00000000000E+00  0.60780474771E+02  0.60780474771E+02  0.00000000000E+00 0.  1.
          2   -1    0    0  501    0  0.00000000000E+00 -0.00000000000E+00 -0.22489185760E+03  0.22489185760E+03  0.00000000000E+00 0. -1.
         25    2    1    2    0    0 -0.13053126246E+01 -0.24622426752E+02 -0.13994414223E+03  0.18930849119E+03  0.12508147005E+03 0.  0.
          5    1    3    3  502    0 -0.18759793441E+01 -0.49910442077E+01  0.23591321680E+02  0.24544911477E+02  0.41800000000E+01 0.  1.
         -5    1    3    3    0  502  0.57066671956E+00 -0.19631382544E+02 -0.16353546391E+03  0.16476357971E+03  0.41800000000E+01 0.  1.
        -11    1    1    2    0    0  0.20468099084E+02 -0.24257732137E+02  0.10520608769E+02  0.33437461887E+02  0.00000000000E+00 0.  1.
         11    1    1    2    0    0 -0.19162786460E+02  0.48880158889E+02 -0.34687849367E+02  0.62926379299E+02  0.00000000000E+00 0. -1.
</event>
<event>
 7    1  0.2556591E-009  0.2790826E+03  0.7561462E-02  0.1096191E+00
         -2   -1    0    0    0  501 -0.00000000000E+00  0.00000000000E+00  0.84178231826E+02  0.84178231826E+02  0.00000000000E+00 0.  1.
          2   -1    0    0  501    0  0.00000000000E+00 -0.00000000000E+00 -0.12876994780E+04  0.12876994780E+04  0.00000000000E+00 0. -1.
         25    2    1    2    0    0  0.25964812684E+03 -0.79537706444E+02 -0.29823967859E+03  0.42230061862E+03  0.12509000792E+03 0.  0.
          5    1    3    3  502    0  0.41074624302E+02 -0.17918101402E+02 -0.13578850295E+03  0.14305304279E+03  0.41800000000E+01 0. -1.
         -5    1    3    3    0  502  0.21857350253E+03 -0.61619605042E+02 -0.16245117564E+03  0.27924757582E+03  0.41800000000E+01 0. -1.
        -11    1    1    2    0    0 -0.21490571905E+03  0.26339111989E+02 -0.71091844596E+03  0.74315762373E+03  0.00000000000E+00 0. -1.
         11    1    1    2    0    0 -0.44742407787E+02  0.53198594455E+02 -0.19436312161E+03  0.20641946746E+03  0.00000000000E+00 0.  1.
</event>
<event>
 7    1  0.2556591E-009  0.1044086E+03  0.7561462E-02  0.1271289E+00
          1   -1    0    0  501    0  0.00000000000E+00  0.00000000000E+00  0.16354778580E+03  0.16354778580E+03  0.00000000000E+00 0. -1.
         -1   -1    0    0    0  501 -0.00000000000E+00 -0.00000000000E+00 -0.14096541537E+03  0.14096541537E+03  0.00000000000E+00 0.  1.
         25    2    1    2    0    0 -0.19816047015E+02 -0.74940772094E+02  0.84110293471E+02  0.16950113342E+03  0.12508915909E+03 0.  0.
          5    1    3    3  502    0  0.15613616516E+02 -0.87476955896E+02  0.14289400160E+02  0.90098069849E+02  0.41800000000E+01 0.  1.
         -5    1    3    3    0  502 -0.35429663531E+02  0.12536183802E+02  0.69820893310E+02  0.79403063573E+02  0.41800000000E+01 0.  1.
        -11    1    1    2    0    0 -0.41594674809E+01  0.36531637367E+02 -0.78479139763E+02  0.86665085683E+02  0.00000000000E+00 0.  1.
         11    1    1    2    0    0  0.23975514496E+02  0.38409134727E+02  0.16951216723E+02  0.48346982059E+02  0.00000000000E+00 0. -1.
</event>
<event>
 7    1  0.2556591E-009  0.1245742E+03  0.7561462E-02  0.1235736E+00
         -1   -1    0    0    0  501 -0.00000000000E+00  0.00000000000E+00  0.17124372487E+03  0.17124372487E+03  0.00000000000E+00 0.  1.
          1   -1    0    0  501    0  0.00000000000E+00 -0.00000000000E+00 -0.11556205527E+03  0.11556205527E+03  0.00000000000E+00 0. -1.
         25    2    1    2    0    0  0.37374282131E+02 -0.55986713040E+02  0.89727949317E+02  0.16800265186E+03  0.12506972912E+03 0.  0.
          5    1    3    3  502    0  0.73549048911E+02 -0.65052718928E+02  0.40973970910E+02  0.10647843691E+03  0.41800000000E+01 0.  1.
         -5    1    3    3    0  502 -0.36174766780E+02  0.90660058880E+01  0.48753978407E+02  0.61524214947E+02  0.41800000000E+01 0.  1.
        -11    1    1    2    0    0 -0.39254119337E+02 -0.15226763310E+02 -0.74270768489E+01  0.42753966790E+02  0.00000000000E+00 0. -1.
         11    1    1    2    0    0  0.18798372052E+01  0.71213476350E+02 -0.26619202872E+02  0.76049161490E+02  0.00000000000E+00 0.  1.
</event>
<event>
 7    1  0.2556591E-009  0.1428368E+03  0.7561462E-02  0.1209562E+00
         -1   -1    0    0    0  501 -0.00000000000E+00  0.00000000000E+00  0.54306106827E+02  0.54306106827E+02  0.00000000000E+00 0. -1.
          1   -1    0    0  501    0  0.00000000000E+00 -0.00000000000E+00 -0.55501432447E+03  0.55501432447E+03  0.00000000000E+00 0.  1.
         25    2    1    2    0    0  0.74867773830E+02 -0.10557825308E+03 -0.19969241579E+03  0.26884376073E+03  0.12509178902E+03 0.  0.
          5    1    3    3  502    0  0.89361715472E+02 -0.10873591956E+03 -0.20812062801E+03  0.25127810210E+03  0.41800000000E+01 0. -1.
         -5    1    3    3    0  502 -0.14493941643E+02  0.31576664780E+01  0.84282122197E+01  0.17565658631E+02  0.41800000000E+01 0. -1.
        -11    1    1    2    0    0 -0.32702622306E+02  0.43897021102E+02 -0.23331615241E+03  0.23965149059E+03  0.00000000000E+00 0.  1.
         11    1    1    2    0    0 -0.42165151524E+02  0.61681231979E+02 -0.67699649448E+02  0.10082517997E+03  0.00000000000E+00 0. -1.
</event>
<event>
 7    1  0.2556591E-009  0.1013774E+03  0.7561462E-02  0.1277426E+00
          2   -1    0    0  501    0  0.00000000000E+00  0.00000000000E+00  0.23880542252E+03  0.23880542252E+03  0.00000000000E+00 0. -1.
         -2   -1    0    0    0  501 -0.00000000000E+00 -0.00000000000E+00 -0.58429632196E+02  0.58429632196E+02  0.00000000000E+00 0.  1.
         25    2    1    2    0    0 -0.53686153969E+01  0.10879331461E+02  0.42503064068E+02  0.13266398603E+03  0.12508413509E+03 0.  0.
          5    1    3    3  502    0 -0.32036027617E+02 -0.44450911538E+02 -0.46060060507E+01  0.55144159199E+02  0.41800000000E+01 0. -1.
         -5    1    3    3    0  502  0.26667412220E+02  0.55330242998E+02  0.47109070119E+02  0.77519826833E+02  0.41800000000E+01 0. -1.
        -11    1    1    2    0    0  0.44026124209E+02  0.52784720479E+01  0.93845950606E+02  0.10379414398E+03  0.00000000000E+00 0. -1.
         11    1    1    2    0    0 -0.38657508812E+02 -0.16157803509E+02  0.44026775646E+02  0.60776924696E+02  0.00000000000E+00 0.  1.
</event>
<event>
 7    1  0.2556591E-009  0.1145698E+03  0.7561462E-02  0.1252334E+00
          1   -1    0    0  501    0  0.00000000000E+00  0.00000000000E+00  0.10203494787E+03  0.10203494787E+03  0.00000000000E+00 0. -1.
         -1   -1    0    0    0  501 -0.00000000000E+00 -0.00000000000E+00 -0.23596092985E+03  0.23596092985E+03  0.00000000000E+00 0.  1.
         25    2    1    2    0    0  0.58827456326E+01 -0.80217581498E+02  0.10466032220E+02  0.14908554618E+03  0.12508994832E+03 0.  0.
          5    1    3    3  502    0 -0.50743255334E+02 -0.19284248906E+02 -0.23290238544E+02  0.59217124459E+02  0.41800000000E+01 0. -1.
         -5    1    3    3    0  502  0.56626000967E+02 -0.60933332592E+02  0.33756270764E+02  0.89868421718E+02  0.41800000000E+01 0. -1.
        -11    1    1    2    0    0 -0.23461964485E+02  0.61029049259E+02 -0.14878582097E+03  0.16251839636E+03  0.00000000000E+00 0.  1.
         11    1    1    2    0    0  0.17579218853E+02  0.19188532239E+02  0.43938067697E+01  0.26391935186E+02  0.00000000000E+00 0. -1.
</event>
<event>
 7    1  0.2556591E-009  0.6339533E+02  0.7561462E-02  0.1384111E+00
         -1   -1    0    0    0  501 -0.00000000000E+00  0.00000000000E+00  0.82915439056E+02  0.82915439056E+02  0.00000000000E+00 0.  1.
          1   -1    0    0  501    0  0.00000000000E+00 -0.00000000000E+00 -0.16995202033E+03  0.16995202033E+03  0.00000000000E+00 0. -1.
         25    2    1    2    0    0  0.22957061492E+02 -0.44851508108E+02 -0.82689447743E+02  0.15819182076E+03  0.12509365665E+03 0.  0.
          5    1    3    3  502    0  0.37803894169E+02 -0.29811164433E+02  0.20707178825E+02  0.52574704888E+02  0.41800000000E+01 0. -1.
         -5    1    3    3    0  502 -0.14846832677E+02 -0.15040343675E+02 -0.10339662657E+03  0.10561711587E+03  0.41800000000E+01 0. -1.
        -11    1    1    2    0    0 -0.19654525952E+02  0.10255921012E+02 -0.39467112388E+02  0.45267397390E+02  0.00000000000E+00 0. -1.
         11    1    1    2    0    0 -0.33025355394E+01  0.34595587096E+02  0.35119978857E+02  0.49408241240E+02  0.00000000000E+00 0.  1.
</event>
<event>
 7    1  0.2556591E-009  0.9628808E+02  0.7561462E-02  0.1288301E+00
          2   -1    0    0  501    0  0.00000000000E+00  0.00000000000E+00  0.81898896161E+03  0.81898896161E+03  0.00000000000E+00 0. -1.
         -2   -1    0    0    0  501 -0.00000000000E+00 -0.00000000000E+00 -0.18244170459E+02  0.18244170459E+02  0.00000000000E+00 0.  1.
         25    2    1    2    0    0 -0.23561225213E+02 -0.63026371802E+01  0.60177412596E+03  0.61512154293E+03  0.12509020478E+03 0.  0.
          5    1    3    3  502    0  0.25508441510E+02  0.40211286422E+02  0.13002842904E+03  0.13853697305E+03  0.41800000000E+01 0. -1.
         -5    1    3    3    0  502 -0.49069666723E+02 -0.46513923602E+02  0.47174569692E+03  0.47658456988E+03  0.41800000000E+01 0. -1.
        -11    1    1    2    0    0  0.21185708828E+02  0.38928584692E+02  0.39650902011E+02  0.59468167913E+02  0.00000000000E+00 0.  1.
         11    1    1    2    0    0  0.23755163846E+01 -0.32625947511E+02  0.15931976318E+03  0.16264342123E+03  0.00000000000E+00 0. -1.
</event>
<event>
 7    1  0.2556591E-009  0.1405356E+03  0.7561462E-02  0.1212610E+00
         -2   -1    0    0    0  501 -0.00000000000E+00  0.00000000000E+00  0.39180455823E+02  0.39180455823E+02  0.00000000000E+00 0. -1.
          2   -1    0    0  501    0  0.00000000000E+00 -0.00000000000E+00 -0.63322819252E+03  0.63322819252E+03  0.00000000000E+00 0.  1.
         25    2    1    2    0    0  0.95760097609E+02  0.10534393547E+02 -0.18941255568E+03  0.24658797309E+03  0.12509013743E+03 0.  0.
          5    1    3    3  502    0 -0.27362815325E+02 -0.76671025784E+01 -0.15355278287E+02  0.32569388937E+02  0.41800000000E+01 0. -1.
         -5    1    3    3    0  502  0.12312291293E+03  0.18201496125E+02 -0.17405727739E+03  0.21401858415E+03  0.41800000000E+01 0. -1.
        -11    1    1    2    0    0 -0.94869342249E+02 -0.36638280579E+02 -0.36016138014E+03  0.37424427243E+03  0.00000000000E+00 0.  1.
         11    1    1    2    0    0 -0.89075535966E+00  0.26103887032E+02 -0.44473800873E+02  0.51576402816E+02  0.00000000000E+00 0. -1.
</event>
<event>
 7    1  0.2556591E-009  0.8436872E+02  0.7561462E-02  0.1317092E+00
          1   -1    0    0  501    0  0.00000000000E+00  0.00000000000E+00  0.23397649026E+03  0.23397649026E+03  0.00000000000E+00 0. -1.
         -1   -1    0    0    0  501 -0.00000000000E+00 -0.00000000000E+00 -0.84058879197E+02  0.84058879197E+02  0.00000000000E+00 0.  1.
         25    2    1    2    0    0  0.24626597354E+02  0.56911468732E+02  0.15230982180E+03  0.20661738906E+03  0.12508828512E+03 0.  0.
          5    1    3    3  502    0 -0.16019654627E+02  0.48649425994E+02  0.15649852434E+03  0.16471993353E+03  0.41800000000E+01 0.  1.
         -5    1    3    3    0  502  0.40646251982E+02  0.82620427381E+01 -0.41887025352E+01  0.41897455523E+02  0.41800000000E+01 0.  1.
        -11    1    1    2    0    0 -0.35868807175E+02 -0.30974361330E+02 -0.41615038475E+02  0.63069753569E+02  0.00000000000E+00 0.  1.
         11    1    1    2    0    0  0.11242209821E+02 -0.25937107403E+02  0.39222827737E+02  0.48348226831E+02  0.00000000000E+00 0. -1.
</event>
<event>
 7    1  0.2556591E-009  0.1237738E+03  0.7561462E-02  0.1236998E+00
          2   -1    0    0  501    0  0.00000000000E+00  0.00000000000E+00  0.74295130554E+03  0.74295130554E+03  0.00000000000E+00 0.  1.
         -2   -1    0    0    0  501 -0.00000000000E+00 -0.00000000000E+00 -0.34486282260E+02  0.34486282260E+02  0.00000000000E+00 0. -1.
         25    2    1    2    0    0  0.81006635893E+02  0.61280195199E+02  0.23913621912E+03  0.28835896372E+03  0.12508966096E+03 0.  0.
          5    1    3    3  502    0  0.54867562913E+02  0.15103295256E+02  0.16429035313E+02  0.59379664776E+02  0.41800000000E+01 0.  1.
         -5    1    3    3    0  502  0.26139072980E+02  0.46176899943E+02  0.22270718381E+03  0.22897929894E+03  0.41800000000E+01 0.  1.
        -11    1    1    2    0    0 -0.89073834776E+02 -0.15056665024E+02  0.32437951066E+03  0.33672380097E+03  0.00000000000E+00 0.  1.
         11    1    1    2    0    0  0.80671988830E+01 -0.46223530175E+02  0.14494929349E+03  0.15235482310E+03  0.00000000000E+00 0. -1.
</event>
<event>
 7    1  0.2556591E-009  0.9542081E+02  0.7561462E-02  0.1290231E+00
         -1   -1    0    0    0  501 -0.00000000000E+00  0.00000000000E+00  0.30619516778E+03  0.30619516778E+03  0.00000000000E+00 0.  1.
          1   -1    0    0  501    0  0.00000000000E+00 -0.00000000000E+00 -0.58224603580E+02  0.58224603580E+02  0.00000000000E+00 0. -1.
         25    2    1    2    0    0  0.13398967544E+02 -0.71262862803E+02  0.16825939567E+03  0.22185428336E+03  0.12510064295E+03 0.  0.
          5    1    3    3  502    0  0.16624598586E+02 -0.58130119130E+02  0.18802067464E+03  0.19754679071E+03  0.41800000000E+01 0. -1.
         -5    1    3    3    0  502 -0.32256310418E+01 -0.13132743673E+02 -0.19761278972E+02  0.24307492644E+02  0.41800000000E+01 0. -1.
        -11    1    1    2    0    0 -0.13744814471E+02  0.93167004716E+02  0.74415003071E+02  0.12002751091E+03  0.00000000000E+00 0. -1.
         11    1    1    2    0    0  0.34584692748E+00 -0.21904141913E+02  0.52961654610E+01  0.22537977097E+02  0.00000000000E+00 0.  1.
</event>
<event>
 7    1  0.2556591E-009  0.9018764E+02  0.7561462E-02  0.1302398E+00
          1   -1    0    0  501    0  0.00000000000E+00  0.00000000000E+00  0.27123872731E+03  0.27123872731E+03  0.00000000000E+00 0. -1.
         -1   -1    0    0    0  501 -0.00000000000E+00 -0.00000000000E+00 -0.44763218147E+02  0.44763218147E+02  0.00000000000E+00 0.  1.
         25    2    1    2    0    0 -0.10460913586E+01 -0.20133766499E+02  0.13568580577E+03  0.18564461081E+03  0.12508725265E+03 0.  0.
          5    1    3    3  502    0 -0.36843491770E+02  0.23532530169E+02  0.62399279077E+01  0.44357997726E+02  0.41800000000E+01 0. -1.
         -5    1    3    3    0  502  0.35797400412E+02 -0.43666296669E+02  0.12944587787E+03  0.14128661309E+03  0.41800000000E+01 0. -1.
        -11    1    1    2    0    0 -0.14400380898E+02 -0.26803065554E+02  0.42745424964E+01  0.30725347950E+02  0.00000000000E+00 0.  1.
         11    1    1    2    0    0  0.15446472256E+02  0.46936832054E+02  0.86515160897E+02  0.99631986698E+02  0.00000000000E+00 0. -1.
</event>
<event>
 7    1  0.2556591E-009  0.1016368E+03  0.7561462E-02  0.1276891E+00
         -2   -1    0    0    0  501 -0.00000000000E+00  0.00000000000E+00  0.70158604230E+02  0.70158604230E+02  0.00000000000E+00 0.  1.
          2   -1    0    0  501    0  0.00000000000E+00 -0.00000000000E+00 -0.17596413626E+03  0.17596413626E+03  0.00000000000E+00 0. -1.
         25    2    1    2    0    0  0.19333030719E+02 -0.99018933514E+01 -0.51156806327E+02  0.13688211685E+03  0.12509149256E+03 0.  0.
          5    1    3    3  502    0 -0.34991823732E+02  0.39820745976E+02 -0.20088676150E+02  0.56843177670E+02  0.41800000000E+01 0.  1.
         -5    1    3    3    0  502  0.54324854451E+02 -0.49722639328E+02 -0.31068130177E+02  0.80038939182E+02  0.41800000000E+01 0.  1.
        -11    1    1    2    0    0 -0.34860534699E+02 -0.21743492156E+02  0.35079842173E+01  0.41235206849E+02  0.00000000000E+00 0.  1.
         11    1    1    2    0    0  0.15527503980E+02  0.31645385507E+02 -0.58156709917E+02  0.68005416785E+02  0.00000000000E+00 0. -1.
</event>
<event>
 7    1  0.2556591E-009  0.1371804E+03  0.7561462E-02  0.1217174E+00
          2   -1    0    0  501    0  0.00000000000E+00  0.00000000000E+00  0.14130431750E+03  0.14130431750E+03  0.00000000000E+00 0. -1.
         -2   -1    0    0    0  501 -0.00000000000E+00 -0.00000000000E+00 -0.18401367550E+03  0.18401367550E+03  0.00000000000E+00 0.  1.
         25    2    1    2    0    0 -0.99215110031E+02 -0.20927293578E+02  0.38145100863E+02  0.16548200320E+03  0.12509058713E+03 0.  0.
          5    1    3    3  502    0  0.24238227866E+02 -0.23594375298E+02  0.22739298449E+02  0.40972360558E+02  0.41800000000E+01 0.  1.
         -5    1    3    3    0  502 -0.12345333790E+03  0.26670817195E+01  0.15405802414E+02  0.12450964264E+03  0.41800000000E+01 0.  1.
        -11    1    1    2    0    0  0.72196020441E+02  0.41036560727E+02 -0.12963524858E+02  0.84049495302E+02  0.00000000000E+00 0. -1.
         11    1    1    2    0    0  0.27019089590E+02 -0.20109267149E+02 -0.67890934011E+02  0.75786494499E+02  0.00000000000E+00 0.  1.
</event>
<event>
 7    1  0.2556591E-009  0.1253826E+03  0.7561462E-02  0.1234473E+00
         -2   -1    0    0    0  501 -0.00000000000E+00  0.00000000000E+00  0.84976472677E+02  0.84976472677E+02  0.00000000000E+00 0.  1.
          2   -1    0    0  501    0  0.00000000000E+00 -0.00000000000E+00 -0.65022096866E+03  0.65022096866E+03  0.00000000000E+00 0. -1.
         25    2    1    2    0    0 -0.33674402309E+02 -0.11819725775E+03 -0.55402250949E+03  0.58111371424E+03  0.12509057014E+03 0.  0.
          5    1    3    3  502    0 -0.42273411144E+01 -0.16884809966E+02 -0.81452031236E+00  0.17919348867E+02  0.41800000000E+01 0.  1.
         -5    1    3    3    0  502 -0.29447061194E+02 -0.10131244778E+03 -0.55320798918E+03  0.56319436537E+03  0.41800000000E+01 0.  1.
        -11    1    1    2    0    0  0.22545728024E+02  0.26016492735E+02  0.36088374010E+02  0.49875229173E+02  0.00000000000E+00 0.  1.
         11    1    1    2    0    0  0.11128674284E+02  0.92180765015E+02 -0.47310360503E+02  0.10420849793E+03  0.00000000000E+00 0. -1.
</event>
<event>
 7    1  0.2556591E-009  0.1125269E+03  0.7561462E-02  0.1255961E+00
          2   -1    0    0  501    0  0.00000000000E+00  0.00000000000E+00  0.17267551581E+03  0.17267551581E+03  0.00000000000E+00 0.  1.
         -2   -1    0    0    0  501 -0.00000000000E+00 -0.00000000000E+00 -0.11684521918E+03  0.11684521918E+03  0.00000000000E+00 0. -1.
         25    2    1    2    0    0 -0.64924326640E+02 -0.58656005171E+02  0.60245241689E+02  0.16410942993E+03  0.12508685268E+03 0.  0.
          5    1    3    3  502    0 -0.14357835597E+02 -0.68762250576E+02  0.81939783490E+02  0.10800923602E+03  0.41800000000E+01 0. -1.
         -5    1    3    3    0  502 -0.50566491044E+02  0.10106245405E+02 -0.21694541801E+02  0.56100193909E+02  0.41800000000E+01 0. -1.
        -11    1    1    2    0    0  0.74648729947E+02  0.54210371159E+02 -0.30542555490E+02  0.97180476022E+02  0.00000000000E+00 0. -1.
         11    1    1    2    0    0 -0.97244033069E+01  0.44456340122E+01  0.26127610435E+02  0.28230829044E+02  0.00000000000E+00 0.  1.
</event>
<event>
 7    1  0.2556591E-009  0.1358636E+03  0.7561462E-02  0.1219006E+00
          2   -1    0    0  501    0  0.00000000000E+00  0.00000000000E+00  0.13314315991E+04  0.13314315991E+04  0.00000000000E+00 0. -1.
         -2   -1    0    0    0  501 -0.00000000000E+00 -0.00000000000E+00 -0.20177047630E+02  0.20177047630E+02  0.00000000000E+00 0.  1.
         25    2    1    2    0    0 -0.89609512260E+02  0.77332219460E+02  0.55019126344E+03  0.57651388872E+03  0.12509076971E+03 0.  0.
          5    1    3    3  502    0 -0.10642831774E+02 -0.46093390049E+01 -0.21860732843E+01  0.12520670535E+02  0.41800000000E+01 0.  1.
         -5    1    3    3    0  502 -0.78966680486E+02  0.81941558465E+02  0.55237733672E+03  0.56399321818E+03  0.41800000000E+01 0.  1.
        -11    1    1    2    0    0  0.77703492167E+02 -0.11412628584E+02  0.46133808100E+03  0.46797532603E+03  0.00000000000E+00 0.  1.
         11    1    1    2    0    0  0.11906020093E+02 -0.65919590876E+02  0.29972520703E+03  0.30711943199E+03  0.00000000000E+00 0. -1.
</event>
<event>
 7    1  0.2556591E-009  0.9734275E+02  0.7561462E-02  0.1285985E+00
         -1   -1    0    0    0  501 -0.00000000000E+00  0.00000000000E+00  0.19113379958E+02  0.19113379958E+02  0.00000000000E+00 0. -1.
          1   -1    0    0  501    0  0.00000000000E+00 -0.00000000000E+00 -0.79920521337E+03  0.79920521337E+03  0.00000000000E+00 0.  1.
         25    2    1    2    0    0 -0.34399819279E+01  0.59010265676E+02 -0.45984467873E+03  0.48020728874E+03  0.12509143323E+03 0.  0.
          5    1    3    3  502    0 -0.36371839075E+02  0.41641881945E+02 -0.73594438632E+02  0.92144293405E+02  0.41800000000E+01 0. -1.
         -5    1    3    3    0  502  0.32931857147E+02  0.17368383731E+02 -0.38625024010E+03  0.38806299533E+03  0.41800000000E+01 0. -1.
        -11    1    1    2    0    0  0.18664144437E+02 -0.76407975053E+02 -0.28723337383E+03  0.29780789107E+03  0.00000000000E+00 0.  1.
         11    1    1    2    0    0 -0.15224162509E+02  0.17397709377E+02 -0.33013780848E+02  0.40303413522E+02  0.00000000000E+00 0. -1.
</event>
<event>
 7    1  0.2556591E-009  0.3482944E+03  0.7561462E-02  0.1063317E+00
         -2   -1    0    0    0  501 -0.00000000000E+00  0.00000000000E+00  0.12546235668E+03  0.12546235668E+03  0.00000000000E+00 0.  1.
          2   -1    0    0  501    0  0.00000000000E+00 -0.00000000000E+00 -0.10921304285E+04  0.10921304285E+04  0.00000000000E+00 0. -1.
         25    2    1    2    0    0  0.33556694534E+03 -0.71029074280E+02 -0.34803618261E+03  0.50440728146E+03  0.12508883641E+03 0.  0.
          5    1    3    3  502    0  0.24003176741E+03 -0.89425279114E+02 -0.30395403882E+03  0.39751435197E+03  0.41800000000E+01 0.  1.
         -5    1    3    3    0  502  0.95535177929E+02  0.18396204834E+02 -0.44082143789E+02  0.10689292949E+03  0.41800000000E+01 0.  1.
        -11    1    1    2    0    0 -0.11048167478E+03  0.25344317553E+02 -0.29759313672E+03  0.31844969763E+03  0.00000000000E+00 0.  1.
         11    1    1    2    0    0 -0.22508527055E+03  0.45684756727E+02 -0.32103875251E+03  0.39473580612E+03  0.00000000000E+00 0. -1.
</event>
<event>
 7    1  0.2556591E-009  0.6660118E+02  0.7561462E-02  0.1372048E+00
          2   -1    0    0  501    0  0.00000000000E+00  0.00000000000E+00  0.57529695229E+03  0.57529695229E+03  0.00000000000E+00 0. -1.
         -2   -1    0    0    0  501 -0.00000000000E+00 -0.00000000000E+00 -0.26470275567E+02  0.26470275567E+02  0.00000000000E+00 0.  1.
         25    2    1    2    0    0  0.24239482912E+02 -0.52721114233E+02  0.31422091477E+03  0.34314668097E+03  0.12509113863E+03 0.  0.
          5    1    3    3  502    0  0.10727053304E+02 -0.40638269560E+02  0.17299341040E+02  0.45642942782E+02  0.41800000000E+01 0. -1.
         -5    1    3    3    0  502  0.13512429608E+02 -0.12082844673E+02  0.29692157373E+03  0.29750373819E+03  0.41800000000E+01 0. -1.
        -11    1    1    2    0    0  0.12285167111E+02  0.81744299350E+01 -0.21905622132E+01  0.14917948871E+02  0.00000000000E+00 0.  1.
         11    1    1    2    0    0 -0.36524650022E+02  0.44546684298E+02  0.23679632416E+03  0.24370259801E+03  0.00000000000E+00 0. -1.
</event>
<event>
 7    1  0.2556591E-009  0.1087883E+03  0.7561462E-02  0.1262830E+00
         -2   -1    0    0    0  501 -0.00000000000E+00  0.00000000000E+00  0.54780090922E+02  0.54780090922E+02  0.00000000000E+00 0.  1.
          2   -1    0    0  501    0  0.00000000000E+00 -0.00000000000E+00 -0.33787156754E+03  0.33787156754E+03  0.00000000000E+00 0. -1.
         25    2    1    2    0    0  0.68696914285E+02 -0.21164851110E+02 -0.98221954331E+02  0.17453261741E+03  0.12508743052E+03 0.  0.
          5    1    3    3  502    0  0.74958267417E+02 -0.45020189406E+02 -0.16516059627E+02  0.89083174247E+02  0.41800000000E+01 0.  1.
         -5    1    3    3    0  502 -0.62613531320E+01  0.23855338297E+02 -0.81705894704E+02  0.85449443167E+02  0.41800000000E+01 0.  1.
        -11    1    1    2    0    0  0.14568054844E+02 -0.82173256556E+01 -0.76625013974E+02  0.78429238358E+02  0.00000000000E+00 0. -1.
         11    1    1    2    0    0 -0.83264969129E+02  0.29382176765E+02 -0.10824450831E+03  0.13968980269E+03  0.00000000000E+00 0.  1.
</event>
<event>
 7    1  0.2556591E-009  0.1557810E+03  0.7561462E-02  0.1193544E+00
          2   -1    0    0  501    0  0.00000000000E+00  0.00000000000E+00  0.61347556404E+03  0.61347556404E+03  0.00000000000E+00 0.  1.
         -2   -1    0    0    0  501 -0.00000000000E+00 -0.00000000000E+00 -0.49380073476E+02  0.49380073476E+02  0.00000000000E+00 0. -1.
         25    2    1    2    0    0  0.45609472484E+02 -0.12311179334E+03  0.36029822965E+03  0.40335980144E+03  0.12509027735E+03 0.  0.
          5    1    3    3  502    0 -0.34439951789E+02 -0.66131580084E+01  0.11408130534E+03  0.11942303281E+03  0.41800000000E+01 0. -1.
         -5    1    3    3    0  502  0.80049424273E+02 -0.11649863533E+03  0.24621692431E+03  0.28393676863E+03  0.41800000000E+01 0. -1.
        -11    1    1    2    0    0 -0.38253881262E+02  0.59101881357E+02  0.34597361804E+02  0.78443414353E+02  0.00000000000E+00 0. -1.
         11    1    1    2    0    0 -0.73555912223E+01  0.64009911982E+02  0.16919989911E+03  0.18105242172E+03  0.00000000000E+00 0.  1.
</event>
<event>
 7    1  0.2556591E-009  0.1205335E+03  0.7561462E-02  0.1242220E+00
         -3   -1    0    0    0  501 -0.00000000000E+00  0.00000000000E+00  0.32645416662E+03  0.32645416662E+03  0.00000000000E+00 0.  1.
          3   -1    0    0  501    0  0.00000000000E+00 -0.00000000000E+00 -0.12685732863E+03  0.12685732863E+03  0.00000000000E+00 0. -1.
         25    2    1    2    0    0 -0.59793289998E+02 -0.57920784179E+02 -0.63220850827E+02  0.16301870044E+03  0.12509262947E+03 0.  0.
          5    1    3    3  502    0 -0.30150524024E+02  0.21900995163E+02 -0.67978430827E+02  0.77635347270E+02  0.41800000000E+01 0.  1.
         -5    1    3    3    0  502 -0.29642765974E+02 -0.79821779341E+02  0.47575799995E+01  0.85383353174E+02  0.41800000000E+01 0.  1.
        -11    1    1    2    0    0  0.55384561520E+02 -0.46609384960E+01  0.83405855927E+02  0.10022829344E+03  0.00000000000E+00 0. -1.
         11    1    1    2    0    0  0.44087284779E+01  0.62581722675E+02  0.17941183289E+03  0.19006450137E+03  0.00000000000E+00 0.  1.
</event>
<event>
 7    1  0.2556591E-009  0.8858133E+02  0.7561462E-02  0.1306324E+00
         -2   -1    0    0    0  501 -0.00000000000E+00  0.00000000000E+00  0.48082453644E+02  0.48082453644E+02  0.00000000000E+00 0.  1.
          2   -1    0    0  501    0  0.00000000000E+00 -0.00000000000E+00 -0.44262828560E+03  0.44262828560E+03  0.00000000000E+00 0. -1.
         25    2    1    2    0    0 -0.17187078469E+02  0.24937533883E+02 -0.36917735661E+03  0.39096886890E+03  0.12508980596E+03 0.  0.
          5    1    3    3  502    0 -0.65038333827E+02  0.14650210802E+02 -0.12329357496E+03  0.14022621570E+03  0.41800000000E+01 0. -1.
         -5    1    3    3    0  502  0.47851255358E+02  0.10287323081E+02 -0.24588378166E+03  0.25074265321E+03  0.41800000000E+01 0. -1.
        -11    1    1    2    0    0  0.26010632600E+02  0.79436447403E+01  0.26321303861E+02  0.37847926455E+02  0.00000000000E+00 0.  1.
         11    1    1    2    0    0 -0.88235541311E+01 -0.32881178623E+02 -0.51689779202E+02  0.61893943881E+02  0.00000000000E+00 0. -1.
</event>
<event>
 7    1  0.2556591E-009  0.1449530E+03  0.7561462E-02  0.1206816E+00
         -1   -1    0    0    0  501 -0.00000000000E+00  0.00000000000E+00  0.23580238123E+03  0.23580238123E+03  0.00000000000E+00 0.  1.
          1   -1    0    0  501    0  0.00000000000E+00 -0.00000000000E+00 -0.93501807419E+02  0.93501807419E+02  0.00000000000E+00 0. -1.
         25    2    1    2    0    0  0.89269424170E+02  0.48244340557E+02  0.81130793551E+02  0.18034409097E+03  0.12508092980E+03 0.  0.
          5    1    3    3  502    0  0.94269178485E+02  0.80224146326E+02  0.45304934792E+02  0.13188101146E+03  0.41800000000E+01 0.  1.
         -5    1    3    3    0  502 -0.49997543156E+01 -0.31979805769E+02  0.35825858759E+02  0.48463079515E+02  0.41800000000E+01 0.  1.
        -11    1    1    2    0    0 -0.82677240528E+02  0.20369145526E+01  0.24093502219E+02  0.86140420079E+02  0.00000000000E+00 0. -1.
         11    1    1    2    0    0 -0.65921836421E+01 -0.50281255109E+02  0.37076278042E+02  0.62819677602E+02  0.00000000000E+00 0.  1.
</event>
<event>
 7    1  0.2556591E-009  0.1356163E+03  0.7561462E-02  0.1219352E+00
          1   -1    0    0  501    0  0.00000000000E+00  0.00000000000E+00  0.66937436146E+03  0.66937436146E+03  0.00000000000E+00 0. -1.
         -1   -1    0    0    0  501 -0.00000000000E+00 -0.00000000000E+00 -0.28059214064E+02  0.28059214064E+02  0.00000000000E+00 0.  1.
         25    2    1    2    0    0 -0.35050401106E+02 -0.80048927550E+02  0.36827332950E+03  0.39863429633E+03  0.12509074934E+03 0.  0.
          5    1    3    3  502    0  0.37624250942E+02  0.53742693448E+01  0.67107730556E+02  0.77235917359E+02  0.41800000000E+01 0.  1.
         -5    1    3    3    0  502 -0.72674652048E+02 -0.85423196895E+02  0.30116559894E+03  0.32139837897E+03  0.41800000000E+01 0.  1.
        -11    1    1    2    0    0  0.62379356892E+02  0.62398325460E+02  0.21204108721E+03  0.22966531704E+03  0.00000000000E+00 0.  1.
         11    1    1    2    0    0 -0.27328955786E+02  0.17650602091E+02  0.61000730685E+02  0.69133962150E+02  0.00000000000E+00 0. -1.
</event>
<event>
 7    1  0.2556591E-009  0.8101821E+02  0.7561462E-02  0.1326186E+00
          1   -1    0    0  501    0  0.00000000000E+00  0.00000000000E+00  0.43980983619E+03  0.43980983619E+03  0.00000000000E+00 0. -1.
         -1   -1    0    0    0  501 -0.00000000000E+00 -0.00000000000E+00 -0.31072865978E+02  0.31072865978E+02  0.00000000000E+00 0.  1.
         25    2    1    2    0    0  0.11400509333E+02  0.59460387442E+01  0.31473519323E+03  0.33892623445E+03  0.12508966205E+03 0.  0.
          5    1    3    3  502    0  0.45780069873E+02  0.65937228052E+01  0.37929767893E+02  0.59961918502E+02  0.41800000000E+01 0.  1.
         -5    1    3    3    0  502 -0.34379560539E+02 -0.64768406098E+00  0.27680542533E+03  0.27896431595E+03  0.41800000000E+01 0.  1.
        -11    1    1    2    0    0  0.33535596947E+02  0.68628800081E+01  0.97119593116E+01  0.35581702295E+02  0.00000000000E+00 0.  1.
         11    1    1    2    0    0 -0.44936106280E+02 -0.12808918752E+02  0.84289817675E+02  0.96374765426E+02  0.00000000000E+00 0. -1.
</event>
<event>
 7    1  0.2556591E-009  0.6996285E+02  0.7561462E-02  0.1360219E+00
         -1   -1    0    0    0  501 -0.00000000000E+00  0.00000000000E+00  0.46220842302E+03  0.46220842302E+03  0.00000000000E+00 0.  1.
          1   -1    0    0  501    0  0.00000000000E+00 -0.00000000000E+00 -0.27564261575E+02  0.27564261575E+02  0.00000000000E+00 0. -1.
         25    2    1    2    0    0  0.31383422939E+02 -0.17490967309E+02  0.23812634203E+03  0.27137227857E+03  0.12509158897E+03 0.  0.
          5    1    3    3  502    0  0.15826784829E+02  0.49378204421E+01  0.24276933195E+03  0.24337068460E+03  0.41800000000E+01 0.  1.
         -5    1    3    3    0  502  0.15556638110E+02 -0.22428787751E+02 -0.46429899138E+01  0.28001593965E+02  0.41800000000E+01 0.  1.
        -11    1    1    2    0    0  0.22414508858E+02  0.32391314609E+02  0.85524578269E+02  0.94159762944E+02  0.00000000000E+00 0.  1.
         11    1    1    2    0    0 -0.53797931797E+02 -0.14900347301E+02  0.11099324114E+03  0.12424064309E+03  0.00000000000E+00 0. -1.
</event>
<event>
 7    1  0.2556591E-009  0.1265382E+03  0.7561462E-02  0.1232685E+00
         -1   -1    0    0    0  501 -0.00000000000E+00  0.00000000000E+00  0.51851170321E+02  0.51851170321E+02  0.00000000000E+00 0.  1.
          1   -1    0    0  501    0  0.00000000000E+00 -0.00000000000E+00 -0.47867490062E+03  0.47867490062E+03  0.00000000000E+00 0. -1.
         25    2    1    2    0    0  0.57773768231E+02  0.83022627011E+02 -0.14678271875E+03  0.21777573264E+03  0.12510211155E+03 0.  0.
          5    1    3    3  502    0 -0.17477907964E+02 -0.13859961307E+02  0.43179691957E+01  0.23101797597E+02  0.41800000000E+01 0. -1.
         -5    1    3    3    0  502  0.75251676195E+02  0.96882588318E+02 -0.15110068794E+03  0.19467393505E+03  0.41800000000E+01 0. -1.
        -11    1    1    2    0    0 -0.54261476244E+02 -0.48022628475E+02 -0.73414947092E+02  0.10315151529E+03  0.00000000000E+00 0.  1.
         11    1    1    2    0    0 -0.35122919867E+01 -0.34999998536E+02 -0.20662606446E+03  0.20959882301E+03  0.00000000000E+00 0. -1.
</event>
<event>
 7    1  0.2556591E-009  0.8575982E+02  0.7561462E-02  0.1313457E+00
          4   -1    0    0  501    0  0.00000000000E+00  0.00000000000E+00  0.55291456257E+02  0.55291456257E+02  0.00000000000E+00 0. -1.
         -4   -1    0    0    0  501 -0.00000000000E+00 -0.00000000000E+00 -0.24256725122E+03  0.24256725122E+03  0.00000000000E+00 0.  1.
         25    2    1    2    0    0 -0.33446262244E+02 -0.24356383762E+01 -0.78652089893E+02  0.15151767515E+03  0.12508744880E+03 0.  0.
          5    1    3    3  502    0 -0.76140728856E+02  0.10368317398E+02 -0.73562862428E+02  0.10646069568E+03  0.41800000000E+01 0. -1.
         -5    1    3    3    0  502  0.42694466612E+02 -0.12803955774E+02 -0.50892274643E+01  0.45056979470E+02  0.41800000000E+01 0. -1.
        -11    1    1    2    0    0  0.23214933237E+02  0.19218881872E+02 -0.11993440109E+03  0.12366308710E+03  0.00000000000E+00 0.  1.
         11    1    1    2    0    0  0.10231329007E+02 -0.16783243495E+02  0.11310696017E+02  0.22677945230E+02  0.00000000000E+00 0. -1.
</event>
<event>
 7    1  0.2556591E-009  0.8357614E+02  0.7561462E-02  0.1319199E+00
          1   -1    0    0  501    0  0.00000000000E+00  0.00000000000E+00  0.54761962713E+03  0.54761962713E+03  0.00000000000E+00 0. -1.
         -1   -1    0    0    0  501 -0.00000000000E+00 -0.00000000000E+00 -0.27168814824E+02  0.27168814824E+02  0.00000000000E+00 0.  1.
         25    2    1    2    0    0 -0.41083439062E+02 -0.24475655130E+02  0.43105276354E+03  0.45137691313E+03  0.12509087134E+03 0.  0.
          5    1    3    3  502    0 -0.37841473776E+02  0.39580106926E+02  0.99482962642E+02  0.11363491654E+03  0.41800000000E+01 0. -1.
         -5    1    3    3    0  502 -0.32419652861E+01 -0.64055762056E+02  0.33156980090E+03  0.33774199658E+03  0.41800000000E+01 0. -1.
        -11    1    1    2    0    0  0.29397287197E+02  0.15560520271E+02  0.99935957367E+02  0.10532580814E+03  0.00000000000E+00 0. -1.
         11    1    1    2    0    0  0.11686151866E+02  0.89151348589E+01 -0.10537908599E+02  0.18085720683E+02  0.00000000000E+00 0.  1.
</event>
<event>
 7    1  0.2556591E-009  0.1172538E+03  0.7561462E-02  0.1247697E+00
          3   -1    0    0  501    0  0.00000000000E+00  0.00000000000E+00  0.17727821399E+03  0.17727821399E+03  0.00000000000E+00 0. -1.
         -3   -1    0    0    0  501 -0.00000000000E+00 -0.00000000000E+00 -0.12357623677E+03  0.12357623677E+03  0.00000000000E+00 0.  1.
         25    2    1    2    0    0 -0.73457191081E+01  0.79925689879E+02  0.90925855540E+02  0.17423328035E+03  0.12509056433E+03 0.  0.
          5    1    3    3  502    0  0.37918579625E+02  0.60353891137E+02  0.10103783748E+03  0.12371955326E+03  0.41800000000E+01 0.  1.
         -5    1    3    3    0  502 -0.45264298733E+02  0.19571798742E+02 -0.10111981941E+02  0.50513727091E+02  0.41800000000E+01 0.  1.
        -11    1    1    2    0    0 -0.61481484461E+01  0.15795152584E+02 -0.23514606525E+02  0.28986605432E+02  0.00000000000E+00 0.  1.
         11    1    1    2    0    0  0.13493867554E+02 -0.95720842463E+02 -0.13709271796E+02  0.97634564969E+02  0.00000000000E+00 0. -1.
</event>
<event>
 7    1  0.2556591E-009  0.1073493E+03  0.7561462E-02  0.1265559E+00
         -1   -1    0    0    0  501 -0.00000000000E+00  0.00000000000E+00  0.25259233697E+02  0.25259233697E+02  0.00000000000E+00 0.  1.
          1   -1    0    0  501    0  0.00000000000E+00 -0.00000000000E+00 -0.63360362397E+03  0.63360362397E+03  0.00000000000E+00 0. -1.
         25    2    1    2    0    0  0.18800704850E+02 -0.56776616947E+02 -0.28956672839E+03  0.32105043216E+03  0.12508972406E+03 0.  0.
          5    1    3    3  502    0 -0.41228448658E+02  0.15546713084E+01 -0.17034578112E+03  0.17532073331E+03  0.41800000000E+01 0. -1.
         -5    1    3    3    0  502  0.60029153508E+02 -0.58331288256E+02 -0.11922094727E+03  0.14572969885E+03  0.41800000000E+01 0. -1.
        -11    1    1    2    0    0  0.22329432628E+02  0.42846751952E+01 -0.16060670710E+02  0.27837154069E+02  0.00000000000E+00 0.  1.
         11    1    1    2    0    0 -0.41130137478E+02  0.52491941752E+02 -0.30271699117E+03  0.30997527144E+03  0.00000000000E+00 0. -1.
</event>
<event>
 7    1  0.2556591E-009  0.1236868E+03  0.7561462E-02  0.1237136E+00
         -1   -1    0    0    0  501 -0.00000000000E+00  0.00000000000E+00  0.55600729444E+03  0.55600729444E+03  0.00000000000E+00 0.  1.
          1   -1    0    0  501    0  0.00000000000E+00 -0.00000000000E+00 -0.30226864167E+02  0.30226864167E+02  0.00000000000E+00 0. -1.
         25    2    1    2    0    0 -0.30543331436E+02  0.63648864422E+02  0.26993884726E+03  0.30577509418E+03  0.12508938373E+03 0.  0.
          5    1    3    3  502    0 -0.77623591955E+02  0.53875303889E+02  0.16308566016E+03  0.18852685577E+03  0.41800000000E+01 0.  1.
         -5    1    3    3    0  502  0.47080260519E+02  0.97735605328E+01  0.10685318710E+03  0.11724823840E+03  0.41800000000E+01 0.  1.
        -11    1    1    2    0    0 -0.24567627149E+02 -0.34001791072E+02  0.16430719550E+03  0.16957754743E+03  0.00000000000E+00 0.  1.
         11    1    1    2    0    0  0.55110958584E+02 -0.29647073350E+02  0.91534387514E+02  0.11088151700E+03  0.00000000000E+00 0. -1.
</event>
<event>
 7    1  0.2556591E-009  0.2038640E+03  0.7561462E-02  0.1146519E+00
         -1   -1    0    0    0  501 -0.00000000000E+00  0.00000000000E+00  0.53011285718E+03  0.53011285718E+03  0.00000000000E+00 0.  1.
          1   -1    0    0  501    0  0.00000000000E+00 -0.00000000000E+00 -0.86811886599E+02  0.86811886599E+02  0.00000000000E+00 0. -1.
         25    2    1    2    0    0 -0.16761251334E+03 -0.52800216322E+02  0.31387695115E+03  0.38085031913E+03  0.12508560127E+03 0.  0.
          5    1    3    3  502    0 -0.17107395247E+03 -0.77107132579E+02  0.29479203056E+03  0.34947334775E+03  0.41800000000E+01 0. -1.
         -5    1    3    3    0  502  0.34614391336E+01  0.24306916257E+02  0.19084920598E+02  0.31376971380E+02  0.41800000000E+01 0. -1.
        -11    1    1    2    0    0  0.89730564969E+01  0.34252091675E+02  0.10465720202E+02  0.36922253809E+02  0.00000000000E+00 0. -1.
         11    1    1    2    0    0  0.15863945684E+03  0.18548124647E+02  0.11895829922E+03  0.19915217084E+03  0.00000000000E+00 0.  1.
</event>
<event>
 7    1  0.2556591E-009  0.1917679E+03  0.7561462E-02  0.1156876E+00
         -2   -1    0    0    0  501 -0.00000000000E+00  0.00000000000E+00  0.36751535803E+02  0.36751535803E+02  0.00000000000E+00 0.  1.
          2   -1    0    0  501    0  0.00000000000E+00 -0.00000000000E+00 -0.11361597772E+04  0.11361597772E+04  0.00000000000E+00 0. -1.
         25    2    1    2    0    0 -0.15229364643E+03  0.46760417450E+02 -0.39270775393E+03  0.44186702681E+03  0.12508876051E+03 0.  0.
          5    1    3    3  502    0 -0.10103413909E+03 -0.29188544162E+02 -0.15772406121E+03  0.18961598101E+03  0.41800000000E+01 0. -1.
         -5    1    3    3    0  502 -0.51259507343E+02  0.75948961612E+02 -0.23498369272E+03  0.25225104580E+03  0.41800000000E+01 0. -1.
        -11    1    1    2    0    0  0.11177530509E+03 -0.77234767132E+02 -0.48949859968E+03  0.50800374720E+03  0.00000000000E+00 0. -1.
         11    1    1    2    0    0  0.40518341344E+02  0.30474349682E+02 -0.21720188781E+03  0.22304053901E+03  0.00000000000E+00 0.  1.
</event>
<event>
 7    1  0.2556591E-009  0.1372599E+03  0.7561462E-02  0.1217064E+00
         -2   -1    0    0    0  501 -0.00000000000E+00  0.00000000000E+00  0.56085723869E+02  0.56085723869E+02  0.00000000000E+00 0.  1.
          2   -1    0    0  501    0  0.00000000000E+00 -0.00000000000E+00 -0.70238658747E+03  0.70238658747E+03  0.00000000000E+00 0. -1.
         25    2    1    2    0    0 -0.60352411394E+02 -0.79021505511E+02 -0.84611759167E+02  0.18081345822E+03  0.12509014746E+03 0.  0.
          5    1    3    3  502    0  0.23531154496E+02 -0.40959199776E+02  0.10253731436E+02  0.48517859460E+02  0.41800000000E+01 0. -1.
         -5    1    3    3    0  502 -0.83883565890E+02 -0.38062305735E+02 -0.94865490603E+02  0.13229559876E+03  0.41800000000E+01 0. -1.
        -11    1    1    2    0    0  0.56972669914E+02  0.99217296712E+02 -0.47553355901E+03  0.48910338665E+03  0.00000000000E+00 0. -1.
         11    1    1    2    0    0  0.33797414796E+01 -0.20195791201E+02 -0.86155545427E+02  0.88555466474E+02  0.00000000000E+00 0.  1.
</event>
<event>
 7    1  0.2556591E-009  0.9360693E+02  0.7561462E-02  0.1294345E+00
         -2   -1    0    0    0  501 -0.00000000000E+00  0.00000000000E+00  0.93867367939E+02  0.93867367939E+02  0.00000000000E+00 0.  1.
          2   -1    0    0  501    0  0.00000000000E+00 -0.00000000000E+00 -0.14678073844E+03  0.14678073844E+03  0.00000000000E+00 0. -1.
         25    2    1    2    0    0 -0.41191701702E+02  0.14933818962E+02 -0.16529795824E+02  0.13356837502E+03  0.12508997329E+03 0.  0.
          5    1    3    3  502    0 -0.82888096256E+02  0.11491914853E+02  0.91765062380E+01  0.84286305380E+02  0.41800000000E+01 0. -1.
         -5    1    3    3    0  502  0.41696394554E+02  0.34419041086E+01 -0.25706302062E+02  0.49282069643E+02  0.41800000000E+01 0. -1.
        -11    1    1    2    0    0  0.47823252258E+01  0.14052135356E+02 -0.54991071010E+02  0.56959204993E+02  0.00000000000E+00 0. -1.
         11    1    1    2    0    0  0.36409376476E+02 -0.28985954318E+02  0.18607496332E+02  0.50120526363E+02  0.00000000000E+00 0.  1.
</event>
<event>
 7    1  0.3094712E-009  0.1283521E+03  0.7561462E-02  0.1229922E+00
          2   -1    0    0  501    0  0.00000000000E+00  0.00000000000E+00  0.12369280241E+04  0.12369280241E+04  0.00000000000E+00 0. -1.
         -2   -1    0    0    0  501 -0.00000000000E+00 -0.00000000000E+00 -0.16649221802E+02  0.16649221802E+02  0.00000000000E+00 0.  1.
         25    2    1    2    0    0  0.80403230483E+02 -0.38086318815E+02  0.80064936570E+03  0.81523132309E+03  0.12508979255E+03 0.  0.
          5    1    3    3  502    0  0.71892221881E+02 -0.80057471358E+02  0.63605467961E+03  0.64510519928E+03  0.41800000000E+01 0.  1.
         -5    1    3    3    0  502  0.85110086016E+01  0.41971152543E+02  0.16459468609E+03  0.17012612381E+03  0.41800000000E+01 0.  1.
        -11    1    1    2    0    0 -0.71697575723E+02  0.51000383250E+01  0.37677566880E+03  0.38357066800E+03  0.00000000000E+00 0. -1.
         11    1    1    2    0    0 -0.87056547599E+01  0.32986280490E+02  0.42853767836E+02  0.54775254843E+02  0.00000000000E+00 0.  1.
</event>
<event>
 7    1  0.2556591E-009  0.2065699E+03  0.7561462E-02  0.1144311E+00
          1   -1    0    0  501    0  0.00000000000E+00  0.00000000000E+00  0.11272521844E+04  0.11272521844E+04  0.00000000000E+00 0. -1.
         -1   -1    0    0    0  501 -0.00000000000E+00 -0.00000000000E+00 -0.44885864437E+02  0.44885864437E+02  0.00000000000E+00 0.  1.
         25    2    1    2    0    0  0.48965454678E+02 -0.18013578086E+03  0.40027773087E+03  0.45903938214E+03  0.12509347395E+03 0.  0.
          5    1    3    3  502    0 -0.32574551786E+01 -0.16989219432E+03  0.32486247862E+03  0.36664297500E+03  0.41800000000E+01 0.  1.
         -5    1    3    3    0  502  0.52222909856E+02 -0.10243586541E+02  0.75415252253E+02  0.92396407135E+02  0.41800000000E+01 0.  1.
        -11    1    1    2    0    0 -0.36260050293E+02  0.69221923454E+02  0.43495858113E+03  0.44192242898E+03  0.00000000000E+00 0. -1.
         11    1    1    2    0    0 -0.12705404385E+02  0.11091385741E+03  0.24713000792E+03  0.27117623767E+03  0.00000000000E+00 0.  1.
</event>
<event>
 7    1  0.2556591E-009  0.1331603E+03  0.7561462E-02  0.1222840E+00
         -2   -1    0    0    0  501 -0.00000000000E+00  0.00000000000E+00  0.26761914009E+03  0.26761914009E+03  0.00000000000E+00 0.  1.
          2   -1    0    0  501    0  0.00000000000E+00 -0.00000000000E+00 -0.90938045847E+02  0.90938045847E+02  0.00000000000E+00 0. -1.
         25    2    1    2    0    0 -0.91276725474E+02  0.35796773872E+02  0.32682131788E+02  0.16225908346E+03  0.12508812412E+03 0.  0.
          5    1    3    3  502    0 -0.85674969639E+01 -0.29849420791E+02  0.46091753656E+02  0.55734298963E+02  0.41800000000E+01 0. -1.
         -5    1    3    3    0  502 -0.82709228510E+02  0.65646194663E+02 -0.13409621868E+02  0.10652478450E+03  0.41800000000E+01 0. -1.
        -11    1    1    2    0    0  0.98270600554E+02 -0.57283070794E+01  0.86530626599E+02  0.13106286192E+03  0.00000000000E+00 0. -1.
         11    1    1    2    0    0 -0.69938750807E+01 -0.30068466792E+02  0.57468335860E+02  0.65235240556E+02  0.00000000000E+00 0.  1.
</event>
<event>
 7    1  0.2556591E-009  0.1103641E+03  0.7561462E-02  0.1259897E+00
          2   -1    0    0  501    0  0.00000000000E+00  0.00000000000E+00  0.23953993872E+03  0.23953993872E+03  0.00000000000E+00 0.  1.
         -2   -1    0    0    0  501 -0.00000000000E+00 -0.00000000000E+00 -0.70343964229E+02  0.70343964229E+02  0.00000000000E+00 0. -1.
         25    2    1    2    0    0 -0.52379889243E+01 -0.59259252659E+02  0.46737476742E+02  0.14619353819E+03  0.12509621627E+03 0.  0.
          5    1    3    3  502    0 -0.61270963457E+02 -0.21978268341E+02  0.44049293249E+02  0.78708245299E+02  0.41800000000E+01 0. -1.
         -5    1    3    3    0  502  0.56032974533E+02 -0.37280984318E+02  0.26881834931E+01  0.67485292896E+02  0.41800000000E+01 0. -1.
        -11    1    1    2    0    0 -0.29308092664E+02  0.18586177360E+02  0.55064132477E+01  0.35138737475E+02  0.00000000000E+00 0. -1.
         11    1    1    2    0    0  0.34546081589E+02  0.40673075299E+02  0.11695208451E+03  0.12855162729E+03  0.00000000000E+00 0.  1.
</event>
<event>
 7    1  0.2556591E-009  0.1330981E+03  0.7561462E-02  0.1222930E+00
          1   -1    0    0  501    0  0.00000000000E+00  0.00000000000E+00  0.20806425861E+04  0.20806425861E+04  0.00000000000E+00 0. -1.
         -1   -1    0    0    0  501 -0.00000000000E+00 -0.00000000000E+00 -0.27393771865E+02  0.27393771865E+02  0.00000000000E+00 0.  1.
         25    2    1    2    0    0 -0.65606962707E+01 -0.95374648847E+02  0.19067429192E+04  0.19132310506E+04  0.12508048058E+03 0.  0.
          5    1    3    3  502    0  0.89600798281E+01 -0.11794307332E+03  0.17544846789E+04  0.17584722951E+04  0.41800000000E+01 0. -1.
         -5    1    3    3    0  502 -0.15520776099E+02  0.22568424476E+02  0.15225824025E+03  0.15475875548E+03  0.41800000000E+01 0. -1.
        -11    1    1    2    0    0  0.39541897172E+02  0.44810483553E+02  0.38552443755E+02  0.71118436341E+02  0.00000000000E+00 0.  1.
         11    1    1    2    0    0 -0.32981200901E+02  0.50564165294E+02  0.10795345130E+03  0.12368687106E+03  0.00000000000E+00 0. -1.
</event>
<event>
 7    1  0.2556591E-009  0.1535710E+03  0.7561462E-02  0.1196152E+00
         -2   -1    0    0    0  501 -0.00000000000E+00  0.00000000000E+00  0.60455178435E+02  0.60455178435E+02  0.00000000000E+00 0.  1.
          2   -1    0    0  501    0  0.00000000000E+00 -0.00000000000E+00 -0.42059047180E+03  0.42059047180E+03  0.00000000000E+00 0. -1.
         25    2    1    2    0    0  0.68726847539E+02  0.95753797052E+02 -0.18527565259E+03  0.25271805269E+03  0.12508867850E+03 0.  0.
          5    1    3    3  502    0  0.95776765357E+02  0.10486140474E+03 -0.14338452614E+03  0.20185563584E+03  0.41800000000E+01 0.  1.
         -5    1    3    3    0  502 -0.27049917818E+02 -0.91076076870E+01 -0.41891126450E+02  0.50862416842E+02  0.41800000000E+01 0.  1.
        -11    1    1    2    0    0 -0.61818480862E+02 -0.27577617221E+02 -0.44361763180E+02  0.80932166535E+02  0.00000000000E+00 0.  1.
         11    1    1    2    0    0 -0.69083666768E+01 -0.68176179832E+02 -0.13049787760E+03  0.14739543101E+03  0.00000000000E+00 0. -1.
</event>
<event>
 7    1  0.2556591E-009  0.1159575E+03  0.7561462E-02  0.1249919E+00
          1   -1    0    0  501    0  0.00000000000E+00  0.00000000000E+00  0.62631927694E+02  0.62631927694E+02  0.00000000000E+00 0. -1.
         -1   -1    0    0    0  501 -0.00000000000E+00 -0.00000000000E+00 -0.41382853319E+03  0.41382853319E+03  0.00000000000E+00 0.  1.
         25    2    1    2    0    0  0.98069796475E+02  0.43993553520E+00 -0.10433151516E+03  0.19013697581E+03  0.12509646674E+03 0.  0.
          5    1    3    3  502    0  0.85542198195E+02 -0.48056940633E+01 -0.95085937709E+00  0.85784257886E+02  0.41800000000E+01 0. -1.
         -5    1    3    3    0  502  0.12527598280E+02  0.52456295985E+01 -0.10338065578E+03  0.10435271793E+03  0.41800000000E+01 0. -1.
        -11    1    1    2    0    0 -0.10243928521E+03 -0.26249505291E+02 -0.23476994020E+03  0.25748741426E+03  0.00000000000E+00 0.  1.
         11    1    1    2    0    0  0.43694887383E+01  0.25809569756E+02 -0.12095150136E+02  0.28836070808E+02  0.00000000000E+00 0. -1.
</event>
<event>
 7    1  0.2556591E-009  0.9008575E+02  0.7561462E-02  0.1302644E+00
         -3   -1    0    0    0  501 -0.00000000000E+00  0.00000000000E+00  0.33606784200E+03  0.33606784200E+03  0.00000000000E+00 0.  1.
          3   -1    0    0  501    0  0.00000000000E+00 -0.00000000000E+00 -0.39153316808E+02  0.39153316808E+02  0.00000000000E+00 0. -1.
         25    2    1    2    0    0 -0.52720191086E+02 -0.14465842624E+02  0.19341625174E+03  0.23673976975E+03  0.12508874047E+03 0.  0.
          5    1    3    3  502    0 -0.74876092730E+02 -0.23556130841E+02  0.19705902114E+03  0.21215807968E+03  0.41800000000E+01 0. -1.
         -5    1    3    3    0  502  0.22155901644E+02  0.90902882163E+01 -0.36427694017E+01  0.24581690064E+02  0.41800000000E+01 0. -1.
        -11    1    1    2    0    0  0.35175566262E+01 -0.17978391407E+02  0.66307324444E+02  0.68791402349E+02  0.00000000000E+00 0.  1.
         11    1    1    2    0    0  0.49202634460E+02  0.32444234032E+02  0.37190949013E+02  0.69689986714E+02  0.00000000000E+00 0. -1.
</event>
<event>
 7    1  0.2556591E-009  0.1091836E+03  0.7561462E-02  0.1262089E+00
          1   -1    0    0  501    0  0.00000000000E+00  0.00000000000E+00  0.43329494888E+02  0.43329494888E+02  0.00000000000E+00 0. -1.
         -1   -1    0    0    0  501 -0.00000000000E+00 -0.00000000000E+00 -0.40068016517E+03  0.40068016517E+03  0.00000000000E+00 0.  1.
         25    2    1    2    0    0 -0.86736818317E+01  0.62255349639E+02 -0.26611094784E+03  0.30068674354E+03  0.12508604985E+03 0.  0.
          5    1    3    3  502    0  0.34302439744E+02 -0.23969427453E+02 -0.10217775095E+03  0.11049414471E+03  0.41800000000E+01 0. -1.
         -5    1    3    3    0  502 -0.42976121575E+02  0.86224777093E+02 -0.16393319688E+03  0.19019259883E+03  0.41800000000E+01 0. -1.
        -11    1    1    2    0    0  0.26458423982E+02 -0.54287090669E+02 -0.11807509537E+02  0.61534979437E+02  0.00000000000E+00 0. -1.
         11    1    1    2    0    0 -0.17784742151E+02 -0.79682589709E+01 -0.79432212911E+02  0.81787937083E+02  0.00000000000E+00 0.  1.
</event>
<event>
 7    1  0.2556591E-009  0.1058290E+03  0.7561462E-02  0.1268495E+00
          2   -1    0    0  501    0  0.00000000000E+00  0.00000000000E+00  0.19499624500E+03  0.19499624500E+03  0.00000000000E+00 0. -1.
         -2   -1    0    0    0  501 -0.00000000000E+00 -0.00000000000E+00 -0.79907979512E+02  0.79907979512E+02  0.00000000000E+00 0.  1.
         25    2    1    2    0    0  0.39793786869E+02 -0.34889189878E+02  0.11227977313E+03  0.17622374746E+03  0.12508901099E+03 0.  0.
          5    1    3    3  502    0  0.92615137965E+01 -0.78420966477E+02  0.47244079690E+02  0.92114597576E+02  0.41800000000E+01 0. -1.
         -5    1    3    3    0  502  0.30532273073E+02  0.43531776599E+02  0.65035693440E+02  0.84109149883E+02  0.41800000000E+01 0. -1.
        -11    1    1    2    0    0 -0.15591794467E+02 -0.16341166833E+02 -0.26557532059E+02  0.34863165336E+02  0.00000000000E+00 0.  1.
         11    1    1    2    0    0 -0.24201992402E+02  0.51230356710E+02  0.29366024422E+02  0.63817311721E+02  0.00000000000E+00 0. -1.
</event>
<event>
 7    1  0.2556591E-009  0.2283135E+03  0.7561462E-02  0.1127832E+00
         -2   -1    0    0    0  501 -0.00000000000E+00  0.00000000000E+00  0.42138107787E+02  0.42138107787E+02  0.00000000000E+00 0.  1.
          2   -1    0    0  501    0  0.00000000000E+00 -0.00000000000E+00 -0.13848535639E+04  0.13848535639E+04  0.00000000000E+00 0. -1.
         25    2    1    2    0    0 -0.12324882702E+02 -0.21540758803E+03 -0.67123283913E+03  0.71606797449E+03  0.12508991983E+03 0.  0.
          5    1    3    3  502    0 -0.33824376900E+02 -0.21292014148E+03 -0.51548021836E+03  0.55876327997E+03  0.41800000000E+01 0.  1.
         -5    1    3    3    0  502  0.21499494198E+02 -0.24874465540E+01 -0.15575262077E+03  0.15730469452E+03  0.41800000000E+01 0.  1.
        -11    1    1    2    0    0  0.13400049400E+02  0.23569442625E+02 -0.26106263562E+02  0.37637972139E+02  0.00000000000E+00 0.  1.
         11    1    1    2    0    0 -0.10751666976E+01  0.19183814541E+03 -0.64537635342E+03  0.67328572506E+03  0.00000000000E+00 0. -1.
</event>
<event>
 7    1  0.3666630E-009  0.8525760E+02  0.7561462E-02  0.1314760E+00
          2   -1    0    0  501    0  0.00000000000E+00  0.00000000000E+00  0.36847155106E+03  0.36847155106E+03  0.00000000000E+00 0. -1.
         -2   -1    0    0    0  501 -0.00000000000E+00 -0.00000000000E+00 -0.34792205550E+02  0.34792205550E+02  0.00000000000E+00 0.  1.
         25    2    1    2    0    0 -0.12802525094E+02  0.10404094877E+02  0.24210621756E+03  0.27300757854E+03  0.12508224301E+03 0.  0.
          5    1    3    3  502    0 -0.62643517998E+02 -0.18527416092E+02  0.15741858419E+03  0.17048624150E+03  0.41800000000E+01 0. -1.
         -5    1    3    3    0  502  0.49840992904E+02  0.28931510969E+02  0.84687633375E+02  0.10252133703E+03  0.41800000000E+01 0. -1.
        -11    1    1    2    0    0 -0.16593742356E+02 -0.20859515129E+01 -0.13082045611E+02  0.21233073175E+02  0.00000000000E+00 0.  1.
         11    1    1    2    0    0  0.29396267450E+02 -0.83181433637E+01  0.10465517356E+03  0.10902310490E+03  0.00000000000E+00 0. -1.
</event>
<event>
 7    1  0.2556591E-009  0.7161953E+02  0.7561462E-02  0.1354671E+00
         -1   -1    0    0    0  501 -0.00000000000E+00  0.00000000000E+00  0.32664410690E+03  0.32664410690E+03  0.00000000000E+00 0.  1.
          1   -1    0    0  501    0  0.00000000000E+00 -0.00000000000E+00 -0.60736998045E+02  0.60736998045E+02  0.00000000000E+00 0. -1.
         25    2    1    2    0    0 -0.46467349721E+02 -0.33043540755E+01  0.25171238897E+03  0.28491538156E+03  0.12509002576E+03 0.  0.
          5    1    3    3  502    0 -0.21936151667E+02  0.13593263466E+02 -0.48558617897E+01  0.26589910781E+02  0.41800000000E+01 0. -1.
         -5    1    3    3    0  502 -0.24531198055E+02 -0.16897617542E+02  0.25656825076E+03  0.25832547078E+03  0.41800000000E+01 0. -1.
        -11    1    1    2    0    0 -0.19993145574E+02 -0.31649391652E+01  0.27730967211E+02  0.34332917911E+02  0.00000000000E+00 0.  1.
         11    1    1    2    0    0  0.66460495295E+02  0.64692932407E+01 -0.13536247325E+02  0.68132805473E+02  0.00000000000E+00 0. -1.
</event>
<event>
 7    1  0.2556591E-009  0.1520362E+03  0.7561462E-02  0.1197993E+00
          3   -1    0    0  501    0  0.00000000000E+00  0.00000000000E+00  0.13252300750E+03  0.13252300750E+03  0.00000000000E+00 0. -1.
         -3   -1    0    0    0  501 -0.00000000000E+00 -0.00000000000E+00 -0.25573142492E+03  0.25573142492E+03  0.00000000000E+00 0.  1.
         25    2    1    2    0    0 -0.14221694458E+03  0.42617285236E+01 -0.11678222740E+03  0.22255745532E+03  0.12509960282E+03 0.  0.
          5    1    3    3  502    0 -0.13244093730E+03  0.20152012048E+02 -0.34937492057E+02  0.13850922790E+03  0.41800000000E+01 0. -1.
         -5    1    3    3    0  502 -0.97760072775E+01 -0.15890283524E+02 -0.81844735339E+02  0.84048227414E+02  0.41800000000E+01 0. -1.
        -11    1    1    2    0    0  0.13534588394E+03 -0.17039838725E+02 -0.28425406918E+02  0.13934442279E+03  0.00000000000E+00 0.  1.
         11    1    1    2    0    0  0.68710606359E+01  0.12778110201E+02  0.21999216896E+02  0.26352554309E+02  0.00000000000E+00 0. -1.
</event>
<event>
 7    1  0.2556591E-009  0.1156594E+03  0.7561462E-02  0.1250434E+00
         -1   -1    0    0    0  501 -0.00000000000E+00  0.00000000000E+00  0.12593461366E+03  0.12593461366E+03  0.00000000000E+00 0.  1.
          1   -1    0    0  501    0  0.00000000000E+00 -0.00000000000E+00 -0.14323683437E+03  0.14323683437E+03  0.00000000000E+00 0. -1.
         25    2    1    2    0    0 -0.70747045330E+02  0.37399189144E+02 -0.11191316630E+02  0.14891830562E+03  0.12509025706E+03 0.  0.
          5    1    3    3  502    0 -0.10689386717E+03  0.29662447728E+02 -0.12367263804E+02  0.11169861798E+03  0.41800000000E+01 0.  1.
         -5    1    3    3    0  502  0.36146821840E+02  0.77367414157E+01  0.11759471736E+01  0.37219687648E+02  0.41800000000E+01 0.  1.
        -11    1    1    2    0    0  0.28153324462E+02 -0.29170643577E+01 -0.44925346414E+02  0.53098076172E+02  0.00000000000E+00 0. -1.
         11    1    1    2    0    0  0.42593720869E+02 -0.34482124786E+02  0.38814442331E+02  0.67155066232E+02  0.00000000000E+00 0.  1.
</event>
<event>
 7    1  0.2556591E-009  0.2040092E+03  0.7561462E-02  0.1146400E+00
          1   -1    0    0  501    0  0.00000000000E+00  0.00000000000E+00  0.31896953836E+03  0.31896953836E+03  0.00000000000E+00 0. -1.
         -1   -1    0    0    0  501 -0.00000000000E+00 -0.00000000000E+00 -0.26525274020E+03  0.26525274020E+03  0.00000000000E+00 0.  1.
         25    2    1    2    0    0  0.10132387710E+02 -0.18568537866E+03  0.22402099577E+03  0.31688263178E+03  0.12508985031E+03 0.  0.
          5    1    3    3  502    0 -0.35703349437E+02 -0.76832949296E+01  0.60696466073E+02  0.70959816627E+02  0.41800000000E+01 0.  1.
         -5    1    3    3    0  502  0.45835737148E+02 -0.17800208373E+03  0.16332452970E+03  0.24592281516E+03  0.41800000000E+01 0.  1.
        -11    1    1    2    0    0  0.68800037246E+01  0.29396920750E+02 -0.81203145236E+02  0.86634082191E+02  0.00000000000E+00 0.  1.
         11    1    1    2    0    0 -0.17012391435E+02  0.15628845791E+03 -0.89101052369E+02  0.18070556458E+03  0.00000000000E+00 0. -1.
</event>
<event>
 7    1  0.2556591E-009  0.9493884E+02  0.7561462E-02  0.1291314E+00
         -3   -1    0    0    0  501 -0.00000000000E+00  0.00000000000E+00  0.98628035390E+02  0.98628035390E+02  0.00000000000E+00 0.  1.
          3   -1    0    0  501    0  0.00000000000E+00 -0.00000000000E+00 -0.12875315850E+03  0.12875315850E+03  0.00000000000E+00 0. -1.
         25    2    1    2    0    0 -0.17033571468E+02  0.31382182503E+02 -0.87809839244E+01  0.13038540886E+03  0.12509302630E+03 0.  0.
          5    1    3    3  502    0 -0.12210807038E+02  0.77276751645E+02 -0.23452446614E+02  0.81781965038E+02  0.41800000000E+01 0. -1.
         -5    1    3    3    0  502 -0.48227644298E+01 -0.45894569142E+02  0.14671462689E+02  0.48603443817E+02  0.41800000000E+01 0. -1.
        -11    1    1    2    0    0  0.15586735199E+02 -0.46996163679E+02  0.19523056816E+02  0.53223448424E+02  0.00000000000E+00 0.  1.
         11    1    1    2    0    0  0.14468362690E+01  0.15613981176E+02 -0.40867196003E+02  0.43772336612E+02  0.00000000000E+00 0. -1.
</event>
<event>
 7    1  0.2556591E-009  0.2383523E+03  0.7561462E-02  0.1120895E+00
          1   -1    0    0  501    0  0.00000000000E+00  0.00000000000E+00  0.67158303171E+02  0.67158303171E+02  0.00000000000E+00 0. -1.
         -1   -1    0    0    0  501 -0.00000000000E+00 -0.00000000000E+00 -0.14391755529E+04  0.14391755529E+04  0.00000000000E+00 0.  1.
         25    2    1    2    0    0  0.22545440180E+03  0.68155523111E+02 -0.11168124056E+04  0.11482131336E+04  0.12509431740E+03 0.  0.
          5    1    3    3  502    0  0.80994093298E+02  0.21520642248E+02 -0.17315007056E+03  0.19240998032E+03  0.41800000000E+01 0.  1.
         -5    1    3    3    0  502  0.14446030850E+03  0.46634880862E+02 -0.94366233499E+03  0.95580315323E+03  0.41800000000E+01 0.  1.
        -11    1    1    2    0    0 -0.48549995606E+02 -0.37613684920E+02 -0.11486852280E+03  0.13025616644E+03  0.00000000000E+00 0.  1.
         11    1    1    2    0    0 -0.17690440619E+03 -0.30541838190E+02 -0.14033632135E+03  0.22786455604E+03  0.00000000000E+00 0. -1.
</event>
<event>
 7    1  0.2556591E-009  0.1223613E+03  0.7561462E-02  0.1239252E+00
          2   -1    0    0  501    0  0.00000000000E+00  0.00000000000E+00  0.18880741427E+03  0.18880741427E+03  0.00000000000E+00 0. -1.
         -2   -1    0    0    0  501 -0.00000000000E+00 -0.00000000000E+00 -0.11515288244E+03  0.11515288244E+03  0.00000000000E+00 0.  1.
         25    2    1    2    0    0 -0.72498997541E+01  0.89940978168E+02 -0.14534734665E+02  0.15492123321E+03  0.12508952549E+03 0.  0.
          5    1    3    3  502    0  0.31034997385E+02  0.92344078056E+02  0.23966378423E+02  0.10041145109E+03  0.41800000000E+01 0. -1.
         -5    1    3    3    0  502 -0.38284897139E+02 -0.24030998876E+01 -0.38501113088E+02  0.54509782122E+02  0.41800000000E+01 0. -1.
        -11    1    1    2    0    0  0.14634250929E+02  0.33749047406E+01 -0.60678620511E+01  0.16197846528E+02  0.00000000000E+00 0.  1.
         11    1    1    2    0    0 -0.73843511752E+01 -0.93315882908E+02  0.94257128540E+02  0.13284121697E+03  0.00000000000E+00 0. -1.
</event>
<event>
 7    1  0.2556591E-009  0.1346064E+03  0.7561462E-02  0.1220776E+00
         -1   -1    0    0    0  501 -0.00000000000E+00  0.00000000000E+00  0.14550797008E+02  0.14550797008E+02  0.00000000000E+00 0.  1.
          1   -1    0    0  501    0  0.00000000000E+00 -0.00000000000E+00 -0.13199950077E+04  0.13199950077E+04  0.00000000000E+00 0. -1.
         25    2    1    2    0    0 -0.42367810783E+02  0.76839063526E+02 -0.69267995800E+03  0.70933001162E+03  0.12507704860E+03 0.  0.
          5    1    3    3  502    0 -0.31405801103E+02 -0.26467108738E+02 -0.11094177701E+03  0.11837390960E+03  0.41800000000E+01 0.  1.
         -5    1    3    3    0  502 -0.10962009679E+02  0.10330617226E+03 -0.58173818099E+03  0.59095610201E+03  0.41800000000E+01 0.  1.
        -11    1    1    2    0    0  0.42765268693E+01 -0.84914019012E+02 -0.40358784166E+03  0.41244614830E+03  0.00000000000E+00 0. -1.
         11    1    1    2    0    0  0.38091283913E+02  0.80749554857E+01 -0.20917641103E+03  0.21276964480E+03  0.00000000000E+00 0.  1.
</event>
<event>
 7    1  0.2556591E-009  0.1215322E+03  0.7561462E-02  0.1240591E+00
          1   -1    0    0  501    0  0.00000000000E+00  0.00000000000E+00  0.48169998518E+03  0.48169998518E+03  0.00000000000E+00 0. -1.
         -1   -1    0    0    0  501 -0.00000000000E+00 -0.00000000000E+00 -0.41811447180E+02  0.41811447180E+02  0.00000000000E+00 0.  1.
         25    2    1    2    0    0 -0.12770321438E+02 -0.77335687467E+02  0.31340385631E+03  0.34642466459E+03  0.12507670216E+03 0.  0.
          5    1    3    3  502    0  0.32455849876E+02  0.14928161148E+02  0.14247432732E+03  0.14694433821E+03  0.41800000000E+01 0.  1.
         -5    1    3    3    0  502 -0.45226171314E+02 -0.92263848615E+02  0.17092952898E+03  0.19948032638E+03  0.41800000000E+01 0.  1.
        -11    1    1    2    0    0  0.40693638082E+02  0.35740310477E+02  0.17133886464E+02  0.56805915525E+02  0.00000000000E+00 0.  1.
         11    1    1    2    0    0 -0.27923316644E+02  0.41595376991E+02  0.10935079523E+03  0.12028085225E+03  0.00000000000E+00 0. -1.
</event>
<event>
 7    1  0.3029118E-009  0.1805035E+03  0.7561462E-02  0.1167317E+00
         -2   -1    0    0    0  501 -0.00000000000E+00  0.00000000000E+00  0.86363152837E+02  0.86363152837E+02  0.00000000000E+00 0.  1.
          2   -1    0    0  501    0  0.00000000000E+00 -0.00000000000E+00 -0.49584333439E+03  0.49584333439E+03  0.00000000000E+00 0. -1.
         25    2    1    2    0    0  0.14550090142E+03 -0.12917291936E+02 -0.75854638667E+02  0.20673288564E+03  0.12508873271E+03 0.  0.
          5    1    3    3  502    0  0.31952906781E+02  0.49530289033E+02 -0.58317004332E+01  0.59377764469E+02  0.41800000000E+01 0.  1.
         -5    1    3    3    0  502  0.11354799464E+03 -0.62447580969E+02 -0.70022938233E+02  0.14735512117E+03  0.41800000000E+01 0.  1.
        -11    1    1    2    0    0 -0.14876264126E+02  0.36599858522E+02 -0.77024854024E+02  0.86566050017E+02  0.00000000000E+00 0.  1.
         11    1    1    2    0    0 -0.13062463730E+03 -0.23682566585E+02 -0.25660068886E+03  0.28890755157E+03  0.00000000000E+00 0. -1.
</event>
<event>
 7    1  0.2556591E-009  0.1260645E+03  0.7561462E-02  0.1233415E+00
         -1   -1    0    0    0  501 -0.00000000000E+00  0.00000000000E+00  0.38701249133E+03  0.38701249133E+03  0.00000000000E+00 0. -1.
          1   -1    0    0  501    0  0.00000000000E+00 -0.00000000000E+00 -0.83270091368E+02  0.83270091368E+02  0.00000000000E+00 0.  1.
         25    2    1    2    0    0 -0.22476469616E+02  0.86930745824E+02  0.11497805604E+02  0.15440615865E+03  0.12508763344E+03 0.  0.
          5    1    3    3  502    0  0.43123231540E+02  0.65744136847E+02  0.27703140210E+02  0.83467604528E+02  0.41800000000E+01 0. -1.
         -5    1    3    3    0  502 -0.65599701156E+02  0.21186608977E+02 -0.16205334606E+02  0.70938554125E+02  0.41800000000E+01 0. -1.
        -11    1    1    2    0    0 -0.16443820927E+02 -0.40708907476E+02  0.51549298728E+02  0.67712218941E+02  0.00000000000E+00 0.  1.
         11    1    1    2    0    0  0.38920290543E+02 -0.46221838348E+02  0.24069529563E+03  0.24816420511E+03  0.00000000000E+00 0. -1.
</event>
<event>
 7    1  0.2556591E-009  0.1572543E+03  0.7561462E-02  0.1191832E+00
          2   -1    0    0  501    0  0.00000000000E+00  0.00000000000E+00  0.85479712643E+03  0.85479712643E+03  0.00000000000E+00 0. -1.
         -2   -1    0    0    0  501 -0.00000000000E+00 -0.00000000000E+00 -0.35750683460E+02  0.35750683460E+02  0.00000000000E+00 0.  1.
         25    2    1    2    0    0 -0.51383302121E+02 -0.12514414296E+03  0.48312458817E+03  0.51706452863E+03  0.12508020954E+03 0.  0.
          5    1    3    3  502    0  0.15498455458E+02 -0.10897729627E+03  0.35329250255E+03  0.37006663992E+03  0.41800000000E+01 0. -1.
         -5    1    3    3    0  502 -0.66881757579E+02 -0.16166846696E+02  0.12983208562E+03  0.14699788871E+03  0.41800000000E+01 0. -1.
        -11    1    1    2    0    0  0.14497492639E+02  0.42908872547E+02  0.29428525141E+02  0.54012838548E+02  0.00000000000E+00 0.  1.
         11    1    1    2    0    0  0.36885809482E+02  0.82235270415E+02  0.30649332965E+03  0.31947044271E+03  0.00000000000E+00 0. -1.
</event>
<event>
 7    1  0.2556591E-009  0.1191323E+03  0.7561462E-02  0.1244535E+00
          1   -1    0    0  501    0  0.00000000000E+00  0.00000000000E+00  0.39218098476E+02  0.39218098476E+02  0.00000000000E+00 0. -1.
         -1   -1    0    0    0  501 -0.00000000000E+00 -0.00000000000E+00 -0.51961612483E+03  0.51961612483E+03  0.00000000000E+00 0.  1.
         25    2    1    2    0    0 -0.41122389017E+02  0.68603587372E+02 -0.34742650176E+03  0.37782254488E+03  0.12508876134E+03 0.  0.
          5    1    3    3  502    0  0.99704272761E+01  0.90369923250E+02 -0.18632139861E+03  0.20736264955E+03  0.41800000000E+01 0.  1.
         -5    1    3    3    0  502 -0.51092816293E+02 -0.21766335878E+02 -0.16110510316E+03  0.17045989534E+03  0.41800000000E+01 0.  1.
        -11    1    1    2    0    0  0.14304061088E+02 -0.62416376363E+02 -0.13881755516E+03  0.15287486328E+03  0.00000000000E+00 0.  1.
         11    1    1    2    0    0  0.26818327929E+02 -0.61872110091E+01  0.58460305718E+01  0.28136815144E+02  0.00000000000E+00 0. -1.
</event>
<event>
 7    1  0.2556591E-009  0.1032260E+03  0.7561462E-02  0.1273655E+00
         -2   -1    0    0    0  501 -0.00000000000E+00  0.00000000000E+00  0.51944425477E+02  0.51944425477E+02  0.00000000000E+00 0. -1.
          2   -1    0    0  501    0  0.00000000000E+00 -0.00000000000E+00 -0.33106241401E+03  0.33106241401E+03  0.00000000000E+00 0.  1.
         25    2    1    2    0    0  0.55420328961E+02  0.47135039181E+02 -0.13447350249E+03  0.19754485245E+03  0.12509085130E+03 0.  0.
          5    1    3    3  502    0  0.69513847933E+02  0.44978281460E+02 -0.24322107506E+02  0.86395938394E+02  0.41800000000E+01 0.  1.
         -5    1    3    3    0  502 -0.14093518971E+02  0.21567577206E+01 -0.11015139498E+03  0.11114891406E+03  0.41800000000E+01 0.  1.
        -11    1    1    2    0    0  0.14245440219E+02 -0.35250817543E+02 -0.84507524068E+02  0.92666468200E+02  0.00000000000E+00 0.  1.
         11    1    1    2    0    0 -0.69665769180E+02 -0.11884221638E+02 -0.60136961980E+02  0.92795518834E+02  0.00000000000E+00 0. -1.
</event>
<event>
 7    1  0.2556591E-009  0.9215432E+02  0.7561462E-02  0.1297717E+00
         -2   -1    0    0    0  501 -0.00000000000E+00  0.00000000000E+00  0.26332531655E+03  0.26332531655E+03  0.00000000000E+00 0. -1.
          2   -1    0    0  501    0  0.00000000000E+00 -0.00000000000E+00 -0.61891210471E+02  0.61891210471E+02  0.00000000000E+00 0.  1.
         25    2    1    2    0    0  0.16950065201E+02 -0.62319820217E+02  0.97243117275E+02  0.17109764884E+03  0.12508843623E+03 0.  0.
          5    1    3    3  502    0  0.49622720228E+02 -0.41610977970E+02 -0.15557337445E+01  0.64913639229E+02  0.41800000000E+01 0.  1.
         -5    1    3    3    0  502 -0.32672655026E+02 -0.20708842247E+02  0.98798851020E+02  0.10618400961E+03  0.41800000000E+01 0.  1.
        -11    1    1    2    0    0 -0.10011387420E+02 -0.61076023500E+01 -0.13451799357E+02  0.17846052518E+02  0.00000000000E+00 0.  1.
         11    1    1    2    0    0 -0.69386777809E+01  0.68427422567E+02  0.11764278816E+03  0.13627282566E+03  0.00000000000E+00 0. -1.
</event>
<event>
 7    1  0.2556591E-009  0.9635442E+02  0.7561462E-02  0.1288154E+00
          1   -1    0    0  501    0  0.00000000000E+00  0.00000000000E+00  0.13485840260E+03  0.13485840260E+03  0.00000000000E+00 0. -1.
         -1   -1    0    0    0  501 -0.00000000000E+00 -0.00000000000E+00 -0.10204623943E+03  0.10204623943E+03  0.00000000000E+00 0.  1.
         25    2    1    2    0    0 -0.21693011950E+02  0.15152299254E+02  0.55573184005E+02  0.13941584184E+03  0.12509284246E+03 0.  0.
          5    1    3    3  502    0  0.48812530131E+02 -0.14682101393E+02  0.20429875644E+02  0.55073400276E+02  0.41800000000E+01 0.  1.
         -5    1    3    3    0  502 -0.70505542081E+02  0.29834400647E+02  0.35143308361E+02  0.84342441562E+02  0.41800000000E+01 0.  1.
        -11    1    1    2    0    0 -0.14806394974E+01 -0.34605162027E+02  0.23753858366E+02  0.41999468086E+02  0.00000000000E+00 0. -1.
         11    1    1    2    0    0  0.23173651448E+02  0.19452862773E+02 -0.46514879197E+02  0.55489332112E+02  0.00000000000E+00 0.  1.
</event>
<event>
 7    1  0.2556591E-009  0.1181808E+03  0.7561462E-02  0.1246129E+00
         -3   -1    0    0    0  501 -0.00000000000E+00  0.00000000000E+00  0.28431653408E+02  0.28431653408E+02  0.00000000000E+00 0.  1.
          3   -1    0    0  501    0  0.00000000000E+00 -0.00000000000E+00 -0.59998347360E+03  0.59998347360E+03  0.00000000000E+00 0. -1.
         25    2    1    2    0    0 -0.19393764488E+02 -0.68218197046E+02 -0.28866132805E+03  0.32248964090E+03  0.12507743867E+03 0.  0.
          5    1    3    3  502    0 -0.65255101259E+01  0.30782820549E+02 -0.13871283832E+03  0.14229858832E+03  0.41800000000E+01 0.  1.
         -5    1    3    3    0  502 -0.12868254362E+02 -0.99001017596E+02 -0.14994848973E+03  0.18019105257E+03  0.41800000000E+01 0.  1.
        -11    1    1    2    0    0 -0.17973591093E+02  0.64716479862E+02 -0.23859194545E+03  0.24786566760E+03  0.00000000000E+00 0. -1.
         11    1    1    2    0    0  0.37367355581E+02  0.35017171845E+01 -0.44298546691E+02  0.58059818509E+02  0.00000000000E+00 0.  1.
</event>
<event>
 7    1  0.2556591E-009  0.1102623E+03  0.7561462E-02  0.1260085E+00
          2   -1    0    0  501    0  0.00000000000E+00  0.00000000000E+00  0.26797195080E+04  0.26797195080E+04  0.00000000000E+00 0.  1.
         -2   -1    0    0    0  501 -0.00000000000E+00 -0.00000000000E+00 -0.75257811469E+01  0.75257811469E+01  0.00000000000E+00 0. -1.
         25    2    1    2    0    0  0.37721556581E+02 -0.22370023496E+01  0.22538491787E+04  0.22576342621E+04  0.12509364829E+03 0.  0.
          5    1    3    3  502    0  0.36653131199E+02 -0.57104752916E+02  0.85323459212E+03  0.85593875156E+03  0.41800000000E+01 0. -1.
         -5    1    3    3    0  502  0.10684253814E+01  0.54867750566E+02  0.14006145866E+04  0.14016955105E+04  0.41800000000E+01 0. -1.
        -11    1    1    2    0    0  0.22015274701E+02 -0.23727283995E+02  0.12507918226E+03  0.12919929629E+03  0.00000000000E+00 0. -1.
         11    1    1    2    0    0 -0.59736831282E+02  0.25964286345E+02  0.29326536590E+03  0.30041173082E+03  0.00000000000E+00 0.  1.
</event>
<event>
 7    1  0.2556591E-009  0.1229617E+03  0.7561462E-02  0.1238290E+00
          1   -1    0    0  501    0  0.00000000000E+00  0.00000000000E+00  0.10029608600E+04  0.10029608600E+04  0.00000000000E+00 0.  1.
         -1   -1    0    0    0  501 -0.00000000000E+00 -0.00000000000E+00 -0.22513171352E+02  0.22513171352E+02  0.00000000000E+00 0. -1.
         25    2    1    2    0    0 -0.48374453018E+02 -0.91297262074E+02  0.57301742207E+03  0.59554430434E+03  0.12509506250E+03 0.  0.
          5    1    3    3  502    0  0.75638186086E+01  0.21991539041E+01  0.31888453049E+03  0.31900919081E+03  0.41800000000E+01 0. -1.
         -5    1    3    3    0  502 -0.55938271627E+02 -0.93496415979E+02  0.25413289158E+03  0.27653511353E+03  0.41800000000E+01 0. -1.
        -11    1    1    2    0    0  0.39060080886E+02  0.29880663268E+01  0.20751342935E+03  0.21117869642E+03  0.00000000000E+00 0.  1.
         11    1    1    2    0    0  0.93143721317E+01  0.88309195748E+02  0.19991683721E+03  0.21875103059E+03  0.00000000000E+00 0. -1.
</event>
<event>
 7    1  0.2556591E-009  0.1273709E+03  0.7561462E-02  0.1231410E+00
          1   -1    0    0  501    0  0.00000000000E+00  0.00000000000E+00  0.70502359721E+02  0.70502359721E+02  0.00000000000E+00 0. -1.
         -1   -1    0    0    0  501 -0.00000000000E+00 -0.00000000000E+00 -0.29953196576E+03  0.29953196576E+03  0.00000000000E+00 0.  1.
         25    2    1    2    0    0  0.68995471398E+02  0.26265832427E+01 -0.21242017697E+03  0.25600528628E+03  0.12509636689E+03 0.  0.
          5    1    3    3  502    0  0.16733034333E+02  0.61193599592E+02 -0.82491324745E+02  0.10414865399E+03  0.41800000000E+01 0. -1.
         -5    1    3    3    0  502  0.52262437065E+02 -0.58567016350E+02 -0.12992885223E+03  0.15185663230E+03  0.41800000000E+01 0. -1.
        -11    1    1    2    0    0 -0.49448111969E+02  0.41333189679E+02 -0.13295485014E+02  0.65805153811E+02  0.00000000000E+00 0.  1.
         11    1    1    2    0    0 -0.19547359429E+02 -0.43959772922E+02 -0.33139440484E+01  0.48223885380E+02  0.00000000000E+00 0. -1.
</event>
<event>
 7    1  0.2556591E-009  0.7311251E+02  0.7561462E-02  0.1349818E+00
         -2   -1    0    0    0  501 -0.00000000000E+00  0.00000000000E+00  0.77142988897E+01  0.77142988897E+01  0.00000000000E+00 0.  1.
          2   -1    0    0  501    0  0.00000000000E+00 -0.00000000000E+00 -0.18593897939E+04  0.18593897939E+04  0.00000000000E+00 0. -1.
         25    2    1    2    0    0 -0.16033239944E+02 -0.12895328845E+02 -0.14164308401E+04  0.14220925818E+04  0.12509049681E+03 0.  0.
          5    1    3    3  502    0  0.59148386214E+01  0.15722143671E+02 -0.26286235380E+02  0.31473952532E+02  0.41800000000E+01 0.  1.
         -5    1    3    3    0  502 -0.21948078565E+02 -0.28617472516E+02 -0.13901446047E+04  0.13906186293E+04  0.41800000000E+01 0.  1.
        -11    1    1    2    0    0  0.35756054842E+02  0.43431668964E+02 -0.25353990571E+03  0.25970615918E+03  0.00000000000E+00 0.  1.
         11    1    1    2    0    0 -0.19722814898E+02 -0.30536340120E+02 -0.18170474923E+03  0.18530535175E+03  0.00000000000E+00 0. -1.
</event>
<event>
 7    1  0.2556591E-009  0.1166256E+03  0.7561462E-02  0.1248770E+00
          2   -1    0    0  501    0  0.00000000000E+00  0.00000000000E+00  0.30674354454E+03  0.30674354454E+03  0.00000000000E+00 0. -1.
         -2   -1    0    0    0  501 -0.00000000000E+00 -0.00000000000E+00 -0.90232018490E+02  0.90232018490E+02  0.00000000000E+00 0.  1.
         25    2    1    2    0    0  0.20756808665E+02  0.81859087852E+02  0.21196198187E+03  0.26020592819E+03  0.12508991942E+03 0.  0.
          5    1    3    3  502    0  0.47112962373E+02 -0.13531955235E+02  0.48558751148E+02  0.69124306500E+02  0.41800000000E+01 0.  1.
         -5    1    3    3    0  502 -0.26356153708E+02  0.95391043087E+02  0.16340323072E+03  0.19108162169E+03  0.41800000000E+01 0.  1.
        -11    1    1    2    0    0 -0.17872838920E+02 -0.51634276358E+02 -0.50177559275E+02  0.74184394052E+02  0.00000000000E+00 0.  1.
         11    1    1    2    0    0 -0.28839697455E+01 -0.30224811493E+02  0.54727103460E+02  0.62585240787E+02  0.00000000000E+00 0. -1.
</event>
<event>
 7    1  0.2556591E-009  0.1171005E+03  0.7561462E-02  0.1247958E+00
         -2   -1    0    0    0  501 -0.00000000000E+00  0.00000000000E+00  0.18638976607E+03  0.18638976607E+03  0.00000000000E+00 0.  1.
          2   -1    0    0  501    0  0.00000000000E+00 -0.00000000000E+00 -0.11105603249E+03  0.11105603249E+03  0.00000000000E+00 0. -1.
         25    2    1    2    0    0  0.72420501384E+02 -0.38885372553E+02  0.87845563363E+02  0.17355377264E+03  0.12508903940E+03 0.  0.
          5    1    3    3  502    0  0.73806047644E+02  0.29467761887E+02  0.59775955729E+02  0.99530492528E+02  0.41800000000E+01 0. -1.
         -5    1    3    3    0  502 -0.13855462600E+01 -0.68353134441E+02  0.28069607634E+02  0.74023280115E+02  0.41800000000E+01 0. -1.
        -11    1    1    2    0    0 -0.10965688463E+02  0.18263282336E+02 -0.46173368945E+02  0.50850504471E+02  0.00000000000E+00 0. -1.
         11    1    1    2    0    0 -0.61454812921E+02  0.20622090217E+02  0.33661539160E+02  0.73041521443E+02  0.00000000000E+00 0.  1.
</event>
<event>
 7    1  0.2556591E-009  0.2016873E+03  0.7561462E-02  0.1148323E+00
         -2   -1    0    0    0  501 -0.00000000000E+00  0.00000000000E+00  0.46341497292E+02  0.46341497292E+02  0.00000000000E+00 0.  1.
          2   -1    0    0  501    0  0.00000000000E+00 -0.00000000000E+00 -0.10522657273E+04  0.10522657273E+04  0.00000000000E+00 0. -1.
         25    2    1    2    0    0 -0.11887575595E+02 -0.19043494212E+03 -0.56005648465E+03  0.60474439065E+03  0.12508289409E+03 0.  0.
          5    1    3    3  502    0 -0.25665314834E+02 -0.16974872292E+03 -0.31823894290E+03  0.36161697208E+03  0.41800000000E+01 0. -1.
         -5    1    3    3    0  502  0.13777739239E+02 -0.20686219197E+02 -0.24181754175E+03  0.24312741857E+03  0.41800000000E+01 0. -1.
        -11    1    1    2    0    0 -0.33188688548E+02  0.10058872352E+03 -0.17051522470E+03  0.20073620053E+03  0.00000000000E+00 0. -1.
         11    1    1    2    0    0  0.45076264142E+02  0.89846218597E+02 -0.27535252068E+03  0.29312663344E+03  0.00000000000E+00 0.  1.
</event>
<event>
 7    1  0.2556591E-009  0.1457384E+03  0.7561462E-02  0.1205810E+00
          1   -1    0    0  501    0  0.00000000000E+00  0.00000000000E+00  0.20506347600E+02  0.20506347600E+02  0.00000000000E+00 0. -1.
         -1   -1    0    0    0  501 -0.00000000000E+00 -0.00000000000E+00 -0.11653927204E+04  0.11653927204E+04  0.00000000000E+00 0.  1.
         25    2    1    2    0    0  0.26015937840E+02 -0.10702252369E+03 -0.64709648487E+03  0.66821549875E+03  0.12508973756E+03 0.  0.
          5    1    3    3  502    0  0.23701683793E+02 -0.12751461707E+03 -0.62233956692E+03  0.63572459158E+03  0.41800000000E+01 0. -1.
         -5    1    3    3    0  502  0.23142540469E+01  0.20492093376E+02 -0.24756917947E+02  0.32490907174E+02  0.41800000000E+01 0. -1.
        -11    1    1    2    0    0  0.19024834620E+02  0.90837772625E+02 -0.36193735265E+03  0.37364701593E+03  0.00000000000E+00 0.  1.
         11    1    1    2    0    0 -0.45040772460E+02  0.16184751068E+02 -0.13585253533E+03  0.14403655337E+03  0.00000000000E+00 0. -1.
</event>
<event>
 7    1  0.2556591E-009  0.2597825E+03  0.7561462E-02  0.1107274E+00
          1   -1    0    0  501    0  0.00000000000E+00  0.00000000000E+00  0.89070046438E+02  0.89070046438E+02  0.00000000000E+00 0. -1.
         -1   -1    0    0    0  501 -0.00000000000E+00 -0.00000000000E+00 -0.82866259444E+03  0.82866259444E+03  0.00000000000E+00 0.  1.
         25    2    1    2    0    0 -0.15636761652E+03  0.17968567851E+03 -0.49618027486E+03  0.56443267147E+03  0.12510635838E+03 0.  0.
          5    1    3    3  502    0 -0.11046062628E+03  0.18810907071E+03 -0.44113626478E+03  0.49214352474E+03  0.41800000000E+01 0.  1.
         -5    1    3    3    0  502 -0.45906990247E+02 -0.84233921978E+01 -0.55044010085E+02  0.72289146736E+02  0.41800000000E+01 0.  1.
        -11    1    1    2    0    0  0.13593542515E+02 -0.78152310040E+02 -0.94398727768E+02  0.12330323502E+03  0.00000000000E+00 0. -1.
         11    1    1    2    0    0  0.14277407401E+03 -0.10153336847E+03 -0.14901354537E+03  0.22999673438E+03  0.00000000000E+00 0.  1.
</event>
<event>
 7    1  0.2556591E-009  0.1208791E+03  0.7561462E-02  0.1241654E+00
          1   -1    0    0  501    0  0.00000000000E+00  0.00000000000E+00  0.20327155277E+03  0.20327155277E+03  0.00000000000E+00 0. -1.
         -1   -1    0    0    0  501 -0.00000000000E+00 -0.00000000000E+00 -0.86693926682E+02  0.86693926682E+02  0.00000000000E+00 0.  1.
         25    2    1    2    0    0  0.48842307463E+02  0.53786363079E+02  0.40317102326E+02  0.15016864079E+03  0.12508640248E+03 0.  0.
          5    1    3    3  502    0  0.13649740267E+02  0.83912126648E+02  0.55060459380E+02  0.10137399566E+03  0.41800000000E+01 0.  1.
         -5    1    3    3    0  502  0.35192567196E+02 -0.30125763569E+02 -0.14743357053E+02  0.48794645133E+02  0.41800000000E+01 0.  1.
        -11    1    1    2    0    0  0.11339279540E+02 -0.48392974721E+02  0.58612020669E+02  0.76849386659E+02  0.00000000000E+00 0.  1.
         11    1    1    2    0    0 -0.60181587004E+02 -0.53933883581E+01  0.17648503090E+02  0.62947452003E+02  0.00000000000E+00 0. -1.
</event>
<event>
 7    1  0.2556591E-009  0.1750445E+03  0.7561462E-02  0.1172687E+00
         -2   -1    0    0    0  501 -0.00000000000E+00  0.00000000000E+00  0.47606843330E+03  0.47606843330E+03  0.00000000000E+00 0.  1.
          2   -1    0    0  501    0  0.00000000000E+00 -0.00000000000E+00 -0.10624659287E+03  0.10624659287E+03  0.00000000000E+00 0. -1.
         25    2    1    2    0    0 -0.41637137579E+02 -0.16579421430E+03  0.31733192360E+03  0.38153416221E+03  0.12508954584E+03 0.  0.
          5    1    3    3  502    0 -0.90588487176E+01 -0.54847386909E+01 -0.10272248313E+02  0.15334163948E+02  0.41800000000E+01 0. -1.
         -5    1    3    3    0  502 -0.32578288862E+02 -0.16030947561E+03  0.32760417191E+03  0.36619999826E+03  0.41800000000E+01 0. -1.
        -11    1    1    2    0    0  0.20838284261E+02  0.14174632911E+03  0.75106463723E+02  0.16176290304E+03  0.00000000000E+00 0. -1.
         11    1    1    2    0    0  0.20798853318E+02  0.24047885192E+02 -0.22616546885E+02  0.39017960923E+02  0.00000000000E+00 0.  1.
</event>
<event>
 7    1  0.2556591E-009  0.1017582E+03  0.7561462E-02  0.1276642E+00
         -2   -1    0    0    0  501 -0.00000000000E+00  0.00000000000E+00  0.59400165891E+02  0.59400165891E+02  0.00000000000E+00 0.  1.
          2   -1    0    0  501    0  0.00000000000E+00 -0.00000000000E+00 -0.36650498206E+03  0.36650498206E+03  0.00000000000E+00 0. -1.
         25    2    1    2    0    0 -0.50899868704E+02  0.32948332575E+02 -0.48464441970E+02  0.14721948480E+03  0.12509350629E+03 0.  0.
          5    1    3    3  502    0 -0.50097969676E+02  0.65727443762E+02 -0.69479928958E+02  0.10805015667E+03  0.41800000000E+01 0. -1.
         -5    1    3    3    0  502 -0.80189902898E+00 -0.32779111188E+02  0.21015486988E+02  0.39169328124E+02  0.41800000000E+01 0. -1.
        -11    1    1    2    0    0  0.46833607815E+02 -0.50981134265E+02 -0.24772904447E+03  0.25722002711E+03  0.00000000000E+00 0. -1.
         11    1    1    2    0    0  0.40662608894E+01  0.18032801690E+02 -0.10911329733E+02  0.21465636048E+02  0.00000000000E+00 0.  1.
</event>
<event>
 7    1  0.2556591E-009  0.9503611E+02  0.7561462E-02  0.1291095E+00
         -2   -1    0    0    0  501 -0.00000000000E+00  0.00000000000E+00  0.12589613979E+03  0.12589613979E+03  0.00000000000E+00 0. -1.
          2   -1    0    0  501    0  0.00000000000E+00 -0.00000000000E+00 -0.10133041527E+03  0.10133041527E+03  0.00000000000E+00 0.  1.
         25    2    1    2    0    0 -0.56878571841E+01  0.16230700860E+01  0.43091698389E+02  0.13243609136E+03  0.12508971880E+03 0.  0.
          5    1    3    3  502    0  0.59012651246E+02  0.34889888484E+01  0.29355372733E+02  0.66135288300E+02  0.41800000000E+01 0.  1.
         -5    1    3    3    0  502 -0.64700508430E+02 -0.18659187625E+01  0.13736325657E+02  0.66300803061E+02  0.41800000000E+01 0.  1.
        -11    1    1    2    0    0 -0.27240842252E+02  0.12677987318E+02 -0.42187844951E+02  0.51793909977E+02  0.00000000000E+00 0.  1.
         11    1    1    2    0    0  0.32928699436E+02 -0.14301057404E+02  0.23661871078E+02  0.42996553727E+02  0.00000000000E+00 0. -1.
</event>
<event>
 7    1  0.2556591E-009  0.9688282E+02  0.7561462E-02  0.1286991E+00
          3   -1    0    0  501    0  0.00000000000E+00  0.00000000000E+00  0.23291317158E+03  0.23291317158E+03  0.00000000000E+00 0. -1.
         -3   -1    0    0    0  501 -0.00000000000E+00 -0.00000000000E+00 -0.51139173759E+02  0.51139173759E+02  0.00000000000E+00 0.  1.
         25    2    1    2    0    0  0.49535582390E+01  0.17251546211E+02  0.10891978131E+03  0.16683384339E+03  0.12509140239E+03 0.  0.
          5    1    3    3  502    0 -0.34444468023E+02  0.46105255070E+02  0.10219788279E+03  0.11736266685E+03  0.41800000000E+01 0.  1.
         -5    1    3    3    0  502  0.39398026262E+02 -0.28853708859E+02  0.67218985122E+01  0.49471176536E+02  0.41800000000E+01 0.  1.
        -11    1    1    2    0    0  0.40184938956E+02 -0.82993085117E+01  0.53183579036E+02  0.67172918053E+02  0.00000000000E+00 0. -1.
         11    1    1    2    0    0 -0.45138497195E+02 -0.89522376993E+01  0.19670637475E+02  0.50045583896E+02  0.00000000000E+00 0.  1.
</event>
<event>
 7    1  0.2556591E-009  0.1133785E+03  0.7561462E-02  0.1254438E+00
         -1   -1    0    0    0  501 -0.00000000000E+00  0.00000000000E+00  0.25376352733E+03  0.25376352733E+03  0.00000000000E+00 0.  1.
          1   -1    0    0  501    0  0.00000000000E+00 -0.00000000000E+00 -0.65854880872E+02  0.65854880872E+02  0.00000000000E+00 0. -1.
         25    2    1    2    0    0 -0.16311852115E+02  0.67305479228E+02  0.95381643525E+02  0.17187578088E+03  0.12509005587E+03 0.  0.
          5    1    3    3  502    0  0.38268111749E+02  0.69461468693E+01 -0.83180980421E+01  0.39992005303E+02  0.41800000000E+01 0.  1.
         -5    1    3    3    0  502 -0.54579963864E+02  0.60359332359E+02  0.10369974157E+03  0.13188377557E+03  0.41800000000E+01 0.  1.
        -11    1    1    2    0    0 -0.17106543440E+02 -0.70536290982E+02  0.87675014580E+02  0.11381963959E+03  0.00000000000E+00 0.  1.
         11    1    1    2    0    0  0.33418395555E+02  0.32308117538E+01  0.48519883514E+01  0.33922987737E+02  0.00000000000E+00 0. -1.
</event>
<event>
 7    1  0.2556591E-009  0.8160771E+02  0.7561462E-02  0.1324550E+00
          1   -1    0    0  501    0  0.00000000000E+00  0.00000000000E+00  0.23619395973E+03  0.23619395973E+03  0.00000000000E+00 0. -1.
         -1   -1    0    0    0  501 -0.00000000000E+00 -0.00000000000E+00 -0.66058331923E+02  0.66058331923E+02  0.00000000000E+00 0.  1.
         25    2    1    2    0    0 -0.30490186114E+02  0.29629082351E+02  0.14915804094E+03  0.19925860235E+03  0.12509330703E+03 0.  0.
          5    1    3    3  502    0 -0.42448686290E+02  0.16274224894E+02  0.16729791343E+03  0.17341512507E+03  0.41800000000E+01 0. -1.
         -5    1    3    3    0  502  0.11958500175E+02  0.13354857457E+02 -0.18139872490E+02  0.25843477284E+02  0.41800000000E+01 0. -1.
        -11    1    1    2    0    0  0.35743636691E+02  0.25416659936E+02  0.18688043657E-01  0.43859030033E+02  0.00000000000E+00 0.  1.
         11    1    1    2    0    0 -0.52534505768E+01 -0.55045742287E+02  0.20958898820E+02  0.59134659267E+02  0.00000000000E+00 0. -1.
</event>
<event>
 7    1  0.2556591E-009  0.1617251E+03  0.7561462E-02  0.1186763E+00
         -2   -1    0    0    0  501 -0.00000000000E+00  0.00000000000E+00  0.35263964095E+02  0.35263964095E+02  0.00000000000E+00 0.  1.
          2   -1    0    0  501    0  0.00000000000E+00 -0.00000000000E+00 -0.86472413528E+03  0.86472413528E+03  0.00000000000E+00 0. -1.
         25    2    1    2    0    0  0.69678796990E+02  0.83424880836E+02 -0.27610049059E+03  0.32201488074E+03  0.12508899640E+03 0.  0.
          5    1    3    3  502    0  0.97994893819E+02  0.42048545014E+02 -0.13419903597E+03  0.17145825441E+03  0.41800000000E+01 0. -1.
         -5    1    3    3    0  502 -0.28316096829E+02  0.41376335821E+02 -0.14190145463E+03  0.15055662632E+03  0.41800000000E+01 0. -1.
        -11    1    1    2    0    0 -0.84047345203E+02 -0.23471267233E+01 -0.25834058131E+03  0.27167870950E+03  0.00000000000E+00 0.  1.
         11    1    1    2    0    0  0.14368548213E+02 -0.81077754112E+02 -0.29501909928E+03  0.30629450914E+03  0.00000000000E+00 0. -1.
</event>
<event>
 7    1  0.2556591E-009  0.9212093E+02  0.7561462E-02  0.1297795E+00
          1   -1    0    0  501    0  0.00000000000E+00  0.00000000000E+00  0.41426504423E+02  0.41426504423E+02  0.00000000000E+00 0. -1.
         -1   -1    0    0    0  501 -0.00000000000E+00 -0.00000000000E+00 -0.34479298947E+03  0.34479298947E+03  0.00000000000E+00 0.  1.
         25    2    1    2    0    0  0.26730169814E+02 -0.22090477139E+02 -0.10972762423E+03  0.16996903671E+03  0.12508729256E+03 0.  0.
          5    1    3    3  502    0  0.59490727854E+02  0.12671010255E+02 -0.13482899949E+02  0.62441670322E+02  0.41800000000E+01 0. -1.
         -5    1    3    3    0  502 -0.32760558040E+02 -0.34761487395E+02 -0.96244724285E+02  0.10752736638E+03  0.41800000000E+01 0. -1.
        -11    1    1    2    0    0 -0.37720479347E+02 -0.11938539041E+02 -0.32530161889E+02  0.51220842527E+02  0.00000000000E+00 0. -1.
         11    1    1    2    0    0  0.10990309533E+02  0.34029016181E+02 -0.16110869893E+03  0.16502961466E+03  0.00000000000E+00 0.  1.
</event>
<event>
 7    1  0.2556591E-009  0.1028827E+03  0.7561462E-02  0.1274348E+00
          1   -1    0    0  501    0  0.00000000000E+00  0.00000000000E+00  0.41174906346E+03  0.41174906346E+03  0.00000000000E+00 0. -1.
         -1   -1    0    0    0  501 -0.00000000000E+00 -0.00000000000E+00 -0.29591784722E+02  0.29591784722E+02  0.00000000000E+00 0.  1.
         25    2    1    2    0    0 -0.89695582972E+01  0.16303566033E+02  0.19687386324E+03  0.23398530320E+03  0.12507415739E+03 0.  0.
          5    1    3    3  502    0  0.19950152663E+01 -0.54018701083E+02  0.99344534245E+02  0.11317600911E+03  0.41800000000E+01 0. -1.
         -5    1    3    3    0  502 -0.10964573563E+02  0.70322267116E+02  0.97529328991E+02  0.12080929409E+03  0.41800000000E+01 0. -1.
        -11    1    1    2    0    0  0.55640927506E+01  0.31672266591E+02  0.13073282831E+03  0.13462972925E+03  0.00000000000E+00 0.  1.
         11    1    1    2    0    0  0.34054655466E+01 -0.47975832624E+02  0.54550587186E+02  0.72725815732E+02  0.00000000000E+00 0. -1.
</event>
<event>
 7    1  0.2556591E-009  0.1677252E+03  0.7561462E-02  0.1180241E+00
          1   -1    0    0  501    0  0.00000000000E+00  0.00000000000E+00  0.42950925482E+02  0.42950925482E+02  0.00000000000E+00 0. -1.
         -1   -1    0    0    0  501 -0.00000000000E+00 -0.00000000000E+00 -0.10655270427E+04  0.10655270427E+04  0.00000000000E+00 0.  1.
         25    2    1    2    0    0 -0.88802879987E+02 -0.13937737234E+03 -0.74303005556E+03  0.77139715608E+03  0.12509158857E+03 0.  0.
          5    1    3    3  502    0 -0.17404175084E+02 -0.41041278160E+02 -0.47337595367E+02  0.65158362153E+02  0.41800000000E+01 0.  1.
         -5    1    3    3    0  502 -0.71398704903E+02 -0.98336094181E+02 -0.69569246019E+03  0.70623879392E+03  0.41800000000E+01 0.  1.
        -11    1    1    2    0    0  0.56126856382E+02  0.54935033023E+02 -0.20589242852E+03  0.22036282350E+03  0.00000000000E+00 0.  1.
         11    1    1    2    0    0  0.32676023605E+02  0.84442339318E+02 -0.73653633146E+02  0.11671798860E+03  0.00000000000E+00 0. -1.
</event>
<event>
 7    1  0.2556591E-009  0.2351803E+03  0.7561462E-02  0.1123046E+00
         -3   -1    0    0    0  501 -0.00000000000E+00  0.00000000000E+00  0.17295275921E+03  0.17295275921E+03  0.00000000000E+00 0.  1.
          3   -1    0    0  501    0  0.00000000000E+00 -0.00000000000E+00 -0.36518301784E+03  0.36518301784E+03  0.00000000000E+00 0. -1.
         25    2    1    2    0    0  0.15963182110E+03  0.15303246616E+03 -0.44012578680E+02  0.25784943934E+03  0.12509185537E+03 0.  0.
          5    1    3    3  502    0  0.10071790885E+03  0.13912320150E+03 -0.77576711376E+02  0.18850724364E+03  0.41800000000E+01 0. -1.
         -5    1    3    3    0  502  0.58913912257E+02  0.13909264660E+02  0.33564132696E+02  0.69342195699E+02  0.41800000000E+01 0. -1.
        -11    1    1    2    0    0 -0.22313228244E+02 -0.78555283109E+02 -0.52246217427E+02  0.96945757485E+02  0.00000000000E+00 0.  1.
         11    1    1    2    0    0 -0.13731859286E+03 -0.74477183047E+02 -0.95971462526E+02  0.18334058023E+03  0.00000000000E+00 0. -1.
</event>
<event>
 7    1  0.2556591E-009  0.1812079E+03  0.7561462E-02  0.1166639E+00
          1   -1    0    0  501    0  0.00000000000E+00  0.00000000000E+00  0.27314398519E+03  0.27314398519E+03  0.00000000000E+00 0. -1.
         -1   -1    0    0    0  501 -0.00000000000E+00 -0.00000000000E+00 -0.12516343767E+03  0.12516343767E+03  0.00000000000E+00 0.  1.
         25    2    1    2    0    0 -0.62070679273E+02 -0.13430696300E+03  0.97795796436E+02  0.21703075799E+03  0.12508877879E+03 0.  0.
          5    1    3    3  502    0 -0.25193637940E+02 -0.14691297328E+03  0.54841255687E+02  0.15888101471E+03  0.41800000000E+01 0. -1.
         -5    1    3    3    0  502 -0.36877041332E+02  0.12606010279E+02  0.42954540748E+02  0.58149743280E+02  0.41800000000E+01 0. -1.
        -11    1    1    2    0    0  0.97717331951E+01  0.11929317376E+03  0.31827416660E+02  0.12385205903E+03  0.00000000000E+00 0.  1.
         11    1    1    2    0    0  0.52298946078E+02  0.15013789246E+02  0.18357334432E+02  0.57424605839E+02  0.00000000000E+00 0. -1.
</event>
<event>
 7    1  0.2556591E-009  0.1059296E+03  0.7561462E-02  0.1268299E+00
          1   -1    0    0  501    0  0.00000000000E+00  0.00000000000E+00  0.66901971422E+02  0.66901971422E+02  0.00000000000E+00 0. -1.
         -1   -1    0    0    0  501 -0.00000000000E+00 -0.00000000000E+00 -0.25724196627E+03  0.25724196627E+03  0.00000000000E+00 0.  1.
         25    2    1    2    0    0 -0.60973704976E+02 -0.12113351464E+02 -0.58156797989E+02  0.15130706789E+03  0.12508832742E+03 0.  0.
          5    1    3    3  502    0 -0.76021437358E+02 -0.27653549335E+02  0.81729113883E+01  0.81414044301E+02  0.41800000000E+01 0. -1.
         -5    1    3    3    0  502  0.15047732383E+02  0.15540197871E+02 -0.66329709377E+02  0.69893023585E+02  0.41800000000E+01 0. -1.
        -11    1    1    2    0    0  0.98540736009E+01  0.46293525088E+02 -0.76049835104E+02  0.89575502516E+02  0.00000000000E+00 0.  1.
         11    1    1    2    0    0  0.51119631375E+02 -0.34180173624E+02 -0.56133361750E+02  0.83261367286E+02  0.00000000000E+00 0. -1.
</event>
<event>
 7    1  0.2556591E-009  0.9074207E+02  0.7561462E-02  0.1301065E+00
         -3   -1    0    0    0  501 -0.00000000000E+00  0.00000000000E+00  0.80442345948E+02  0.80442345948E+02  0.00000000000E+00 0.  1.
          3   -1    0    0  501    0  0.00000000000E+00 -0.00000000000E+00 -0.22015499117E+03  0.22015499117E+03  0.00000000000E+00 0. -1.
         25    2    1    2    0    0 -0.53430825152E+02 -0.59932911093E+01 -0.13195298167E+03  0.18960532310E+03  0.12509123294E+03 0.  0.
          5    1    3    3  502    0 -0.81065322126E+02 -0.28689073111E+02 -0.12675546168E+03  0.15322881202E+03  0.41800000000E+01 0.  1.
         -5    1    3    3    0  502  0.27634496975E+02  0.22695782002E+02 -0.51975199902E+01  0.36376511072E+02  0.41800000000E+01 0.  1.
        -11    1    1    2    0    0  0.27859706803E+02  0.15766974981E+02  0.42829599285E+02  0.53470883087E+02  0.00000000000E+00 0.  1.
         11    1    1    2    0    0  0.25571118349E+02 -0.97736838719E+01 -0.50589262830E+02  0.57521130932E+02  0.00000000000E+00 0. -1.
</event>
<event>
 7    1  0.2556591E-009  0.8172510E+02  0.7561462E-02  0.1324226E+00
          2   -1    0    0  501    0  0.00000000000E+00  0.00000000000E+00  0.10325051622E+04  0.10325051622E+04  0.00000000000E+00 0. -1.
         -2   -1    0    0    0  501 -0.00000000000E+00 -0.00000000000E+00 -0.19316777771E+02  0.19316777771E+02  0.00000000000E+00 0.  1.
         25    2    1    2    0    0  0.43950611870E+02 -0.43745206892E+02  0.80063703973E+03  0.81271961366E+03  0.12509277212E+03 0.  0.
          5    1    3    3  502    0  0.52622014187E+02 -0.21227404812E+02  0.77564639133E+03  0.77773033622E+03  0.41800000000E+01 0. -1.
         -5    1    3    3    0  502 -0.86714023175E+01 -0.22517802080E+02  0.24990648402E+02  0.34989277447E+02  0.41800000000E+01 0. -1.
        -11    1    1    2    0    0 -0.56057911042E+02  0.29420505987E+02  0.21098773344E+03  0.22028136377E+03  0.00000000000E+00 0. -1.
         11    1    1    2    0    0  0.12107299173E+02  0.14324700904E+02  0.15636112204E+01  0.18820962497E+02  0.00000000000E+00 0.  1.
</event>
<event>
 7    1  0.2556591E-009  0.1335282E+03  0.7561462E-02  0.1222312E+00
         -3   -1    0    0    0  501 -0.00000000000E+00  0.00000000000E+00  0.10800571715E+03  0.10800571715E+03  0.00000000000E+00 0.  1.
          3   -1    0    0  501    0  0.00000000000E+00 -0.00000000000E+00 -0.41661315843E+03  0.41661315843E+03  0.00000000000E+00 0. -1.
         25    2    1    2    0    0 -0.12164571084E+03  0.42439538886E+02 -0.31667560886E+03  0.36404476809E+03  0.12508540482E+03 0.  0.
          5    1    3    3  502    0 -0.26562276149E+02  0.78118685001E+01  0.35127581863E+01  0.28220412360E+02  0.41800000000E+01 0.  1.
         -5    1    3    3    0  502 -0.95083434695E+02  0.34627670386E+02 -0.32018836705E+03  0.33582435573E+03  0.41800000000E+01 0.  1.
        -11    1    1    2    0    0  0.75679570587E+02 -0.69308657740E+00 -0.36614608987E+02  0.84074415636E+02  0.00000000000E+00 0. -1.
         11    1    1    2    0    0  0.45966140256E+02 -0.41746452309E+02  0.44682776569E+02  0.76499691845E+02  0.00000000000E+00 0.  1.
</event>
<event>
 7    1  0.2556591E-009  0.7927102E+02  0.7561462E-02  0.1331133E+00
         -2   -1    0    0    0  501 -0.00000000000E+00  0.00000000000E+00  0.10777601545E+03  0.10777601545E+03  0.00000000000E+00 0.  1.
          2   -1    0    0  501    0  0.00000000000E+00 -0.00000000000E+00 -0.15529016459E+03  0.15529016459E+03  0.00000000000E+00 0. -1.
         25    2    1    2    0    0  0.51868356012E+02  0.77832688710E+01  0.22596226724E+02  0.13751081354E+03  0.12509088195E+03 0.  0.
          5    1    3    3  502    0  0.23322931301E+02  0.20441340541E+02  0.72232876107E+02  0.78720190030E+02  0.41800000000E+01 0.  1.
         -5    1    3    3    0  502  0.28545424711E+02 -0.12658071670E+02 -0.49636649383E+02  0.58790623507E+02  0.41800000000E+01 0.  1.
        -11    1    1    2    0    0 -0.70253013009E+02  0.90294007513E+01 -0.27075316753E+02  0.75829339257E+02  0.00000000000E+00 0.  1.
         11    1    1    2    0    0  0.18384656997E+02 -0.16812669622E+02 -0.43035059109E+02  0.49726027242E+02  0.00000000000E+00 0. -1.
</event>
<event>
 7    1  0.2556591E-009  0.8341829E+02  0.7561462E-02  0.1319621E+00
         -2   -1    0    0    0  501 -0.00000000000E+00  0.00000000000E+00  0.10789016621E+03  0.10789016621E+03  0.00000000000E+00 0.  1.
          2   -1    0    0  501    0  0.00000000000E+00 -0.00000000000E+00 -0.29050128941E+03  0.29050128941E+03  0.00000000000E+00 0. -1.
         25    2    1    2    0    0  0.44075630660E+02 -0.51860262204E+02 -0.23346031983E+03  0.27346888733E+03  0.12509741559E+03 0.  0.
          5    1    3    3  502    0  0.23448529060E+02 -0.41753160231E+02 -0.10388760663E+02  0.49178843545E+02  0.41800000000E+01 0.  1.
         -5    1    3    3    0  502  0.20627101600E+02 -0.10107101974E+02 -0.22307155917E+03  0.22429004379E+03  0.41800000000E+01 0.  1.
        -11    1    1    2    0    0 -0.57833646965E+02  0.56548234562E+02  0.99226433843E+01  0.81491670771E+02  0.00000000000E+00 0. -1.
         11    1    1    2    0    0  0.13758016305E+02 -0.46879723573E+01  0.40926553254E+02  0.43430897512E+02  0.00000000000E+00 0.  1.
</event>
<event>
 7    1  0.2556591E-009  0.1052746E+03  0.7561462E-02  0.1269580E+00
         -2   -1    0    0    0  501 -0.00000000000E+00  0.00000000000E+00  0.32936089043E+02  0.32936089043E+02  0.00000000000E+00 0.  1.
          2   -1    0    0  501    0  0.00000000000E+00 -0.00000000000E+00 -0.39557755640E+03  0.39557755640E+03  0.00000000000E+00 0. -1.
         25    2    1    2    0    0  0.19545482948E+02 -0.99483017361E+01 -0.25728927033E+03  0.28693216056E+03  0.12510516187E+03 0.  0.
          5    1    3    3  502    0  0.11312698600E+02 -0.67575040395E+02 -0.13740971655E+03  0.15360099556E+03  0.41800000000E+01 0. -1.
         -5    1    3    3    0  502  0.82327843478E+01  0.57626738659E+02 -0.11987955378E+03  0.13333116500E+03  0.41800000000E+01 0. -1.
        -11    1    1    2    0    0  0.31204066117E+02  0.10090180199E+02 -0.76430215138E+02  0.83169004231E+02  0.00000000000E+00 0. -1.
         11    1    1    2    0    0 -0.50749549065E+02 -0.14187846326E+00 -0.28921981897E+02  0.58412480658E+02  0.00000000000E+00 0.  1.
</event>
<event>
 7    1  0.2556591E-009  0.1172192E+03  0.7561462E-02  0.1247756E+00
         -1   -1    0    0    0  501 -0.00000000000E+00  0.00000000000E+00  0.47468384411E+02  0.47468384411E+02  0.00000000000E+00 0.  1.
          1   -1    0    0  501    0  0.00000000000E+00 -0.00000000000E+00 -0.35598031548E+03  0.35598031548E+03  0.00000000000E+00 0. -1.
         25    2    1    2    0    0 -0.61282355510E+02  0.26953376238E+01 -0.10797156343E+03  0.17626098909E+03  0.12508911154E+03 0.  0.
          5    1    3    3  502    0 -0.86849110782E+02  0.38370193410E+02 -0.78002954199E+02  0.12295110024E+03  0.41800000000E+01 0. -1.
         -5    1    3    3    0  502  0.25566755272E+02 -0.35674855786E+02 -0.29968609234E+02  0.53309888857E+02  0.41800000000E+01 0. -1.
        -11    1    1    2    0    0  0.67783591201E+02 -0.24869952392E+02 -0.18688265423E+03  0.20034534240E+03  0.00000000000E+00 0. -1.
         11    1    1    2    0    0 -0.65012356911E+01  0.22174614769E+02 -0.13657713397E+02  0.26842368392E+02  0.00000000000E+00 0.  1.
</event>
<event>
 7    1  0.2556591E-009  0.1211791E+03  0.7561462E-02  0.1241164E+00
          2   -1    0    0  501    0  0.00000000000E+00  0.00000000000E+00  0.31677699981E+03  0.31677699981E+03  0.00000000000E+00 0. -1.
         -2   -1    0    0    0  501 -0.00000000000E+00 -0.00000000000E+00 -0.72349507077E+02  0.72349507077E+02  0.00000000000E+00 0.  1.
         25    2    1    2    0    0  0.44705682130E+02  0.80478487676E+02  0.19816817499E+03  0.25178105892E+03  0.12509073131E+03 0.  0.
          5    1    3    3  502    0  0.27046981753E+02  0.10167136667E+03  0.19756904530E+03  0.22387408533E+03  0.41800000000E+01 0.  1.
         -5    1    3    3    0  502  0.17658700377E+02 -0.21192878989E+02  0.59912969336E+00  0.27906973596E+02  0.41800000000E+01 0.  1.
        -11    1    1    2    0    0 -0.59224961632E+02 -0.65548728596E+02  0.64722702317E+02  0.10951374387E+03  0.00000000000E+00 0. -1.
         11    1    1    2    0    0  0.14519279501E+02 -0.14929759080E+02 -0.18463384569E+02  0.27831704101E+02  0.00000000000E+00 0.  1.
</event>
<event>
 7    1  0.2556591E-009  0.9597521E+02  0.7561462E-02  0.1288995E+00
         -2   -1    0    0    0  501 -0.00000000000E+00  0.00000000000E+00  0.12757026144E+03  0.12757026144E+03  0.00000000000E+00 0. -1.
          2   -1    0    0  501    0  0.00000000000E+00 -0.00000000000E+00 -0.13607066644E+03  0.13607066644E+03  0.00000000000E+00 0.  1.
         25    2    1    2    0    0  0.23918507538E+02 -0.54905898384E+02 -0.47432053492E+02  0.14657648882E+03  0.12509242461E+03 0.  0.
          5    1    3    3  502    0 -0.21814710320E+02  0.82205951195E+01 -0.62708517454E+02  0.67032009755E+02  0.41800000000E+01 0. -1.
         -5    1    3    3    0  502  0.45733217859E+02 -0.63126493504E+02  0.15276463963E+02  0.79544479060E+02  0.41800000000E+01 0. -1.
        -11    1    1    2    0    0  0.34926065662E+01  0.61831574988E+02  0.56456170704E+02  0.83801200330E+02  0.00000000000E+00 0. -1.
         11    1    1    2    0    0 -0.27411114105E+02 -0.69256766039E+01 -0.17524522213E+02  0.33263238743E+02  0.00000000000E+00 0.  1.
</event>
<event>
 7    1  0.2556591E-009  0.1020172E+03  0.7561462E-02  0.1276110E+00
          1   -1    0    0  501    0  0.00000000000E+00  0.00000000000E+00  0.71138228087E+03  0.71138228087E+03  0.00000000000E+00 0. -1.
         -1   -1    0    0    0  501 -0.00000000000E+00 -0.00000000000E+00 -0.19828494794E+02  0.19828494794E+02  0.00000000000E+00 0.  1.
         25    2    1    2    0    0  0.58129249070E+01 -0.21393239638E+02  0.51418008301E+03  0.52964146288E+03  0.12508981028E+03 0.  0.
          5    1    3    3  502    0 -0.25162581547E+02  0.40446639812E+02  0.31820113711E+03  0.32177402356E+03  0.41800000000E+01 0. -1.
         -5    1    3    3    0  502  0.30975506454E+02 -0.61839879451E+02  0.19597894590E+03  0.20786743931E+03  0.41800000000E+01 0. -1.
        -11    1    1    2    0    0  0.35695065548E+02 -0.73419626620E+01  0.11869052750E+03  0.12415910534E+03  0.00000000000E+00 0. -1.
         11    1    1    2    0    0 -0.41507990456E+02  0.28735202300E+02  0.58683175568E+02  0.77410207451E+02  0.00000000000E+00 0.  1.
</event>
<event>
 7    1  0.2556591E-009  0.1285627E+03  0.7561462E-02  0.1229604E+00
         -1   -1    0    0    0  501 -0.00000000000E+00  0.00000000000E+00  0.21474437212E+03  0.21474437212E+03  0.00000000000E+00 0.  1.
          1   -1    0    0  501    0  0.00000000000E+00 -0.00000000000E+00 -0.11327355410E+03  0.11327355410E+03  0.00000000000E+00 0. -1.
         25    2    1    2    0    0  0.86469886259E+02 -0.65587684303E+02  0.28226311129E+02  0.16800038450E+03  0.12509444029E+03 0.  0.
          5    1    3    3  502    0  0.76604560308E+02 -0.38728125520E+02  0.74299042061E+02  0.11360434154E+03  0.41800000000E+01 0. -1.
         -5    1    3    3    0  502  0.98653259507E+01 -0.26859558783E+02 -0.46072730932E+02  0.54396042960E+02  0.41800000000E+01 0. -1.
        -11    1    1    2    0    0 -0.31561271750E+02 -0.22295454762E+02  0.20284984484E+02  0.43642660013E+02  0.00000000000E+00 0.  1.
         11    1    1    2    0    0 -0.54908614509E+02  0.87883139065E+02  0.52959522406E+02  0.11637488171E+03  0.00000000000E+00 0. -1.
</event>
<event>
 7    1  0.2556591E-009  0.1233294E+03  0.7561462E-02  0.1237703E+00
         -2   -1    0    0    0  501 -0.00000000000E+00  0.00000000000E+00  0.16569788515E+02  0.16569788515E+02  0.00000000000E+00 0.  1.
          2   -1    0    0  501    0  0.00000000000E+00 -0.00000000000E+00 -0.11282867646E+04  0.11282867646E+04  0.00000000000E+00 0. -1.
         25    2    1    2    0    0 -0.69883251131E+02  0.55391131373E+01 -0.77707978336E+03  0.79019932300E+03  0.12509048644E+03 0.  0.
          5    1    3    3  502    0 -0.98800416521E+02  0.18904727729E+02 -0.69142794048E+03  0.69871952907E+03  0.41800000000E+01 0. -1.
         -5    1    3    3    0  502  0.28917165390E+02 -0.13365614592E+02 -0.85651842884E+02  0.91479793928E+02  0.41800000000E+01 0. -1.
        -11    1    1    2    0    0  0.84631722444E+02 -0.26083052541E+02 -0.29147484705E+03  0.30463164730E+03  0.00000000000E+00 0. -1.
         11    1    1    2    0    0 -0.14748471313E+02  0.20543939403E+02 -0.43162345700E+02  0.50025582841E+02  0.00000000000E+00 0.  1.
</event>
<event>
 7    1  0.2556591E-009  0.1195795E+03  0.7561462E-02  0.1243792E+00
          2   -1    0    0  501    0  0.00000000000E+00  0.00000000000E+00  0.54204248196E+03  0.54204248196E+03  0.00000000000E+00 0.  1.
         -2   -1    0    0    0  501 -0.00000000000E+00 -0.00000000000E+00 -0.35605961561E+02  0.35605961561E+02  0.00000000000E+00 0. -1.
         25    2    1    2    0    0 -0.90895049739E+02  0.44328993316E+01  0.25950492240E+03  0.30211151557E+03  0.12508797874E+03 0.  0.
          5    1    3    3  502    0 -0.53923312045E+02  0.56477173452E+02  0.81448020088E+02  0.11290990691E+03  0.41800000000E+01 0.  1.
         -5    1    3    3    0  502 -0.36971737694E+02 -0.52044274121E+02  0.17805690231E+03  0.18920160866E+03  0.41800000000E+01 0.  1.
        -11    1    1    2    0    0  0.46292166594E+02 -0.19034542870E+02  0.20981214182E+03  0.21569982236E+03  0.00000000000E+00 0.  1.
         11    1    1    2    0    0  0.44602883145E+02  0.14601643538E+02  0.37119456179E+02  0.59837105594E+02  0.00000000000E+00 0. -1.
</event>
<event>
 7    1  0.2556591E-009  0.1156640E+03  0.7561462E-02  0.1250426E+00
          2   -1    0    0  501    0  0.00000000000E+00  0.00000000000E+00  0.67720797107E+03  0.67720797107E+03  0.00000000000E+00 0. -1.
         -2   -1    0    0    0  501 -0.00000000000E+00 -0.00000000000E+00 -0.21031851887E+02  0.21031851887E+02  0.00000000000E+00 0.  1.
         25    2    1    2    0    0  0.24214052165E+02 -0.32257821869E+02  0.45410175155E+03  0.47273999311E+03  0.12509121843E+03 0.  0.
          5    1    3    3  502    0  0.65858985640E+02  0.15595020261E+02  0.24087862615E+03  0.25024107493E+03  0.41800000000E+01 0.  1.
         -5    1    3    3    0  502 -0.41644933475E+02 -0.47852842129E+02  0.21322312541E+03  0.22249891818E+03  0.41800000000E+01 0.  1.
        -11    1    1    2    0    0  0.14416078239E+02  0.53811058905E+02  0.11843826930E+03  0.13088574027E+03  0.00000000000E+00 0. -1.
         11    1    1    2    0    0 -0.38630130405E+02 -0.21553237036E+02  0.83636098329E+02  0.94614089572E+02  0.00000000000E+00 0.  1.
</event>
<event>
 7    1  0.2561463E-009  0.9467323E+02  0.7561462E-02  0.1291914E+00
          2   -1    0    0  501    0  0.00000000000E+00  0.00000000000E+00  0.55496801484E+02  0.55496801484E+02  0.00000000000E+00 0. -1.
         -2   -1    0    0    0  501 -0.00000000000E+00 -0.00000000000E+00 -0.37063939354E+03  0.37063939354E+03  0.00000000000E+00 0.  1.
         25    2    1    2    0    0  0.66479346908E+02  0.33935935336E+02 -0.25511972206E+03  0.29377628012E+03  0.12508908389E+03 0.  0.
          5    1    3    3  502    0  0.60440416302E+02  0.55166009258E+01 -0.32008036811E+02  0.68742007746E+02  0.41800000000E+01 0. -1.
         -5    1    3    3    0  502  0.60389306060E+01  0.28419334411E+02 -0.22311168525E+03  0.22503427238E+03  0.41800000000E+01 0. -1.
        -11    1    1    2    0    0 -0.70307711799E+02 -0.55624445951E+01 -0.54561034504E+01  0.70738138180E+02  0.00000000000E+00 0. -1.
         11    1    1    2    0    0  0.38283648914E+01 -0.28373490741E+02 -0.54566766549E+02  0.61621776721E+02  0.00000000000E+00 0.  1.
</event>
<event>
 7    1  0.2556591E-009  0.1779648E+03  0.7561462E-02  0.1169787E+00
          3   -1    0    0  501    0  0.00000000000E+00  0.00000000000E+00  0.18079112737E+03  0.18079112737E+03  0.00000000000E+00 0. -1.
         -3   -1    0    0    0  501 -0.00000000000E+00 -0.00000000000E+00 -0.23701937053E+03  0.23701937053E+03  0.00000000000E+00 0.  1.
         25    2    1    2    0    0  0.40018017611E+02 -0.16951656518E+03 -0.54648392753E+02  0.22129530924E+03  0.12509140441E+03 0.  0.
          5    1    3    3  502    0 -0.57446958354E+00 -0.88151081625E+02  0.33678641730E+02  0.94459867223E+02  0.41800000000E+01 0.  1.
         -5    1    3    3    0  502  0.40592487195E+02 -0.81365483560E+02 -0.88327034483E+02  0.12683544202E+03  0.41800000000E+01 0.  1.
        -11    1    1    2    0    0 -0.41966473195E+02  0.12052612229E+03  0.38374580647E+02  0.13326792363E+03  0.00000000000E+00 0. -1.
         11    1    1    2    0    0  0.19484555841E+01  0.48990442891E+02 -0.39954431056E+02  0.63247265038E+02  0.00000000000E+00 0.  1.
</event>
<event>
 7    1  0.2556591E-009  0.1426236E+03  0.7561462E-02  0.1209842E+00
          2   -1    0    0  501    0  0.00000000000E+00  0.00000000000E+00  0.15823576329E+03  0.15823576329E+03  0.00000000000E+00 0. -1.
         -2   -1    0    0    0  501 -0.00000000000E+00 -0.00000000000E+00 -0.13540012508E+03  0.13540012508E+03  0.00000000000E+00 0.  1.
         25    2    1    2    0    0  0.74724179472E+02  0.62267092888E+02  0.43134238505E+01  0.15851513617E+03  0.12509016314E+03 0.  0.
          5    1    3    3  502    0  0.65508048206E+02 -0.23511813658E+02  0.15479283411E+02  0.71422618099E+02  0.41800000000E+01 0.  1.
         -5    1    3    3    0  502  0.92161312660E+01  0.85778906546E+02 -0.11165859560E+02  0.87092518068E+02  0.41800000000E+01 0.  1.
        -11    1    1    2    0    0 -0.77517482005E+02 -0.11572075459E+02  0.28463147264E+02  0.83384792972E+02  0.00000000000E+00 0. -1.
         11    1    1    2    0    0  0.27933025330E+01 -0.50695017429E+02 -0.99409329052E+01  0.51735959237E+02  0.00000000000E+00 0.  1.
</event>
<event>
 7    1  0.2556591E-009  0.1031275E+03  0.7561462E-02  0.1273853E+00
         -2   -1    0    0    0  501 -0.00000000000E+00  0.00000000000E+00  0.18026553124E+04  0.18026553124E+04  0.00000000000E+00 0.  1.
          2   -1    0    0  501    0  0.00000000000E+00 -0.00000000000E+00 -0.14445077503E+02  0.14445077503E+02  0.00000000000E+00 0. -1.
         25    2    1    2    0    0  0.15334003187E+02 -0.80404277214E+02  0.14418799356E+04  0.14496089709E+04  0.12509372666E+03 0.  0.
          5    1    3    3  502    0 -0.25035806923E+02 -0.66766542390E+02  0.36755448054E+03  0.37443067633E+03  0.41800000000E+01 0. -1.
         -5    1    3    3    0  502  0.40369810110E+02 -0.13637734824E+02  0.10743254550E+04  0.10751782945E+04  0.41800000000E+01 0. -1.
        -11    1    1    2    0    0  0.14297794679E+02  0.34829403943E+02  0.34851103743E+02  0.51304129890E+02  0.00000000000E+00 0. -1.
         11    1    1    2    0    0 -0.29631797866E+02  0.45574873272E+02  0.31147919556E+03  0.31618728909E+03  0.00000000000E+00 0.  1.
</event>
<event>
 7    1  0.2556591E-009  0.1103453E+03  0.7561462E-02  0.1259932E+00
         -1   -1    0    0    0  501 -0.00000000000E+00  0.00000000000E+00  0.20089964559E+03  0.20089964559E+03  0.00000000000E+00 0.  1.
          1   -1    0    0  501    0  0.00000000000E+00 -0.00000000000E+00 -0.91703633337E+02  0.91703633337E+02  0.00000000000E+00 0. -1.
         25    2    1    2    0    0 -0.39456677465E+01 -0.41556403209E+02 -0.15070562882E+02  0.13274129540E+03  0.12510246479E+03 0.  0.
          5    1    3    3  502    0 -0.12850842121E+02  0.39223479516E+02 -0.28405983685E+02  0.50279198458E+02  0.41800000000E+01 0.  1.
         -5    1    3    3    0  502  0.89051743741E+01 -0.80779882725E+02  0.13335420803E+02  0.82462096940E+02  0.41800000000E+01 0.  1.
        -11    1    1    2    0    0  0.25848896416E+02  0.62430882698E+02  0.67353462705E+02  0.95405814805E+02  0.00000000000E+00 0.  1.
         11    1    1    2    0    0 -0.21903228669E+02 -0.20874479489E+02  0.56913112433E+02  0.64456168727E+02  0.00000000000E+00 0. -1.
</event>
<event>
 7    1  0.2556591E-009  0.1018517E+03  0.7561462E-02  0.1276450E+00
         -3   -1    0    0    0  501 -0.00000000000E+00  0.00000000000E+00  0.45456311575E+03  0.45456311575E+03  0.00000000000E+00 0. -1.
          3   -1    0    0  501    0  0.00000000000E+00 -0.00000000000E+00 -0.32160872586E+02  0.32160872586E+02  0.00000000000E+00 0.  1.
         25    2    1    2    0    0 -0.28575624885E+02 -0.36985320796E+02  0.29168920992E+03  0.32080650183E+03  0.12509890544E+03 0.  0.
          5    1    3    3  502    0 -0.73316046199E+02 -0.20759669286E+02  0.23272142653E+03  0.24491415080E+03  0.41800000000E+01 0. -1.
         -5    1    3    3    0  502  0.44740421313E+02 -0.16225651510E+02  0.58967783395E+02  0.75892351029E+02  0.41800000000E+01 0. -1.
        -11    1    1    2    0    0  0.48808892927E+02  0.18462327075E+02  0.27231591382E+02  0.58861915693E+02  0.00000000000E+00 0.  1.
         11    1    1    2    0    0 -0.20233268042E+02  0.18522993721E+02  0.10348144186E+03  0.10705557081E+03  0.00000000000E+00 0. -1.
</event>
<event>
 7    1  0.2556591E-009  0.7092776E+02  0.7561462E-02  0.1356966E+00
          2   -1    0    0  501    0  0.00000000000E+00  0.00000000000E+00  0.45648804766E+03  0.45648804766E+03  0.00000000000E+00 0. -1.
         -2   -1    0    0    0  501 -0.00000000000E+00 -0.00000000000E+00 -0.31398736191E+02  0.31398736191E+02  0.00000000000E+00 0.  1.
         25    2    1    2    0    0 -0.34596152599E+01 -0.18287880665E+01  0.33783834293E+03  0.36027341884E+03  0.12508747723E+03 0.  0.
          5    1    3    3  502    0 -0.43908014485E+02  0.97071119724E+01  0.30050096334E+03  0.30387570342E+03  0.41800000000E+01 0.  1.
         -5    1    3    3    0  502  0.40448399225E+02 -0.11535900039E+02  0.37337379591E+02  0.56397715418E+02  0.41800000000E+01 0.  1.
        -11    1    1    2    0    0  0.25520302896E+02  0.14125374443E+02  0.96426760802E+02  0.10074190916E+03  0.00000000000E+00 0. -1.
         11    1    1    2    0    0 -0.22060687637E+02 -0.12296586377E+02 -0.91757922702E+01  0.26871455846E+02  0.00000000000E+00 0.  1.
</event>
<event>
 7    1  0.2556591E-009  0.8376142E+02  0.7561462E-02  0.1318704E+00
         -1   -1    0    0    0  501 -0.00000000000E+00  0.00000000000E+00  0.43905742357E+02  0.43905742357E+02  0.00000000000E+00 0.  1.
          1   -1    0    0  501    0  0.00000000000E+00 -0.00000000000E+00 -0.26692356589E+03  0.26692356589E+03  0.00000000000E+00 0. -1.
         25    2    1    2    0    0 -0.87405943361E+01  0.33193697435E+01 -0.11136712794E+03  0.16773701531E+03  0.12508258437E+03 0.  0.
          5    1    3    3  502    0 -0.30450445402E+02 -0.45172127182E+02 -0.13469037734E+02  0.56272889360E+02  0.41800000000E+01 0.  1.
         -5    1    3    3    0  502  0.21709851066E+02  0.48491496926E+02 -0.97898090203E+02  0.11146412595E+03  0.41800000000E+01 0.  1.
        -11    1    1    2    0    0 -0.17903221507E+02  0.18060715387E+02  0.92513491031E+00  0.25447409597E+02  0.00000000000E+00 0.  1.
         11    1    1    2    0    0  0.26643815843E+02 -0.21380085130E+02 -0.11257583051E+03  0.11764488334E+03  0.00000000000E+00 0. -1.
</event>
<event>
 7    1  0.2556591E-009  0.9083215E+02  0.7561462E-02  0.1300849E+00
         -1   -1    0    0    0  501 -0.00000000000E+00  0.00000000000E+00  0.79583288629E+02  0.79583288629E+02  0.00000000000E+00 0.  1.
          1   -1    0    0  501    0  0.00000000000E+00 -0.00000000000E+00 -0.20314404058E+03  0.20314404058E+03  0.00000000000E+00 0. -1.
         25    2    1    2    0    0  0.35256910309E+02 -0.31595276523E+02 -0.17560954381E+02  0.13489666657E+03  0.12508961711E+03 0.  0.
          5    1    3    3  502    0  0.70737473582E+02 -0.16196810114E+02 -0.46606436519E+02  0.86346737933E+02  0.41800000000E+01 0.  1.
         -5    1    3    3    0  502 -0.35480563273E+02 -0.15398466409E+02  0.29045482138E+02  0.48549928636E+02  0.41800000000E+01 0.  1.
        -11    1    1    2    0    0 -0.48290434312E+02  0.18837473494E+02 -0.13518775788E+02  0.53568402557E+02  0.00000000000E+00 0.  1.
         11    1    1    2    0    0  0.13033524003E+02  0.12757803028E+02 -0.92481021785E+02  0.94262260086E+02  0.00000000000E+00 0. -1.
</event>
<event>
 7    1  0.2556591E-009  0.1004562E+03  0.7561462E-02  0.1279340E+00
          1   -1    0    0  501    0  0.00000000000E+00  0.00000000000E+00  0.95539873882E+02  0.95539873882E+02  0.00000000000E+00 0. -1.
         -1   -1    0    0    0  501 -0.00000000000E+00 -0.00000000000E+00 -0.15454168949E+03  0.15454168949E+03  0.00000000000E+00 0.  1.
         25    2    1    2    0    0 -0.11685830973E+02  0.23693869466E+02 -0.85138449022E+02  0.15360298554E+03  0.12508942229E+03 0.  0.
          5    1    3    3  502    0 -0.67166078456E+02  0.24381176875E+02 -0.55407901186E+02  0.90516472505E+02  0.41800000000E+01 0. -1.
         -5    1    3    3    0  502  0.55480247483E+02 -0.68730740850E+00 -0.29730547837E+02  0.63086513035E+02  0.41800000000E+01 0. -1.
        -11    1    1    2    0    0  0.24250230146E+02  0.17966338319E+02 -0.17472562562E+02  0.34873391249E+02  0.00000000000E+00 0.  1.
         11    1    1    2    0    0 -0.12564399172E+02 -0.41660207785E+02  0.43609195981E+02  0.61605186578E+02  0.00000000000E+00 0. -1.
</event>
<event>
 7    1  0.2556591E-009  0.1788040E+03  0.7561462E-02  0.1168966E+00
         -2   -1    0    0    0  501 -0.00000000000E+00  0.00000000000E+00  0.51056037779E+02  0.51056037779E+02  0.00000000000E+00 0.  1.
          2   -1    0    0  501    0  0.00000000000E+00 -0.00000000000E+00 -0.10634711494E+04  0.10634711494E+04  0.00000000000E+00 0. -1.
         25    2    1    2    0    0 -0.12872794431E+03 -0.11028201676E+03 -0.24381749708E+03  0.32222277114E+03  0.12509010948E+03 0.  0.
          5    1    3    3  502    0 -0.70480514933E+02 -0.12094832382E+02 -0.25891355925E+02  0.76168383645E+02  0.41800000000E+01 0.  1.
         -5    1    3    3    0  502 -0.58247429376E+02 -0.98187184373E+02 -0.21792614116E+03  0.24605438749E+03  0.41800000000E+01 0.  1.
        -11    1    1    2    0    0  0.41253533989E+02  0.53043607155E+02 -0.14261515056E+03  0.15765328889E+03  0.00000000000E+00 0.  1.
         11    1    1    2    0    0  0.87474410319E+02  0.57238409600E+02 -0.62598246393E+03  0.63465112711E+03  0.00000000000E+00 0. -1.
</event>
<event>
 7    1  0.2556591E-009  0.1690908E+03  0.7561462E-02  0.1178799E+00
         -1   -1    0    0    0  501 -0.00000000000E+00  0.00000000000E+00  0.19518246990E+03  0.19518246990E+03  0.00000000000E+00 0.  1.
          1   -1    0    0  501    0  0.00000000000E+00 -0.00000000000E+00 -0.17976746612E+03  0.17976746612E+03  0.00000000000E+00 0. -1.
         25    2    1    2    0    0  0.10950901608E+03 -0.81811097219E+02 -0.58883307864E+02  0.19442492752E+03  0.12509407766E+03 0.  0.
          5    1    3    3  502    0  0.81560612900E+02 -0.11140480937E+03 -0.65667497932E+02  0.15294723865E+03  0.41800000000E+01 0. -1.
         -5    1    3    3    0  502  0.27948403183E+02  0.29593712147E+02  0.67841900688E+01  0.41477688871E+02  0.41800000000E+01 0. -1.
        -11    1    1    2    0    0 -0.67689873891E+01  0.51597136025E+02  0.35193519535E+01  0.52158119928E+02  0.00000000000E+00 0. -1.
         11    1    1    2    0    0 -0.10274002869E+03  0.30213961194E+02  0.70778959688E+02  0.12836688857E+03  0.00000000000E+00 0.  1.
</event>
<event>
 7    1  0.2556591E-009  0.9132063E+02  0.7561462E-02  0.1299685E+00
         -2   -1    0    0    0  501 -0.00000000000E+00  0.00000000000E+00  0.27915973711E+02  0.27915973711E+02  0.00000000000E+00 0. -1.
          2   -1    0    0  501    0  0.00000000000E+00 -0.00000000000E+00 -0.37141288855E+03  0.37141288855E+03  0.00000000000E+00 0.  1.
         25    2    1    2    0    0  0.89221233378E+01 -0.78076352324E+01 -0.20497106259E+03  0.24042032800E+03  0.12509290213E+03 0.  0.
          5    1    3    3  502    0 -0.10483874085E+02 -0.55912128131E+02 -0.46401552800E+02  0.73529954374E+02  0.41800000000E+01 0.  1.
         -5    1    3    3    0  502  0.19405997423E+02  0.48104492899E+02 -0.15856950979E+03  0.16689037362E+03  0.41800000000E+01 0.  1.
        -11    1    1    2    0    0  0.27185487659E+02 -0.14807548799E+02 -0.85219676836E+02  0.90668117663E+02  0.00000000000E+00 0.  1.
         11    1    1    2    0    0 -0.36107610996E+02  0.22615184031E+02 -0.53306175415E+02  0.68240416602E+02  0.00000000000E+00 0. -1.
</event>
<event>
 7    1  0.2556591E-009  0.8278415E+02  0.7561462E-02  0.1321331E+00
          1   -1    0    0  501    0  0.00000000000E+00  0.00000000000E+00  0.17683257619E+04  0.17683257619E+04  0.00000000000E+00 0. -1.
         -1   -1    0    0    0  501 -0.00000000000E+00 -0.00000000000E+00 -0.93454886113E+01  0.93454886113E+01  0.00000000000E+00 0.  1.
         25    2    1    2    0    0 -0.47456106477E+02  0.15459388443E+02  0.12939988441E+04  0.13009887914E+04  0.12509097487E+03 0.  0.
          5    1    3    3  502    0 -0.11787319613E+01  0.17729377667E+02  0.11393036753E+04  0.11394498923E+04  0.41800000000E+01 0. -1.
         -5    1    3    3    0  502 -0.46277374516E+02 -0.22699892235E+01  0.15469516882E+03  0.16153889903E+03  0.41800000000E+01 0. -1.
        -11    1    1    2    0    0  0.59507115163E+02  0.20444512712E+02  0.35039267579E+03  0.35599733440E+03  0.00000000000E+00 0.  1.
         11    1    1    2    0    0 -0.12051008686E+02 -0.35903901156E+02  0.11458875340E+03  0.12068512475E+03  0.00000000000E+00 0. -1.
</event>
<event>
 7    1  0.2556591E-009  0.1112209E+03  0.7561462E-02  0.1258326E+00
          2   -1    0    0  501    0  0.00000000000E+00  0.00000000000E+00  0.86991968530E+03  0.86991968530E+03  0.00000000000E+00 0. -1.
         -2   -1    0    0    0  501 -0.00000000000E+00 -0.00000000000E+00 -0.15488758415E+02  0.15488758415E+02  0.00000000000E+00 0.  1.
         25    2    1    2    0    0  0.29998405815E+02 -0.10391435533E+02  0.59473135077E+03  0.60857323356E+03  0.12509242480E+03 0.  0.
          5    1    3    3  502    0  0.61757089002E+02  0.36800341160E+02  0.33564927310E+03  0.34328721223E+03  0.41800000000E+01 0. -1.
         -5    1    3    3    0  502 -0.31758683187E+02 -0.47191776693E+02  0.25908207767E+03  0.26528602133E+03  0.41800000000E+01 0. -1.
        -11    1    1    2    0    0 -0.46759673277E+02  0.38565023057E+02  0.13656156160E+03  0.14940812613E+03  0.00000000000E+00 0.  1.
         11    1    1    2    0    0  0.16761267462E+02 -0.28173587523E+02  0.12313801452E+03  0.12742708402E+03  0.00000000000E+00 0. -1.
</event>
<event>
 7    1  0.2556591E-009  0.1312085E+03  0.7561462E-02  0.1225673E+00
          2   -1    0    0  501    0  0.00000000000E+00  0.00000000000E+00  0.79545230599E+03  0.79545230599E+03  0.00000000000E+00 0. -1.
         -2   -1    0    0    0  501 -0.00000000000E+00 -0.00000000000E+00 -0.41269287022E+02  0.41269287022E+02  0.00000000000E+00 0.  1.
         25    2    1    2    0    0 -0.58671759386E+02  0.60896988631E+02  0.67187052732E+03  0.68862766347E+03  0.12508890772E+03 0.  0.
          5    1    3    3  502    0 -0.51087540638E+02 -0.30016926345E+02  0.24512840326E+03  0.25222283632E+03  0.41800000000E+01 0. -1.
         -5    1    3    3    0  502 -0.75842187477E+01  0.90913914977E+02  0.42674212406E+03  0.43640482714E+03  0.41800000000E+01 0. -1.
        -11    1    1    2    0    0  0.75550256635E+02 -0.42336834878E+02  0.32834687937E+02  0.92619466621E+02  0.00000000000E+00 0.  1.
         11    1    1    2    0    0 -0.16878497250E+02 -0.18560153753E+02  0.49477803711E+02  0.55474462925E+02  0.00000000000E+00 0. -1.
</event>
<event>
 7    1  0.2556591E-009  0.1389288E+03  0.7561462E-02  0.1214778E+00
          1   -1    0    0  501    0  0.00000000000E+00  0.00000000000E+00  0.21607777268E+03  0.21607777268E+03  0.00000000000E+00 0. -1.
         -1   -1    0    0    0  501 -0.00000000000E+00 -0.00000000000E+00 -0.10514831129E+03  0.10514831129E+03  0.00000000000E+00 0.  1.
         25    2    1    2    0    0  0.12013845589E+02  0.98472150320E+02  0.93312288283E+02  0.18492102936E+03  0.12508999592E+03 0.  0.
          5    1    3    3  502    0 -0.86213748947E+01 -0.28856889593E+02  0.21383045047E+02  0.37171967899E+02  0.41800000000E+01 0.  1.
         -5    1    3    3    0  502  0.20635220484E+02  0.12732903991E+03  0.71929243236E+02  0.14774906146E+03  0.41800000000E+01 0.  1.
        -11    1    1    2    0    0 -0.36823342927E+02 -0.37450498375E+02 -0.24670859809E+02  0.58027146548E+02  0.00000000000E+00 0.  1.
         11    1    1    2    0    0  0.24809497338E+02 -0.61021651945E+02  0.42288032913E+02  0.78277908070E+02  0.00000000000E+00 0. -1.
</event>
<event>
 7    1  0.2556591E-009  0.9146651E+02  0.7561462E-02  0.1299339E+00
          1   -1    0    0  501    0  0.00000000000E+00  0.00000000000E+00  0.40197122503E+03  0.40197122503E+03  0.00000000000E+00 0. -1.
         -1   -1    0    0    0  501 -0.00000000000E+00 -0.00000000000E+00 -0.33873376879E+02  0.33873376879E+02  0.00000000000E+00 0.  1.
         25    2    1    2    0    0  0.14846754790E+02  0.37685073803E+02  0.18482263105E+03  0.22682167359E+03  0.12509226894E+03 0.  0.
          5    1    3    3  502    0  0.19380496155E+01 -0.45091783573E+02  0.45687168350E+02  0.64356932291E+02  0.41800000000E+01 0.  1.
         -5    1    3    3    0  502  0.12908705175E+02  0.82776857377E+02  0.13913546270E+03  0.16246474130E+03  0.41800000000E+01 0.  1.
        -11    1    1    2    0    0  0.10716950671E+02 -0.19837772436E+02 -0.56814823354E+00  0.22554667795E+02  0.00000000000E+00 0.  1.
         11    1    1    2    0    0 -0.25563705462E+02 -0.17847301367E+02  0.18384336533E+03  0.18646826052E+03  0.00000000000E+00 0. -1.
</event>
<event>
 7    1  0.2556591E-009  0.1169795E+03  0.7561462E-02  0.1248165E+00
          1   -1    0    0  501    0  0.00000000000E+00  0.00000000000E+00  0.30297909451E+02  0.30297909451E+02  0.00000000000E+00 0. -1.
         -1   -1    0    0    0  501 -0.00000000000E+00 -0.00000000000E+00 -0.60380787641E+03  0.60380787641E+03  0.00000000000E+00 0.  1.
         25    2    1    2    0    0  0.65160536741E+02 -0.30859875949E+02 -0.39325430279E+03  0.41891936928E+03  0.12508502626E+03 0.  0.
          5    1    3    3  502    0 -0.36665351987E+02  0.29017131655E+01 -0.10013366676E+03  0.10675669344E+03  0.41800000000E+01 0.  1.
         -5    1    3    3    0  502  0.10182588873E+03 -0.33761589114E+02 -0.29312063604E+03  0.31216267584E+03  0.41800000000E+01 0.  1.
        -11    1    1    2    0    0 -0.64422372818E+02  0.59869779109E+01 -0.17892883657E+03  0.19026721888E+03  0.00000000000E+00 0. -1.
         11    1    1    2    0    0 -0.73816392280E+00  0.24872898038E+02 -0.13268275939E+01  0.24919197705E+02  0.00000000000E+00 0.  1.
</event>
<event>
 7    1  0.2556591E-009  0.1020417E+03  0.7561462E-02  0.1276060E+00
         -2   -1    0    0    0  501 -0.00000000000E+00  0.00000000000E+00  0.40233440772E+02  0.40233440772E+02  0.00000000000E+00 0. -1.
          2   -1    0    0  501    0  0.00000000000E+00 -0.00000000000E+00 -0.36963047540E+03  0.36963047540E+03  0.00000000000E+00 0.  1.
         25    2    1    2    0    0  0.35748268545E+02 -0.25421336452E+02 -0.13675454509E+03  0.19045445734E+03  0.12508761597E+03 0.  0.
          5    1    3    3  502    0  0.34604130363E+02  0.29345002790E+02 -0.27740718337E+01  0.45648032832E+02  0.41800000000E+01 0. -1.
         -5    1    3    3    0  502  0.11441381821E+01 -0.54766339241E+02 -0.13398047325E+03  0.14480642451E+03  0.41800000000E+01 0. -1.
        -11    1    1    2    0    0 -0.31176673984E+02  0.60577873427E+02 -0.10868352877E+03  0.12827226191E+03  0.00000000000E+00 0.  1.
         11    1    1    2    0    0 -0.45715945610E+01 -0.35156536975E+02 -0.83958960764E+02  0.91137196915E+02  0.00000000000E+00 0. -1.
</event>
<event>
 7    1  0.2556591E-009  0.9764759E+02  0.7561462E-02  0.1285322E+00
          2   -1    0    0  501    0  0.00000000000E+00  0.00000000000E+00  0.18252452336E+03  0.18252452336E+03  0.00000000000E+00 0. -1.
         -2   -1    0    0    0  501 -0.00000000000E+00 -0.00000000000E+00 -0.11356468510E+03  0.11356468510E+03  0.00000000000E+00 0.  1.
         25    2    1    2    0    0 -0.24021811127E+02  0.89309069129E+02  0.15773962323E+02  0.15636379348E+03  0.12509061030E+03 0.  0.
          5    1    3    3  502    0 -0.15672278598E+02  0.37560074845E+02 -0.54778537020E+02  0.68370608136E+02  0.41800000000E+01 0.  1.
         -5    1    3    3    0  502 -0.83495325292E+01  0.51748994284E+02  0.70552499343E+02  0.87993185340E+02  0.41800000000E+01 0.  1.
        -11    1    1    2    0    0 -0.88143349724E+01 -0.49098465011E+02 -0.16755830117E+02  0.52622329959E+02  0.00000000000E+00 0.  1.
         11    1    1    2    0    0  0.32836146099E+02 -0.40210604118E+02  0.69941706058E+02  0.87103085023E+02  0.00000000000E+00 0. -1.
</event>
<event>
 7    1  0.2556591E-009  0.2079699E+03  0.7561462E-02  0.1143184E+00
          3   -1    0    0  501    0  0.00000000000E+00  0.00000000000E+00  0.29755406825E+03  0.29755406825E+03  0.00000000000E+00 0. -1.
         -3   -1    0    0    0  501 -0.00000000000E+00 -0.00000000000E+00 -0.16230984598E+03  0.16230984598E+03  0.00000000000E+00 0.  1.
         25    2    1    2    0    0  0.15477880470E+02 -0.18340696619E+03  0.12027019737E+03  0.25295882993E+03  0.12508224987E+03 0.  0.
          5    1    3    3  502    0 -0.37328054358E+02 -0.32338652657E+02 -0.48166962105E+01  0.49798042735E+02  0.41800000000E+01 0.  1.
         -5    1    3    3    0  502  0.52805934828E+02 -0.15106831354E+03  0.12508689358E+03  0.20316078719E+03  0.41800000000E+01 0.  1.
        -11    1    1    2    0    0  0.18341326149E+02 -0.14174902913E+01  0.29135110503E+01  0.18625307253E+02  0.00000000000E+00 0. -1.
         11    1    1    2    0    0 -0.33819206619E+02  0.18482445649E+03  0.12060513845E+02  0.18827977705E+03  0.00000000000E+00 0.  1.
</event>
<event>
 7    1  0.2556591E-009  0.1282693E+03  0.7561462E-02  0.1230047E+00
         -2   -1    0    0    0  501 -0.00000000000E+00  0.00000000000E+00  0.19536079515E+02  0.19536079515E+02  0.00000000000E+00 0.  1.
          2   -1    0    0  501    0  0.00000000000E+00 -0.00000000000E+00 -0.10119814809E+04  0.10119814809E+04  0.00000000000E+00 0. -1.
         25    2    1    2    0    0 -0.87717888308E+02 -0.41679574667E+02 -0.74505580166E+03  0.76169961272E+03  0.12508612053E+03 0.  0.
          5    1    3    3  502    0 -0.95477437167E+02 -0.76217427580E+02 -0.60033928360E+03  0.61265795115E+03  0.41800000000E+01 0.  1.
         -5    1    3    3    0  502  0.77595488593E+01  0.34537852913E+02 -0.14471651806E+03  0.14904166157E+03  0.41800000000E+01 0.  1.
        -11    1    1    2    0    0  0.62738152148E+02  0.20796049993E+02 -0.21041199473E+03  0.22054876775E+03  0.00000000000E+00 0. -1.
         11    1    1    2    0    0  0.24979736159E+02  0.20883524674E+02 -0.36977604981E+02  0.49269179935E+02  0.00000000000E+00 0.  1.
</event>
<event>
 7    1  0.2556591E-009  0.8511603E+02  0.7561462E-02  0.1315129E+00
         -1   -1    0    0    0  501 -0.00000000000E+00  0.00000000000E+00  0.14692620768E+02  0.14692620768E+02  0.00000000000E+00 0.  1.
          1   -1    0    0  501    0  0.00000000000E+00 -0.00000000000E+00 -0.87072130023E+03  0.87072130023E+03  0.00000000000E+00 0. -1.
         25    2    1    2    0    0  0.18110651219E+02 -0.16970263723E+02 -0.51111650007E+03  0.52678557008E+03  0.12508786776E+03 0.  0.
          5    1    3    3  502    0  0.26297006259E+02  0.30789557721E+02 -0.43201105686E+03  0.43392459604E+03  0.41800000000E+01 0. -1.
         -5    1    3    3    0  502 -0.81863550396E+01 -0.47759821444E+02 -0.79105443215E+02  0.92860974039E+02  0.41800000000E+01 0. -1.
        -11    1    1    2    0    0 -0.44485825210E+02  0.27711453038E+02 -0.30573127043E+03  0.31019110721E+03  0.00000000000E+00 0. -1.
         11    1    1    2    0    0  0.26375173991E+02 -0.10741189314E+02 -0.39180908960E+02  0.48437243706E+02  0.00000000000E+00 0.  1.
</event>
<event>
 7    1  0.2556591E-009  0.1039027E+03  0.7561462E-02  0.1272297E+00
          2   -1    0    0  501    0  0.00000000000E+00  0.00000000000E+00  0.15277272695E+03  0.15277272695E+03  0.00000000000E+00 0. -1.
         -2   -1    0    0    0  501 -0.00000000000E+00 -0.00000000000E+00 -0.10916225535E+03  0.10916225535E+03  0.00000000000E+00 0.  1.
         25    2    1    2    0    0 -0.30449777100E+02  0.29393817315E+02 -0.34765968127E+02  0.13656441478E+03  0.12509988578E+03 0.  0.
          5    1    3    3  502    0  0.38877748111E+02  0.23844608630E+02 -0.47223979325E+02  0.65784658410E+02  0.41800000000E+01 0. -1.
         -5    1    3    3    0  502 -0.69327525211E+02  0.55492086850E+01  0.12458011198E+02  0.70779756371E+02  0.41800000000E+01 0. -1.
        -11    1    1    2    0    0  0.46155286609E+02  0.12310105394E+02  0.19655027958E+02  0.51654325092E+02  0.00000000000E+00 0. -1.
         11    1    1    2    0    0 -0.15705509508E+02 -0.41703922708E+02  0.58721411768E+02  0.73716242431E+02  0.00000000000E+00 0.  1.
</event>
<event>
 7    1  0.2556591E-009  0.1089965E+03  0.7561462E-02  0.1262440E+00
         -2   -1    0    0    0  501 -0.00000000000E+00  0.00000000000E+00  0.47524795300E+02  0.47524795300E+02  0.00000000000E+00 0.  1.
          2   -1    0    0  501    0  0.00000000000E+00 -0.00000000000E+00 -0.26317146507E+03  0.26317146507E+03  0.00000000000E+00 0. -1.
         25    2    1    2    0    0 -0.70413337456E+01 -0.23930464658E+02 -0.12506778820E+03  0.17864187970E+03  0.12509485208E+03 0.  0.
          5    1    3    3  502    0  0.53729649424E+02 -0.32708822722E+02 -0.82419991629E+02  0.10376545538E+03  0.41800000000E+01 0. -1.
         -5    1    3    3    0  502 -0.60770983169E+02  0.87783580637E+01 -0.42647796573E+02  0.74876424315E+02  0.41800000000E+01 0. -1.
        -11    1    1    2    0    0  0.48624097146E+02  0.10895484064E+02 -0.63620065138E+02  0.80811676659E+02  0.00000000000E+00 0.  1.
         11    1    1    2    0    0 -0.41582763401E+02  0.13034980595E+02 -0.26958816432E+02  0.51242704013E+02  0.00000000000E+00 0. -1.
</event>
<event>
 7    1  0.2556591E-009  0.1299683E+03  0.7561462E-02  0.1227503E+00
         -1   -1    0    0    0  501 -0.00000000000E+00  0.00000000000E+00  0.31084748350E+02  0.31084748350E+02  0.00000000000E+00 0.  1.
          1   -1    0    0  501    0  0.00000000000E+00 -0.00000000000E+00 -0.23662596961E+04  0.23662596961E+04  0.00000000000E+00 0. -1.
         25    2    1    2    0    0 -0.77354447894E+02 -0.47435690504E+02 -0.22180668581E+04  0.22234438918E+04  0.12509315491E+03 0.  0.
          5    1    3    3  502    0 -0.69993960473E+02  0.13830468060E+02 -0.17297568254E+04  0.17312326776E+04  0.41800000000E+01 0. -1.
         -5    1    3    3    0  502 -0.73604874211E+01 -0.61266158563E+02 -0.48831003269E+03  0.49221121420E+03  0.41800000000E+01 0. -1.
        -11    1    1    2    0    0  0.89541919648E+02  0.13491011563E+02 -0.96622954268E+02  0.13242264934E+03  0.00000000000E+00 0. -1.
         11    1    1    2    0    0 -0.12187471754E+02  0.33944678940E+02 -0.20485135397E+02  0.41477903374E+02  0.00000000000E+00 0.  1.
</event>
<event>
 7    1  0.2556591E-009  0.6606997E+02  0.7561462E-02  0.1373991E+00
         -2   -1    0    0    0  501 -0.00000000000E+00  0.00000000000E+00  0.12101703088E+03  0.12101703088E+03  0.00000000000E+00 0.  1.
          2   -1    0    0  501    0  0.00000000000E+00 -0.00000000000E+00 -0.14423660643E+03  0.14423660643E+03  0.00000000000E+00 0. -1.
         25    2    1    2    0    0 -0.41993090943E+02 -0.32891623215E+02 -0.72475048817E+02  0.15409654693E+03  0.12509130469E+03 0.  0.
          5    1    3    3  502    0 -0.27665200112E+02 -0.28342916228E+02  0.30363595097E+02  0.50080979471E+02  0.41800000000E+01 0. -1.
         -5    1    3    3    0  502 -0.14327890831E+02 -0.45487069869E+01 -0.10283864391E+03  0.10401556745E+03  0.41800000000E+01 0. -1.
        -11    1    1    2    0    0  0.52055741994E+02  0.11851470021E+02 -0.34732519191E+01  0.53500664436E+02  0.00000000000E+00 0. -1.
         11    1    1    2    0    0 -0.10062651051E+02  0.21040153194E+02  0.52728725187E+02  0.57656425943E+02  0.00000000000E+00 0.  1.
</event>
<event>
 7    1  0.2556591E-009  0.9944494E+02  0.7561462E-02  0.1281468E+00
          1   -1    0    0  501    0  0.00000000000E+00  0.00000000000E+00  0.57719982377E+03  0.57719982377E+03  0.00000000000E+00 0. -1.
         -1   -1    0    0    0  501 -0.00000000000E+00 -0.00000000000E+00 -0.25416758684E+02  0.25416758684E+02  0.00000000000E+00 0.  1.
         25    2    1    2    0    0 -0.52423011482E+02  0.11981495791E+02  0.28034931834E+03  0.31166813488E+03  0.12509819197E+03 0.  0.
          5    1    3    3  502    0 -0.53856499072E+02  0.55006666851E+02  0.10035278459E+03  0.12654805279E+03  0.41800000000E+01 0. -1.
         -5    1    3    3    0  502  0.14334875900E+01 -0.43025171059E+02  0.17999653375E+03  0.18512008209E+03  0.41800000000E+01 0. -1.
        -11    1    1    2    0    0 -0.12189208508E+02 -0.61918057826E+01  0.20023549151E+01  0.13817550004E+02  0.00000000000E+00 0.  1.
         11    1    1    2    0    0  0.64612219991E+02 -0.57896900088E+01  0.26943139183E+03  0.27713089757E+03  0.00000000000E+00 0. -1.
</event>
<event>
 7    1  0.2556591E-009  0.1708749E+03  0.7561462E-02  0.1176939E+00
         -1   -1    0    0    0  501 -0.00000000000E+00  0.00000000000E+00  0.86039642528E+02  0.86039642528E+02  0.00000000000E+00 0.  1.
          1   -1    0    0  501    0  0.00000000000E+00 -0.00000000000E+00 -0.41047314237E+03  0.41047314237E+03  0.00000000000E+00 0. -1.
         25    2    1    2    0    0 -0.11898026830E+03 -0.84377905249E+02 -0.11006821120E+03  0.22144328660E+03  0.12508470301E+03 0.  0.
          5    1    3    3  502    0 -0.79082311652E+02  0.12057179243E+00 -0.99711758176E+02  0.12733394548E+03  0.41800000000E+01 0.  1.
         -5    1    3    3    0  502 -0.39897956643E+02 -0.84498477041E+02 -0.10356453022E+02  0.94109341119E+02  0.41800000000E+01 0.  1.
        -11    1    1    2    0    0  0.36879559022E+02  0.78472304389E+02 -0.13683176592E+03  0.16199054477E+03  0.00000000000E+00 0. -1.
         11    1    1    2    0    0  0.82100709273E+02  0.59056008594E+01 -0.77533522725E+02  0.11307895353E+03  0.00000000000E+00 0.  1.
</event>
<event>
 7    1  0.2556591E-009  0.4394358E+03  0.7561462E-02  0.1030920E+00
          1   -1    0    0  501    0  0.00000000000E+00  0.00000000000E+00  0.33990159731E+03  0.33990159731E+03  0.00000000000E+00 0. -1.
         -1   -1    0    0    0  501 -0.00000000000E+00 -0.00000000000E+00 -0.98782418569E+03  0.98782418569E+03  0.00000000000E+00 0.  1.
         25    2    1    2    0    0 -0.32352823227E+03  0.28237198896E+03 -0.75251130775E+03  0.87539955150E+03  0.12508656705E+03 0.  0.
          5    1    3    3  502    0 -0.32155424240E+03  0.23274941484E+03 -0.65544297466E+03  0.76628479454E+03  0.41800000000E+01 0. -1.
         -5    1    3    3    0  502 -0.19739898700E+01  0.49622574118E+02 -0.97068333089E+02  0.10911475696E+03  0.41800000000E+01 0. -1.
        -11    1    1    2    0    0  0.10847163835E+03 -0.12543744762E+03  0.82393509427E+02  0.18517381021E+03  0.00000000000E+00 0. -1.
         11    1    1    2    0    0  0.21505659392E+03 -0.15693454134E+03  0.22195209944E+02  0.26715242129E+03  0.00000000000E+00 0.  1.
</event>
<event>
 7    1  0.2556591E-009  0.1370357E+03  0.7561462E-02  0.1217374E+00
          2   -1    0    0  501    0  0.00000000000E+00  0.00000000000E+00  0.22971657131E+03  0.22971657131E+03  0.00000000000E+00 0. -1.
         -2   -1    0    0    0  501 -0.00000000000E+00 -0.00000000000E+00 -0.11095500089E+03  0.11095500089E+03  0.00000000000E+00 0.  1.
         25    2    1    2    0    0  0.30621616326E+02  0.10580764157E+03  0.10656102095E+03  0.19782473162E+03  0.12508570204E+03 0.  0.
          5    1    3    3  502    0 -0.44504610025E+01 -0.26152652005E+02  0.33411965894E+02  0.42867233115E+02  0.41800000000E+01 0. -1.
         -5    1    3    3    0  502  0.35072077329E+02  0.13196029357E+03  0.73149055055E+02  0.15495749851E+03  0.41800000000E+01 0. -1.
        -11    1    1    2    0    0 -0.85371150807E+01 -0.16092899583E+02 -0.34730141678E+02  0.39217935844E+02  0.00000000000E+00 0.  1.
         11    1    1    2    0    0 -0.22084501246E+02 -0.89714741984E+02  0.46930691152E+02  0.10362890474E+03  0.00000000000E+00 0. -1.
</event>
<event>
 7    1  0.2556591E-009  0.1516690E+03  0.7561462E-02  0.1198437E+00
          1   -1    0    0  501    0  0.00000000000E+00  0.00000000000E+00  0.11615411891E+04  0.11615411891E+04  0.00000000000E+00 0. -1.
         -1   -1    0    0    0  501 -0.00000000000E+00 -0.00000000000E+00 -0.29004423898E+02  0.29004423898E+02  0.00000000000E+00 0.  1.
         25    2    1    2    0    0  0.17379716152E+02  0.11378847977E+03  0.89548970466E+03  0.91148368795E+03  0.12510327568E+03 0.  0.
          5    1    3    3  502    0 -0.54667387901E+01  0.12845917538E+03  0.83742572891E+03  0.84724905950E+03  0.41800000000E+01 0.  1.
         -5    1    3    3    0  502  0.22846454942E+02 -0.14670695608E+02  0.58063975746E+02  0.64234628452E+02  0.41800000000E+01 0.  1.
        -11    1    1    2    0    0  0.21177568277E+02 -0.10573401063E+03  0.17101948167E+03  0.20217772754E+03  0.00000000000E+00 0. -1.
         11    1    1    2    0    0 -0.38557284428E+02 -0.80544691382E+01  0.66027578919E+02  0.76884197554E+02  0.00000000000E+00 0.  1.
</event>
<event>
 7    1  0.2556591E-009  0.1416073E+03  0.7561462E-02  0.1211182E+00
          1   -1    0    0  501    0  0.00000000000E+00  0.00000000000E+00  0.45837718095E+03  0.45837718095E+03  0.00000000000E+00 0. -1.
         -1   -1    0    0    0  501 -0.00000000000E+00 -0.00000000000E+00 -0.68847369118E+02  0.68847369118E+02  0.00000000000E+00 0.  1.
         25    2    1    2    0    0 -0.42888582734E+02 -0.92360506050E+02  0.33460381887E+03  0.37145321352E+03  0.12509148901E+03 0.  0.
          5    1    3    3  502    0 -0.59736442627E+02 -0.11251964860E+03  0.31014412177E+03  0.33531472166E+03  0.41800000000E+01 0. -1.
         -5    1    3    3    0  502  0.16847859892E+02  0.20159142546E+02  0.24459697100E+02  0.36138491852E+02  0.41800000000E+01 0. -1.
        -11    1    1    2    0    0 -0.22876398208E+02  0.13883208153E+02 -0.16034323984E+02  0.31195714597E+02  0.00000000000E+00 0. -1.
         11    1    1    2    0    0  0.65764980943E+02  0.78477297897E+02  0.70960316946E+02  0.12457562195E+03  0.00000000000E+00 0.  1.
</event>
<event>
 7    1  0.2556591E-009  0.3426098E+03  0.7561462E-02  0.1065690E+00
         -1   -1    0    0    0  501 -0.00000000000E+00  0.00000000000E+00  0.55192620235E+03  0.55192620235E+03  0.00000000000E+00 0.  1.
          1   -1    0    0  501    0  0.00000000000E+00 -0.00000000000E+00 -0.22132053056E+03  0.22132053056E+03  0.00000000000E+00 0. -1.
         25    2    1    2    0    0 -0.24230690951E+03  0.22670806752E+03  0.16036782237E+03  0.38919691434E+03  0.12508882208E+03 0.  0.
          5    1    3    3  502    0 -0.24847520699E+03  0.21457604783E+03  0.12543538651E+03  0.35147449037E+03  0.41800000000E+01 0. -1.
         -5    1    3    3    0  502  0.61682974817E+01  0.12132019690E+02  0.34932435859E+02  0.37722423975E+02  0.41800000000E+01 0. -1.
        -11    1    1    2    0    0  0.16661085343E+02 -0.59548253674E+02  0.45518294600E+02  0.76782168657E+02  0.00000000000E+00 0.  1.
         11    1    1    2    0    0  0.22564582416E+03 -0.16715981384E+03  0.12471955482E+03  0.30726764991E+03  0.00000000000E+00 0. -1.
</event>
<event>
 7    1  0.2556591E-009  0.1618347E+03  0.7561462E-02  0.1186641E+00
          2   -1    0    0  501    0  0.00000000000E+00  0.00000000000E+00  0.18702291362E+03  0.18702291362E+03  0.00000000000E+00 0.  1.
         -2   -1    0    0    0  501 -0.00000000000E+00 -0.00000000000E+00 -0.14463387667E+03  0.14463387667E+03  0.00000000000E+00 0. -1.
         25    2    1    2    0    0  0.31970394971E+02  0.11848805921E+03  0.13074323133E+02  0.17572730456E+03  0.12509045253E+03 0.  0.
          5    1    3    3  502    0 -0.31964242007E+02  0.98135850940E+02 -0.11973875112E+02  0.10398655727E+03  0.41800000000E+01 0. -1.
         -5    1    3    3    0  502  0.63934636979E+02  0.20352208269E+02  0.25048198245E+02  0.71740747294E+02  0.41800000000E+01 0. -1.
        -11    1    1    2    0    0  0.19234929803E+02  0.46493381987E+01  0.39320264877E+01  0.20175720619E+02  0.00000000000E+00 0. -1.
         11    1    1    2    0    0 -0.51205324774E+02 -0.12313739741E+03  0.25382687328E+02  0.13575376511E+03  0.00000000000E+00 0.  1.
</event>
<event>
 7    1  0.2850550E-009  0.1459516E+03  0.7561462E-02  0.1205538E+00
          2   -1    0    0  501    0  0.00000000000E+00  0.00000000000E+00  0.14829027528E+04  0.14829027528E+04  0.00000000000E+00 0. -1.
         -2   -1    0    0    0  501 -0.00000000000E+00 -0.00000000000E+00 -0.19014984117E+02  0.19014984117E+02  0.00000000000E+00 0.  1.
         25    2    1    2    0    0 -0.28422204911E+02  0.11850304313E+03  0.95311130200E+03  0.96897889889E+03  0.12509260383E+03 0.  0.
          5    1    3    3  502    0 -0.37402197548E+02  0.98935701124E+01  0.55000923427E+03  0.55138411048E+03  0.41800000000E+01 0.  1.
         -5    1    3    3    0  502  0.89799926373E+01  0.10860947302E+03  0.40310206773E+03  0.41759478841E+03  0.41800000000E+01 0.  1.
        -11    1    1    2    0    0 -0.17460332737E+02 -0.85865351101E+02  0.22088629088E+03  0.23763096439E+03  0.00000000000E+00 0.  1.
         11    1    1    2    0    0  0.45882537648E+02 -0.32637692033E+02  0.28989017577E+03  0.29530787360E+03  0.00000000000E+00 0. -1.
</event>
<event>
 7    1  0.2556591E-009  0.1806713E+03  0.7561462E-02  0.1167155E+00
          2   -1    0    0  501    0  0.00000000000E+00  0.00000000000E+00  0.18189107014E+03  0.18189107014E+03  0.00000000000E+00 0. -1.
         -2   -1    0    0    0  501 -0.00000000000E+00 -0.00000000000E+00 -0.24635232331E+03  0.24635232331E+03  0.00000000000E+00 0.  1.
         25    2    1    2    0    0 -0.15615841480E+03 -0.57298722725E+02 -0.10676483531E+03  0.23391174893E+03  0.12508949632E+03 0.  0.
          5    1    3    3  502    0 -0.13791948897E+03 -0.29577194484E+02 -0.13104705335E+03  0.19258088811E+03  0.41800000000E+01 0.  1.
         -5    1    3    3    0  502 -0.18238925824E+02 -0.27721528242E+02  0.24282218039E+02  0.41330860821E+02  0.41800000000E+01 0.  1.
        -11    1    1    2    0    0 -0.20069070045E+01  0.25338071827E+02 -0.55639387224E+01  0.26019280808E+02  0.00000000000E+00 0.  1.
         11    1    1    2    0    0  0.15816532180E+03  0.31960650898E+02  0.47867520857E+02  0.16831236372E+03  0.00000000000E+00 0. -1.
</event>
<event>
 7    1  0.2556591E-009  0.1218077E+03  0.7561462E-02  0.1240144E+00
         -2   -1    0    0    0  501 -0.00000000000E+00  0.00000000000E+00  0.12029359130E+03  0.12029359130E+03  0.00000000000E+00 0.  1.
          2   -1    0    0  501    0  0.00000000000E+00 -0.00000000000E+00 -0.14591045880E+03  0.14591045880E+03  0.00000000000E+00 0. -1.
         25    2    1    2    0    0  0.23119878353E+02 -0.45815432196E+02  0.29107500542E+02  0.13830500352E+03  0.12508974701E+03 0.  0.
          5    1    3    3  502    0  0.42493795603E+02  0.28526892163E+02 -0.94999220889E+01  0.52222860520E+02  0.41800000000E+01 0. -1.
         -5    1    3    3    0  502 -0.19373917250E+02 -0.74342324360E+02  0.38607422631E+02  0.86082142997E+02  0.41800000000E+01 0. -1.
        -11    1    1    2    0    0 -0.11570353813E+02  0.79178471731E+02 -0.33853543939E+02  0.86885936205E+02  0.00000000000E+00 0. -1.
         11    1    1    2    0    0 -0.11549524540E+02 -0.33363039535E+02 -0.20870824107E+02  0.41013110379E+02  0.00000000000E+00 0.  1.
</event>
<event>
 7    1  0.2556591E-009  0.1049995E+03  0.7561462E-02  0.1270121E+00
         -1   -1    0    0    0  501 -0.00000000000E+00  0.00000000000E+00  0.22328642615E+03  0.22328642615E+03  0.00000000000E+00 0.  1.
          1   -1    0    0  501    0  0.00000000000E+00 -0.00000000000E+00 -0.53628439822E+02  0.53628439822E+02  0.00000000000E+00 0. -1.
         25    2    1    2    0    0  0.26613733094E+01 -0.30200166737E+02  0.77843799781E+02  0.15042518040E+03  0.12509574236E+03 0.  0.
          5    1    3    3  502    0 -0.45134428862E+02 -0.53400381522E+02  0.65109369262E+02  0.95631688164E+02  0.41800000000E+01 0.  1.
         -5    1    3    3    0  502  0.47795802171E+02  0.23200214785E+02  0.12734430519E+02  0.54793492241E+02  0.41800000000E+01 0.  1.
        -11    1    1    2    0    0 -0.33682323111E+02 -0.10688403270E+02  0.43018599772E+02  0.55671723352E+02  0.00000000000E+00 0.  1.
         11    1    1    2    0    0  0.31020949802E+02  0.40888570007E+02  0.48795586778E+02  0.70817962218E+02  0.00000000000E+00 0. -1.
</event>
<event>
 7    1  0.2556591E-009  0.1604576E+03  0.7561462E-02  0.1188181E+00
          1   -1    0    0  501    0  0.00000000000E+00  0.00000000000E+00  0.35026121663E+02  0.35026121663E+02  0.00000000000E+00 0. -1.
         -1   -1    0    0    0  501 -0.00000000000E+00 -0.00000000000E+00 -0.91772733523E+03  0.91772733523E+03  0.00000000000E+00 0.  1.
         25    2    1    2    0    0  0.13598891880E+03 -0.11093170613E+02 -0.36980583342E+03  0.41354645843E+03  0.12509306288E+03 0.  0.
          5    1    3    3  502    0 -0.92348243899E+01 -0.16394592388E+01 -0.14719846266E+03  0.14755619139E+03  0.41800000000E+01 0. -1.
         -5    1    3    3    0  502  0.14522374319E+03 -0.94537113741E+01 -0.22260737076E+03  0.26599026705E+03  0.41800000000E+01 0. -1.
        -11    1    1    2    0    0 -0.10150343477E+03 -0.35107608565E+02 -0.36492570859E+03  0.38040276581E+03  0.00000000000E+00 0.  1.
         11    1    1    2    0    0 -0.34485484031E+02  0.46200779178E+02 -0.14796967155E+03  0.15880423264E+03  0.00000000000E+00 0. -1.
</event>
<event>
 7    1  0.2556591E-009  0.2229955E+03  0.7561462E-02  0.1131669E+00
         -2   -1    0    0    0  501 -0.00000000000E+00  0.00000000000E+00  0.52640073643E+02  0.52640073643E+02  0.00000000000E+00 0.  1.
          2   -1    0    0  501    0  0.00000000000E+00 -0.00000000000E+00 -0.97593831230E+03  0.97593831230E+03  0.00000000000E+00 0. -1.
         25    2    1    2    0    0 -0.57736879446E+02 -0.19399820970E+03 -0.47171894739E+03  0.52833347633E+03  0.12509454131E+03 0.  0.
          5    1    3    3  502    0 -0.90087493938E+02 -0.11889962599E+03 -0.36099660456E+03  0.39062629011E+03  0.41800000000E+01 0.  1.
         -5    1    3    3    0  502  0.32350614493E+02 -0.75098583703E+02 -0.11072234283E+03  0.13770718621E+03  0.41800000000E+01 0.  1.
        -11    1    1    2    0    0  0.68531481852E+02  0.10600381683E+03 -0.27902176279E+03  0.30624584454E+03  0.00000000000E+00 0.  1.
         11    1    1    2    0    0 -0.10794602406E+02  0.87994392870E+02 -0.17255752848E+03  0.19399906509E+03  0.00000000000E+00 0. -1.
</event>
<event>
 7    1  0.2556591E-009  0.1712788E+03  0.7561462E-02  0.1176521E+00
          1   -1    0    0  501    0  0.00000000000E+00  0.00000000000E+00  0.99132834275E+03  0.99132834275E+03  0.00000000000E+00 0. -1.
         -1   -1    0    0    0  501 -0.00000000000E+00 -0.00000000000E+00 -0.36361961394E+02  0.36361961394E+02  0.00000000000E+00 0.  1.
         25    2    1    2    0    0 -0.16538276674E+02 -0.15381204781E+03  0.55050694929E+03  0.58535291398E+03  0.12509385290E+03 0.  0.
          5    1    3    3  502    0  0.23483137897E+02 -0.29176222339E+02  0.28724629618E+02  0.47384453802E+02  0.41800000000E+01 0. -1.
         -5    1    3    3    0  502 -0.40021414571E+02 -0.12463582547E+03  0.52178231967E+03  0.53796846017E+03  0.41800000000E+01 0. -1.
        -11    1    1    2    0    0 -0.30908807525E+02  0.39661794144E+02  0.73585035075E+02  0.89124461762E+02  0.00000000000E+00 0.  1.
         11    1    1    2    0    0  0.47447084199E+02  0.11415025367E+03  0.33087439699E+03  0.35321292841E+03  0.00000000000E+00 0. -1.
</event>
<event>
 7    1  0.2556591E-009  0.1091139E+03  0.7561462E-02  0.1262220E+00
         -1   -1    0    0    0  501 -0.00000000000E+00  0.00000000000E+00  0.74164890569E+03  0.74164890569E+03  0.00000000000E+00 0.  1.
          1   -1    0    0  501    0  0.00000000000E+00 -0.00000000000E+00 -0.20765710795E+02  0.20765710795E+02  0.00000000000E+00 0. -1.
         25    2    1    2    0    0 -0.43165273842E+02 -0.34847002306E+02  0.46238152439E+03  0.48220560148E+03  0.12509202039E+03 0.  0.
          5    1    3    3  502    0 -0.38945981768E+02  0.28640359240E+02  0.34700513930E+03  0.35038136191E+03  0.41800000000E+01 0. -1.
         -5    1    3    3    0  502 -0.42192920740E+01 -0.63487361546E+02  0.11537638509E+03  0.13182423957E+03  0.41800000000E+01 0. -1.
        -11    1    1    2    0    0  0.81391768003E+01  0.61430946445E+02  0.12260438458E+03  0.13737482483E+03  0.00000000000E+00 0.  1.
         11    1    1    2    0    0  0.35026097042E+02 -0.26583944139E+02  0.13589728593E+03  0.14283419017E+03  0.00000000000E+00 0. -1.
</event>
<event>
 7    1  0.2556591E-009  0.1172125E+03  0.7561462E-02  0.1247768E+00
         -3   -1    0    0    0  501 -0.00000000000E+00  0.00000000000E+00  0.22611856238E+03  0.22611856238E+03  0.00000000000E+00 0.  1.
          3   -1    0    0  501    0  0.00000000000E+00 -0.00000000000E+00 -0.71093397038E+02  0.71093397038E+02  0.00000000000E+00 0. -1.
         25    2    1    2    0    0  0.43573268975E+01 -0.50288548536E+02  0.12758248504E+03  0.18566401511E+03  0.12508361845E+03 0.  0.
          5    1    3    3  502    0  0.50545832681E+02  0.96915609282E+01  0.23091902471E+02  0.56564263580E+02  0.41800000000E+01 0.  1.
         -5    1    3    3    0  502 -0.46188505783E+02 -0.59980109464E+02  0.10449058257E+03  0.12909975153E+03  0.41800000000E+01 0.  1.
        -11    1    1    2    0    0 -0.48821128263E+01 -0.28129781243E+02  0.26369935557E+00  0.28551517574E+02  0.00000000000E+00 0. -1.
         11    1    1    2    0    0  0.52478592882E+00  0.78418329779E+02  0.27178980939E+02  0.82996426733E+02  0.00000000000E+00 0.  1.
</event>
<event>
 7    1  0.2556591E-009  0.1088723E+03  0.7561462E-02  0.1262673E+00
         -2   -1    0    0    0  501 -0.00000000000E+00  0.00000000000E+00  0.36797846909E+02  0.36797846909E+02  0.00000000000E+00 0.  1.
          2   -1    0    0  501    0  0.00000000000E+00 -0.00000000000E+00 -0.13909817196E+04  0.13909817196E+04  0.00000000000E+00 0. -1.
         25    2    1    2    0    0  0.45456376244E+02 -0.93284762804E+02 -0.12286522583E+04  0.12393557779E+04  0.12509213981E+03 0.  0.
          5    1    3    3  502    0  0.46297481711E+02 -0.43186519142E+02 -0.10904006714E+04  0.10922452238E+04  0.41800000000E+01 0.  1.
         -5    1    3    3    0  502 -0.84110546714E+00 -0.50098243662E+02 -0.13825158685E+03  0.14711055415E+03  0.41800000000E+01 0.  1.
        -11    1    1    2    0    0 -0.33698230618E+02  0.75689204775E+02 -0.26248629300E+02  0.86910396423E+02  0.00000000000E+00 0.  1.
         11    1    1    2    0    0 -0.11758145626E+02  0.17595558029E+02 -0.99282985101E+02  0.10151339213E+03  0.00000000000E+00 0. -1.
</event>
<event>
 7    1  0.2556591E-009  0.1163284E+03  0.7561462E-02  0.1249280E+00
          1   -1    0    0  501    0  0.00000000000E+00  0.00000000000E+00  0.25039464305E+02  0.25039464305E+02  0.00000000000E+00 0. -1.
         -1   -1    0    0    0  501 -0.00000000000E+00 -0.00000000000E+00 -0.67664094073E+03  0.67664094073E+03  0.00000000000E+00 0.  1.
         25    2    1    2    0    0  0.38796431752E+02 -0.45967616507E+02 -0.47247623305E+03  0.49244287046E+03  0.12509198610E+03 0.  0.
          5    1    3    3  502    0  0.55149538781E+02  0.25117661140E+02 -0.15081581409E+03  0.16258920846E+03  0.41800000000E+01 0.  1.
         -5    1    3    3    0  502 -0.16353107030E+02 -0.71085277648E+02 -0.32166041896E+03  0.32985366200E+03  0.41800000000E+01 0.  1.
        -11    1    1    2    0    0  0.58803993555E+01  0.53259342469E+02 -0.13815544829E+03  0.14818253794E+03  0.00000000000E+00 0.  1.
         11    1    1    2    0    0 -0.44676831107E+02 -0.72917259619E+01 -0.40969795085E+02  0.61054996639E+02  0.00000000000E+00 0. -1.
</event>
<event>
 7    1  0.2556591E-009  0.1312434E+03  0.7561462E-02  0.1225622E+00
         -1   -1    0    0    0  501 -0.00000000000E+00  0.00000000000E+00  0.16230093797E+03  0.16230093797E+03  0.00000000000E+00 0.  1.
          1   -1    0    0  501    0  0.00000000000E+00 -0.00000000000E+00 -0.17986008648E+03  0.17986008648E+03  0.00000000000E+00 0. -1.
         25    2    1    2    0    0  0.12282065036E+03  0.33817295245E+02 -0.41509317136E+02  0.18330216753E+03  0.12509252416E+03 0.  0.
          5    1    3    3  502    0  0.10991618090E+03  0.32597352599E+02  0.23309344208E+02  0.11706815172E+03  0.41800000000E+01 0.  1.
         -5    1    3    3    0  502  0.12904469461E+02  0.12199426457E+01 -0.64818661344E+02  0.66234015812E+02  0.41800000000E+01 0.  1.
        -11    1    1    2    0    0 -0.16955706651E+02 -0.21771633441E+02 -0.28869693876E+02  0.39936940734E+02  0.00000000000E+00 0. -1.
         11    1    1    2    0    0 -0.10586494371E+03 -0.12045661804E+02  0.52819862500E+02  0.11892191619E+03  0.00000000000E+00 0.  1.
</event>
<event>
 7    1  0.2956359E-009  0.1787026E+03  0.7561462E-02  0.1169065E+00
         -2   -1    0    0    0  501 -0.00000000000E+00  0.00000000000E+00  0.43822990454E+02  0.43822990454E+02  0.00000000000E+00 0.  1.
          2   -1    0    0  501    0  0.00000000000E+00 -0.00000000000E+00 -0.89778290630E+03  0.89778290630E+03  0.00000000000E+00 0. -1.
         25    2    1    2    0    0 -0.15710838024E+03 -0.49186651263E+02 -0.40646349180E+03  0.45602849438E+03  0.12508815978E+03 0.  0.
          5    1    3    3  502    0  0.60775188362E+01  0.14019542076E+02 -0.28581620039E+01  0.16097368892E+02  0.41800000000E+01 0.  1.
         -5    1    3    3    0  502 -0.16318589908E+03 -0.63206193339E+02 -0.40360532980E+03  0.43993112549E+03  0.41800000000E+01 0.  1.
        -11    1    1    2    0    0  0.87525663885E+02  0.40330395237E+02 -0.13856315964E+03  0.16878101738E+03  0.00000000000E+00 0.  1.
         11    1    1    2    0    0  0.69582716359E+02  0.88562560270E+01 -0.30893326441E+03  0.31679638499E+03  0.00000000000E+00 0. -1.
</event>
<event>
 7    1  0.2556591E-009  0.1123298E+03  0.7561462E-02  0.1256315E+00
         -1   -1    0    0    0  501 -0.00000000000E+00  0.00000000000E+00  0.10137167231E+03  0.10137167231E+03  0.00000000000E+00 0.  1.
          1   -1    0    0  501    0  0.00000000000E+00 -0.00000000000E+00 -0.14295798793E+03  0.14295798793E+03  0.00000000000E+00 0. -1.
         25    2    1    2    0    0 -0.47469420721E+02 -0.85711481123E+01 -0.16805746616E+02  0.13511356578E+03  0.12508569884E+03 0.  0.
          5    1    3    3  502    0 -0.38901882567E+02  0.56264549859E+02 -0.87425718306E+01  0.69086619546E+02  0.41800000000E+01 0. -1.
         -5    1    3    3    0  502 -0.85675381541E+01 -0.64835697971E+02 -0.80631747853E+01  0.66026946235E+02  0.41800000000E+01 0. -1.
        -11    1    1    2    0    0  0.59695455276E+01 -0.32004075245E+02  0.17919025987E+02  0.37161644183E+02  0.00000000000E+00 0. -1.
         11    1    1    2    0    0  0.41499875193E+02  0.40575223358E+02 -0.42699594999E+02  0.72054450276E+02  0.00000000000E+00 0.  1.
</event>
<event>
 7    1  0.2556591E-009  0.1260772E+03  0.7561462E-02  0.1233395E+00
          1   -1    0    0  501    0  0.00000000000E+00  0.00000000000E+00  0.17036911263E+04  0.17036911263E+04  0.00000000000E+00 0. -1.
         -1   -1    0    0    0  501 -0.00000000000E+00 -0.00000000000E+00 -0.13564347111E+02  0.13564347111E+02  0.00000000000E+00 0.  1.
         25    2    1    2    0    0 -0.50610713467E+02 -0.42472415892E+02  0.13820005466E+04  0.13892220248E+04  0.12508786110E+03 0.  0.
          5    1    3    3  502    0 -0.73473272402E+02 -0.72361189811E+02  0.96329478343E+03  0.96880791477E+03  0.41800000000E+01 0. -1.
         -5    1    3    3    0  502  0.22862558935E+02  0.29888773919E+02  0.41870576319E+03  0.42041411006E+03  0.41800000000E+01 0. -1.
        -11    1    1    2    0    0  0.65777620556E+02  0.59207057759E+02  0.22186240191E+03  0.23886208665E+03  0.00000000000E+00 0.  1.
         11    1    1    2    0    0 -0.15166907090E+02 -0.16734641867E+02  0.86263830644E+02  0.89171361919E+02  0.00000000000E+00 0. -1.
</event>
<event>
 7    1  0.2556591E-009  0.9433161E+02  0.7561462E-02  0.1292689E+00
         -2   -1    0    0    0  501 -0.00000000000E+00  0.00000000000E+00  0.26047364619E+02  0.26047364619E+02  0.00000000000E+00 0.  1.
          2   -1    0    0  501    0  0.00000000000E+00 -0.00000000000E+00 -0.50480006411E+03  0.50480006411E+03  0.00000000000E+00 0. -1.
         25    2    1    2    0    0 -0.27882869848E+02 -0.78612118456E+01 -0.37475498018E+03  0.39613904251E+03  0.12508234390E+03 0.  0.
          5    1    3    3  502    0  0.11784203245E+02  0.52902905453E+02 -0.18923744164E+03  0.19689049385E+03  0.41800000000E+01 0. -1.
         -5    1    3    3    0  502 -0.39667073094E+02 -0.60764117299E+02 -0.18551753854E+03  0.19924854866E+03  0.41800000000E+01 0. -1.
        -11    1    1    2    0    0  0.23984145079E+02  0.30412080394E+02 -0.10488288120E+03  0.11180587023E+03  0.00000000000E+00 0. -1.
         11    1    1    2    0    0  0.38987247693E+01 -0.22550868549E+02  0.88516188043E+00  0.22902515990E+02  0.00000000000E+00 0.  1.
</event>
<event>
 7    1  0.2556591E-009  0.2867854E+03  0.7561462E-02  0.1092040E+00
         -3   -1    0    0    0  501 -0.00000000000E+00  0.00000000000E+00  0.21942166228E+03  0.21942166228E+03  0.00000000000E+00 0.  1.
          3   -1    0    0  501    0  0.00000000000E+00 -0.00000000000E+00 -0.39444584077E+03  0.39444584077E+03  0.00000000000E+00 0. -1.
         25    2    1    2    0    0  0.26894339449E+03  0.46382900246E+02 -0.76749648791E+02  0.30987112813E+03  0.12509070541E+03 0.  0.
          5    1    3    3  502    0  0.57503273872E+02 -0.41451968887E+02 -0.13268675044E+02  0.72238648713E+02  0.41800000000E+01 0. -1.
         -5    1    3    3    0  502  0.21144012062E+03  0.87834869133E+02 -0.63480973747E+02  0.23763247941E+03  0.41800000000E+01 0. -1.
        -11    1    1    2    0    0 -0.12931986044E+03 -0.12745591266E+02 -0.93880327696E+02  0.16031092392E+03  0.00000000000E+00 0. -1.
         11    1    1    2    0    0 -0.13962353405E+03 -0.33637308981E+02 -0.43942020007E+01  0.14368545100E+03  0.00000000000E+00 0.  1.
</event>
<event>
 7    1  0.2556591E-009  0.2245203E+03  0.7561462E-02  0.1130557E+00
         -1   -1    0    0    0  501 -0.00000000000E+00  0.00000000000E+00  0.34096432024E+03  0.34096432024E+03  0.00000000000E+00 0.  1.
          1   -1    0    0  501    0  0.00000000000E+00 -0.00000000000E+00 -0.18104332442E+03  0.18104332442E+03  0.00000000000E+00 0. -1.
         25    2    1    2    0    0  0.18791885576E+03 -0.11689063046E+03  0.51636244759E+02  0.25940325465E+03  0.12508729317E+03 0.  0.
          5    1    3    3  502    0  0.67622940343E+02 -0.31853882063E+02 -0.40972803470E+02  0.85345034344E+02  0.41800000000E+01 0. -1.
         -5    1    3    3    0  502  0.12029591542E+03 -0.85036748393E+02  0.92609048229E+02  0.17405822031E+03  0.41800000000E+01 0. -1.
        -11    1    1    2    0    0 -0.15468994978E+03  0.71168353073E+02  0.11531266732E+03  0.20564757788E+03  0.00000000000E+00 0.  1.
         11    1    1    2    0    0 -0.33228905984E+02  0.45722277383E+02 -0.70279162619E+01  0.56956812139E+02  0.00000000000E+00 0. -1.
</event>
<event>
 7    1  0.2556591E-009  0.1334651E+03  0.7561462E-02  0.1222403E+00
         -2   -1    0    0    0  501 -0.00000000000E+00  0.00000000000E+00  0.62328759636E+02  0.62328759636E+02  0.00000000000E+00 0.  1.
          2   -1    0    0  501    0  0.00000000000E+00 -0.00000000000E+00 -0.38621269111E+03  0.38621269111E+03  0.00000000000E+00 0. -1.
         25    2    1    2    0    0 -0.81109796569E+02  0.73122993174E+02 -0.19317450803E+03  0.25473360033E+03  0.12508815032E+03 0.  0.
          5    1    3    3  502    0 -0.50759677247E+02  0.89057788761E+02 -0.19479798296E+03  0.22016257888E+03  0.41800000000E+01 0. -1.
         -5    1    3    3    0  502 -0.30350119322E+02 -0.15934795586E+02  0.16234749244E+01  0.34571021450E+02  0.41800000000E+01 0. -1.
        -11    1    1    2    0    0  0.94041690282E+02 -0.61103126139E+02 -0.13513125812E+03  0.17560719933E+03  0.00000000000E+00 0. -1.
         11    1    1    2    0    0 -0.12931893713E+02 -0.12019867035E+02  0.44218346717E+01  0.18200651098E+02  0.00000000000E+00 0.  1.
</event>
<event>
 7    1  0.2556591E-009  0.2294583E+03  0.7561462E-02  0.1127022E+00
         -1   -1    0    0    0  501 -0.00000000000E+00  0.00000000000E+00  0.48199171075E+03  0.48199171075E+03  0.00000000000E+00 0.  1.
          1   -1    0    0  501    0  0.00000000000E+00 -0.00000000000E+00 -0.12154021364E+03  0.12154021364E+03  0.00000000000E+00 0. -1.
         25    2    1    2    0    0  0.21150663317E+03 -0.36180363374E+02  0.15693285202E+03  0.29380129036E+03  0.12508878290E+03 0.  0.
          5    1    3    3  502    0  0.64451402899E+02  0.20630458090E+02 -0.47195535767E+01  0.67965768756E+02  0.41800000000E+01 0.  1.
         -5    1    3    3    0  502  0.14705523027E+03 -0.56810821463E+02  0.16165240560E+03  0.22583552161E+03  0.41800000000E+01 0.  1.
        -11    1    1    2    0    0 -0.50671850145E+02  0.51003357822E+02  0.59242971930E+02  0.93159586889E+02  0.00000000000E+00 0.  1.
         11    1    1    2    0    0 -0.16083478302E+03 -0.14822994448E+02  0.14427567316E+03  0.21657104714E+03  0.00000000000E+00 0. -1.
</event>
<event>
 7    1  0.2556591E-009  0.1648804E+03  0.7561462E-02  0.1183294E+00
          2   -1    0    0  501    0  0.00000000000E+00  0.00000000000E+00  0.70399931182E+03  0.70399931182E+03  0.00000000000E+00 0. -1.
         -2   -1    0    0    0  501 -0.00000000000E+00 -0.00000000000E+00 -0.46381310490E+02  0.46381310490E+02  0.00000000000E+00 0.  1.
         25    2    1    2    0    0 -0.82452659444E+02 -0.11249768176E+03  0.26989789954E+03  0.32855036811E+03  0.12508516604E+03 0.  0.
          5    1    3    3  502    0 -0.12383153135E+02 -0.10128362661E+03  0.21736906401E+03  0.24016348159E+03  0.41800000000E+01 0.  1.
         -5    1    3    3    0  502 -0.70069506309E+02 -0.11214055144E+02  0.52528835523E+02  0.88386886519E+02  0.41800000000E+01 0.  1.
        -11    1    1    2    0    0  0.90828589618E+02  0.74006885964E+02  0.21683276585E+03  0.24646155929E+03  0.00000000000E+00 0.  1.
         11    1    1    2    0    0 -0.83759301739E+01  0.38490795794E+02  0.17088733595E+03  0.17536869491E+03  0.00000000000E+00 0. -1.
</event>
<event>
 7    1  0.2556591E-009  0.1126226E+03  0.7561462E-02  0.1255789E+00
         -2   -1    0    0    0  501 -0.00000000000E+00  0.00000000000E+00  0.14420189349E+03  0.14420189349E+03  0.00000000000E+00 0. -1.
          2   -1    0    0  501    0  0.00000000000E+00 -0.00000000000E+00 -0.12200235714E+03  0.12200235714E+03  0.00000000000E+00 0.  1.
         25    2    1    2    0    0  0.16072288246E+02 -0.45482003224E+02  0.73248766269E+02  0.15277194915E+03  0.12508779165E+03 0.  0.
          5    1    3    3  502    0 -0.17047933800E+02  0.35389399809E+02  0.47067378529E+02  0.61447963248E+02  0.41800000000E+01 0.  1.
         -5    1    3    3    0  502  0.33120222046E+02 -0.80871403033E+02  0.26181387740E+02  0.91323985901E+02  0.41800000000E+01 0.  1.
        -11    1    1    2    0    0 -0.33232052363E+02 -0.14209254164E+02 -0.32518134301E+02  0.48617910965E+02  0.00000000000E+00 0.  1.
         11    1    1    2    0    0  0.17159764117E+02  0.59691257388E+02 -0.18531095614E+02  0.64814390515E+02  0.00000000000E+00 0. -1.
</event>
<event>
 7    1  0.2556591E-009  0.1013128E+03  0.7561462E-02  0.1277559E+00
          2   -1    0    0  501    0  0.00000000000E+00  0.00000000000E+00  0.13844751001E+04  0.13844751001E+04  0.00000000000E+00 0. -1.
         -2   -1    0    0    0  501 -0.00000000000E+00 -0.00000000000E+00 -0.20375509923E+02  0.20375509923E+02  0.00000000000E+00 0.  1.
         25    2    1    2    0    0 -0.85564981230E+02 -0.44083671026E+02  0.10803065005E+04  0.10917759091E+04  0.12509102494E+03 0.  0.
          5    1    3    3  502    0  0.29778863017E+01  0.17240549399E+01  0.65116730399E+03  0.65118981131E+03  0.41800000000E+01 0.  1.
         -5    1    3    3    0  502 -0.88542867531E+02 -0.45807725966E+02  0.42913919655E+03  0.44058609779E+03  0.41800000000E+01 0.  1.
        -11    1    1    2    0    0  0.50473598945E+02  0.17542227195E+02  0.25489294910E+03  0.26043373328E+03  0.00000000000E+00 0. -1.
         11    1    1    2    0    0  0.35091382285E+02  0.26541443831E+02  0.28900140525E+02  0.52640967636E+02  0.00000000000E+00 0.  1.
</event>
<event>
 7    1  0.2556591E-009  0.9166041E+02  0.7561462E-02  0.1298880E+00
          2   -1    0    0  501    0  0.00000000000E+00  0.00000000000E+00  0.34902279473E+02  0.34902279473E+02  0.00000000000E+00 0.  1.
         -2   -1    0    0    0  501 -0.00000000000E+00 -0.00000000000E+00 -0.75828789539E+03  0.75828789539E+03  0.00000000000E+00 0. -1.
         25    2    1    2    0    0  0.73843677245E+02 -0.18819375635E+02 -0.62481726603E+03  0.64175711450E+03  0.12509404665E+03 0.  0.
          5    1    3    3  502    0  0.20845412329E+02 -0.30488391794E+02 -0.53804436445E+03  0.53932669484E+03  0.41800000000E+01 0.  1.
         -5    1    3    3    0  502  0.52998264916E+02  0.11669016160E+02 -0.86772901584E+02  0.10243041966E+03  0.41800000000E+01 0.  1.
        -11    1    1    2    0    0 -0.46758826042E+02 -0.14339834713E+02 -0.57870647812E+01  0.49249454730E+02  0.00000000000E+00 0.  1.
         11    1    1    2    0    0 -0.27084851203E+02  0.33159210348E+02 -0.92781285100E+02  0.10218360563E+03  0.00000000000E+00 0. -1.
</event>
<event>
 7    1  0.2556591E-009  0.1096814E+03  0.7561462E-02  0.1261161E+00
         -3   -1    0    0    0  501 -0.00000000000E+00  0.00000000000E+00  0.28501752471E+02  0.28501752471E+02  0.00000000000E+00 0.  1.
          3   -1    0    0  501    0  0.00000000000E+00 -0.00000000000E+00 -0.42966105474E+03  0.42966105474E+03  0.00000000000E+00 0. -1.
         25    2    1    2    0    0  0.17867482888E+02 -0.12747738682E+02 -0.23984509015E+03  0.27139444094E+03  0.12509006162E+03 0.  0.
          5    1    3    3  502    0  0.62533363965E+02 -0.38456718624E+02 -0.16245111087E+03  0.17831762852E+03  0.41800000000E+01 0. -1.
         -5    1    3    3    0  502 -0.44665881077E+02  0.25708979942E+02 -0.77393979279E+02  0.93076812422E+02  0.41800000000E+01 0. -1.
        -11    1    1    2    0    0  0.37513333148E+02  0.92397708549E+01 -0.65604230503E+02  0.76135002391E+02  0.00000000000E+00 0.  1.
         11    1    1    2    0    0 -0.55380816036E+02  0.35079678267E+01 -0.95709981619E+02  0.11063336389E+03  0.00000000000E+00 0. -1.
</event>
<event>
 7    1  0.2556591E-009  0.8464917E+02  0.7561462E-02  0.1316353E+00
          2   -1    0    0  501    0  0.00000000000E+00  0.00000000000E+00  0.28264961135E+03  0.28264961135E+03  0.00000000000E+00 0. -1.
         -2   -1    0    0    0  501 -0.00000000000E+00 -0.00000000000E+00 -0.42769987462E+02  0.42769987462E+02  0.00000000000E+00 0.  1.
         25    2    1    2    0    0 -0.19256354161E+02 -0.19603838304E+01  0.14291608715E+03  0.19090992311E+03  0.12508773120E+03 0.  0.
          5    1    3    3  502    0  0.40102849410E+02  0.14145528732E+02  0.92592922869E+01  0.43721178022E+02  0.41800000000E+01 0.  1.
         -5    1    3    3    0  502 -0.59359203571E+02 -0.16105912562E+02  0.13365679487E+03  0.14718874509E+03  0.41800000000E+01 0.  1.
        -11    1    1    2    0    0 -0.39357550998E+00 -0.28592561604E+02  0.93781587624E+02  0.98044253570E+02  0.00000000000E+00 0. -1.
         11    1    1    2    0    0  0.19649929671E+02  0.30552945435E+02  0.31819491117E+01  0.36465422128E+02  0.00000000000E+00 0.  1.
</event>
<event>
 7    1  0.2556591E-009  0.1712918E+03  0.7561462E-02  0.1176507E+00
          2   -1    0    0  501    0  0.00000000000E+00  0.00000000000E+00  0.21231066839E+03  0.21231066839E+03  0.00000000000E+00 0. -1.
         -2   -1    0    0    0  501 -0.00000000000E+00 -0.00000000000E+00 -0.15691959970E+03  0.15691959970E+03  0.00000000000E+00 0.  1.
         25    2    1    2    0    0 -0.14428510076E+03 -0.22428009771E+02  0.41660777205E+02  0.19673450372E+03  0.12509052191E+03 0.  0.
          5    1    3    3  502    0 -0.88867129223E+02  0.47154868362E+02  0.37951334174E+02  0.10760448147E+03  0.41800000000E+01 0. -1.
         -5    1    3    3    0  502 -0.55417971542E+02 -0.69582878133E+02  0.37094430303E+01  0.89130022252E+02  0.41800000000E+01 0. -1.
        -11    1    1    2    0    0  0.13443147215E+02 -0.11478911276E+02  0.31547509349E+02  0.36162535272E+02  0.00000000000E+00 0. -1.
         11    1    1    2    0    0  0.13084195355E+03  0.33906921047E+02 -0.17817217857E+02  0.13633322910E+03  0.00000000000E+00 0.  1.
</event>
<event>
 7    1  0.2556591E-009  0.8797970E+02  0.7561462E-02  0.1307819E+00
         -1   -1    0    0    0  501 -0.00000000000E+00  0.00000000000E+00  0.98305916536E+01  0.98305916536E+01  0.00000000000E+00 0.  1.
          1   -1    0    0  501    0  0.00000000000E+00 -0.00000000000E+00 -0.17418187300E+04  0.17418187300E+04  0.00000000000E+00 0. -1.
         25    2    1    2    0    0  0.37855620820E+02  0.44288792531E+02 -0.12526348657E+04  0.12602125992E+04  0.12508854111E+03 0.  0.
          5    1    3    3  502    0  0.35090609088E+02  0.49531987124E+02 -0.24134972304E+03  0.24890144597E+03  0.41800000000E+01 0. -1.
         -5    1    3    3    0  502  0.27650117317E+01 -0.52431945929E+01 -0.10112851427E+04  0.10113111532E+04  0.41800000000E+01 0. -1.
        -11    1    1    2    0    0 -0.35753391593E+02 -0.71831373078E+02 -0.37512674813E+03  0.38361195020E+03  0.00000000000E+00 0.  1.
         11    1    1    2    0    0 -0.21022292274E+01  0.27542580547E+02 -0.10422652449E+03  0.10782477228E+03  0.00000000000E+00 0. -1.
</event>
<event>
 7    1  0.2556591E-009  0.1552750E+03  0.7561462E-02  0.1194137E+00
         -2   -1    0    0    0  501 -0.00000000000E+00  0.00000000000E+00  0.14687463721E+03  0.14687463721E+03  0.00000000000E+00 0.  1.
          2   -1    0    0  501    0  0.00000000000E+00 -0.00000000000E+00 -0.23808764107E+03  0.23808764107E+03  0.00000000000E+00 0. -1.
         25    2    1    2    0    0  0.12004549233E+03  0.85163332106E+02 -0.85519898468E+01  0.19334861404E+03  0.12508731613E+03 0.  0.
          5    1    3    3  502    0  0.54134075409E+01  0.33242793167E+02 -0.50315090541E+02  0.60691589325E+02  0.41800000000E+01 0. -1.
         -5    1    3    3    0  502  0.11463208479E+03  0.51920538939E+02  0.41763100694E+02  0.13265702471E+03  0.41800000000E+01 0. -1.
        -11    1    1    2    0    0 -0.80683168662E+02 -0.74738219929E+02 -0.98772321421E+02  0.14782268670E+03  0.00000000000E+00 0. -1.
         11    1    1    2    0    0 -0.39362323665E+02 -0.10425112177E+02  0.16111307400E+02  0.43790977545E+02  0.00000000000E+00 0.  1.
</event>
<event>
 7    1  0.2556591E-009  0.1546334E+03  0.7561462E-02  0.1194892E+00
          3   -1    0    0  501    0  0.00000000000E+00  0.00000000000E+00  0.62776351812E+02  0.62776351812E+02  0.00000000000E+00 0. -1.
         -3   -1    0    0    0  501 -0.00000000000E+00 -0.00000000000E+00 -0.44372988877E+03  0.44372988877E+03  0.00000000000E+00 0.  1.
         25    2    1    2    0    0 -0.96150696769E+02 -0.79494712370E+02 -0.17353049411E+03  0.24763792865E+03  0.12508935021E+03 0.  0.
          5    1    3    3  502    0 -0.16793062071E+02  0.31234459719E+02 -0.61910631362E+02  0.71470253136E+02  0.41800000000E+01 0.  1.
         -5    1    3    3    0  502 -0.79357634697E+02 -0.11072917209E+03 -0.11161986274E+03  0.17616767551E+03  0.41800000000E+01 0.  1.
        -11    1    1    2    0    0  0.30803817378E+02  0.62601151820E+02 -0.45113420121E+02  0.83084294841E+02  0.00000000000E+00 0. -1.
         11    1    1    2    0    0  0.65346879391E+02  0.16893560550E+02 -0.16230962273E+03  0.17578401709E+03  0.00000000000E+00 0.  1.
</event>
<event>
 7    1  0.2556591E-009  0.1003443E+03  0.7561462E-02  0.1279574E+00
         -1   -1    0    0    0  501 -0.00000000000E+00  0.00000000000E+00  0.71662909470E+02  0.71662909470E+02  0.00000000000E+00 0.  1.
          1   -1    0    0  501    0  0.00000000000E+00 -0.00000000000E+00 -0.25592297147E+03  0.25592297147E+03  0.00000000000E+00 0. -1.
         25    2    1    2    0    0 -0.12015909182E+02 -0.58128183304E+02 -0.30315836554E+02  0.14174296959E+03  0.12509497078E+03 0.  0.
          5    1    3    3  502    0  0.54141271023E+02 -0.24330920255E+02  0.43366120619E+01  0.59661960349E+02  0.41800000000E+01 0.  1.
         -5    1    3    3    0  502 -0.66157180205E+02 -0.33797263048E+02 -0.34652448616E+02  0.82081009237E+02  0.41800000000E+01 0.  1.
        -11    1    1    2    0    0 -0.10256622566E+02  0.22994058095E+02  0.12118840529E+01  0.25207016426E+02  0.00000000000E+00 0.  1.
         11    1    1    2    0    0  0.22272531748E+02  0.35134125208E+02 -0.15515610949E+03  0.16063589492E+03  0.00000000000E+00 0. -1.
</event>
<event>
 7    1  0.2556591E-009  0.1164682E+03  0.7561462E-02  0.1249040E+00
         -3   -1    0    0    0  501 -0.00000000000E+00  0.00000000000E+00  0.39916478309E+03  0.39916478309E+03  0.00000000000E+00 0.  1.
          3   -1    0    0  501    0  0.00000000000E+00 -0.00000000000E+00 -0.41552774264E+02  0.41552774264E+02  0.00000000000E+00 0. -1.
         25    2    1    2    0    0  0.53139209040E+02  0.46587999408E+02  0.21351528375E+03  0.25735307570E+03  0.12509041512E+03 0.  0.
          5    1    3    3  502    0  0.52006791498E+02 -0.20524281508E+02  0.33799658707E+02  0.65466341138E+02  0.41800000000E+01 0. -1.
         -5    1    3    3    0  502  0.11324175414E+01  0.67112280916E+02  0.17971562504E+03  0.19188673457E+03  0.41800000000E+01 0. -1.
        -11    1    1    2    0    0 -0.26866217025E+02 -0.69654609088E+02  0.74445514020E+02  0.10543098568E+03  0.00000000000E+00 0. -1.
         11    1    1    2    0    0 -0.26272992015E+02  0.23066609680E+02  0.69651211065E+02  0.77933495971E+02  0.00000000000E+00 0.  1.
</event>
<event>
 7    1  0.2556591E-009  0.1234499E+03  0.7561462E-02  0.1237512E+00
         -1   -1    0    0    0  501 -0.00000000000E+00  0.00000000000E+00  0.28688308063E+02  0.28688308063E+02  0.00000000000E+00 0.  1.
          1   -1    0    0  501    0  0.00000000000E+00 -0.00000000000E+00 -0.75264929974E+03  0.75264929974E+03  0.00000000000E+00 0. -1.
         25    2    1    2    0    0  0.64266309762E+02 -0.11589480121E+02 -0.60312623510E+03  0.61941345887E+03  0.12508917998E+03 0.  0.
          5    1    3    3  502    0  0.46424155453E+02  0.53851905765E+02 -0.35944434185E+03  0.36643271859E+03  0.41800000000E+01 0.  1.
         -5    1    3    3    0  502  0.17842154309E+02 -0.65441385886E+02 -0.24368189325E+03  0.25298074028E+03  0.41800000000E+01 0.  1.
        -11    1    1    2    0    0 -0.73457916511E+01  0.42374125896E+02 -0.45390303828E+02  0.62528448581E+02  0.00000000000E+00 0. -1.
         11    1    1    2    0    0 -0.56920518111E+02 -0.30784645775E+02 -0.75444452758E+02  0.99395700357E+02  0.00000000000E+00 0.  1.
</event>
<event>
 7    1  0.2556591E-009  0.1798661E+03  0.7561462E-02  0.1167933E+00
          2   -1    0    0  501    0  0.00000000000E+00  0.00000000000E+00  0.44643141683E+03  0.44643141683E+03  0.00000000000E+00 0.  1.
         -2   -1    0    0    0  501 -0.00000000000E+00 -0.00000000000E+00 -0.91075422527E+02  0.91075422527E+02  0.00000000000E+00 0. -1.
         25    2    1    2    0    0 -0.34367382874E+02 -0.16613706050E+03  0.17970630821E+03  0.27699200417E+03  0.12509026057E+03 0.  0.
          5    1    3    3  502    0 -0.51946265871E+02 -0.12809807281E+03  0.18868005818E+03  0.23393410943E+03  0.41800000000E+01 0. -1.
         -5    1    3    3    0  502  0.17578882997E+02 -0.38038987684E+02 -0.89737499776E+01  0.43057894748E+02  0.41800000000E+01 0. -1.
        -11    1    1    2    0    0  0.49678774526E+02  0.10293023177E+03  0.15439487454E+03  0.19209474365E+03  0.00000000000E+00 0. -1.
         11    1    1    2    0    0 -0.15311391653E+02  0.63206828724E+02  0.21254811551E+02  0.68420091536E+02  0.00000000000E+00 0.  1.
</event>
<event>
 7    1  0.2556591E-009  0.9353316E+02  0.7561462E-02  0.1294514E+00
         -2   -1    0    0    0  501 -0.00000000000E+00  0.00000000000E+00  0.82835499362E+02  0.82835499362E+02  0.00000000000E+00 0.  1.
          2   -1    0    0  501    0  0.00000000000E+00 -0.00000000000E+00 -0.17646735320E+03  0.17646735320E+03  0.00000000000E+00 0. -1.
         25    2    1    2    0    0 -0.22908370430E+02  0.46855592433E+02 -0.58272950489E+02  0.14752550676E+03  0.12509116039E+03 0.  0.
          5    1    3    3  502    0 -0.20894102685E+02 -0.38092727435E+02 -0.42654729615E+02  0.61028827361E+02  0.41800000000E+01 0.  1.
         -5    1    3    3    0  502 -0.20142677453E+01  0.84948319869E+02 -0.15618220873E+02  0.86496679395E+02  0.41800000000E+01 0.  1.
        -11    1    1    2    0    0  0.20076201221E+02 -0.12032342535E+02 -0.63012764267E+02  0.67219339352E+02  0.00000000000E+00 0. -1.
         11    1    1    2    0    0  0.28321692086E+01 -0.34823249898E+02  0.27653860915E+02  0.44558006457E+02  0.00000000000E+00 0.  1.
</event>
<event>
 7    1  0.2556591E-009  0.2164799E+03  0.7561462E-02  0.1136535E+00
          1   -1    0    0  501    0  0.00000000000E+00  0.00000000000E+00  0.10553095809E+04  0.10553095809E+04  0.00000000000E+00 0. -1.
         -1   -1    0    0    0  501 -0.00000000000E+00 -0.00000000000E+00 -0.53281849348E+02  0.53281849348E+02  0.00000000000E+00 0.  1.
         25    2    1    2    0    0 -0.11062948668E+03  0.17536185973E+03  0.43194875914E+03  0.49519480715E+03  0.12508997294E+03 0.  0.
          5    1    3    3  502    0 -0.67865520517E+02  0.32854741169E+02  0.66595597998E+02  0.10068569394E+03  0.41800000000E+01 0.  1.
         -5    1    3    3    0  502 -0.42763966163E+02  0.14250711856E+03  0.36535316114E+03  0.39450911320E+03  0.41800000000E+01 0.  1.
        -11    1    1    2    0    0  0.61576726456E+02 -0.11819037619E+03  0.46752592700E+03  0.48614930904E+03  0.00000000000E+00 0. -1.
         11    1    1    2    0    0  0.49052760224E+02 -0.57171483530E+02  0.10255304545E+03  0.12724731410E+03  0.00000000000E+00 0.  1.
</event>
<event>
 7    1  0.2556591E-009  0.1878012E+03  0.7561462E-02  0.1160460E+00
          1   -1    0    0  501    0  0.00000000000E+00  0.00000000000E+00  0.59829195463E+02  0.59829195463E+02  0.00000000000E+00 0. -1.
         -1   -1    0    0    0  501 -0.00000000000E+00 -0.00000000000E+00 -0.83812686826E+03  0.83812686826E+03  0.00000000000E+00 0.  1.
         25    2    1    2    0    0 -0.14236744802E+03  0.96211050360E+02 -0.59019496351E+03  0.62729753352E+03  0.12508814548E+03 0.  0.
          5    1    3    3  502    0 -0.89455422201E+02  0.93043181090E+02 -0.53614443469E+03  0.55147768165E+03  0.41800000000E+01 0. -1.
         -5    1    3    3    0  502 -0.52912025818E+02  0.31678692694E+01 -0.54050528826E+02  0.75819851875E+02  0.41800000000E+01 0. -1.
        -11    1    1    2    0    0  0.11435003120E+03 -0.25395748975E+02 -0.98348275439E+02  0.15294854358E+03  0.00000000000E+00 0.  1.
         11    1    1    2    0    0  0.28017416816E+02 -0.70815301384E+02 -0.89754433849E+02  0.11770998662E+03  0.00000000000E+00 0. -1.
</event>
<event>
 7    1  0.2556591E-009  0.1257259E+03  0.7561462E-02  0.1233939E+00
          3   -1    0    0  501    0  0.00000000000E+00  0.00000000000E+00  0.52545048197E+02  0.52545048197E+02  0.00000000000E+00 0. -1.
         -3   -1    0    0    0  501 -0.00000000000E+00 -0.00000000000E+00 -0.30437959072E+03  0.30437959072E+03  0.00000000000E+00 0.  1.
         25    2    1    2    0    0  0.64919963079E+02  0.99199325002E+01 -0.13783911688E+03  0.19738302022E+03  0.12508967927E+03 0.  0.
          5    1    3    3  502    0 -0.34459817579E+02 -0.16015393430E+02 -0.32165677993E+02  0.49960735533E+02  0.41800000000E+01 0.  1.
         -5    1    3    3    0  502  0.99379780657E+02  0.25935325931E+02 -0.10567343889E+03  0.14742228469E+03  0.41800000000E+01 0.  1.
        -11    1    1    2    0    0 -0.29140180270E+02 -0.49271676088E+02 -0.47446919546E+02  0.74350913546E+02  0.00000000000E+00 0.  1.
         11    1    1    2    0    0 -0.35779782808E+02  0.39351743588E+02 -0.66548506093E+02  0.85190705153E+02  0.00000000000E+00 0. -1.
</event>
<event>
 7    1  0.2556591E-009  0.1177352E+03  0.7561462E-02  0.1246881E+00
         -1   -1    0    0    0  501 -0.00000000000E+00  0.00000000000E+00  0.71450859864E+03  0.71450859864E+03  0.00000000000E+00 0.  1.
          1   -1    0    0  501    0  0.00000000000E+00 -0.00000000000E+00 -0.37116744299E+02  0.37116744299E+02  0.00000000000E+00 0. -1.
         25    2    1    2    0    0 -0.76243668957E+02 -0.64910896861E+02  0.52171107374E+03  0.54575811419E+03  0.12507179200E+03 0.  0.
          5    1    3    3  502    0 -0.60020918742E+02 -0.68153517332E+02  0.16297577589E+03  0.18661722466E+03  0.41800000000E+01 0. -1.
         -5    1    3    3    0  502 -0.16222750215E+02  0.32426204716E+01  0.35873529785E+03  0.35914088954E+03  0.41800000000E+01 0. -1.
        -11    1    1    2    0    0  0.91441630463E+02  0.43557884698E+02  0.91322844838E+02  0.13637713551E+03  0.00000000000E+00 0. -1.
         11    1    1    2    0    0 -0.15197961506E+02  0.21353012163E+02  0.64357935761E+02  0.69490093235E+02  0.00000000000E+00 0.  1.
</event>
<event>
 7    1  0.2556591E-009  0.1347558E+03  0.7561462E-02  0.1220565E+00
         -2   -1    0    0    0  501 -0.00000000000E+00  0.00000000000E+00  0.34857656729E+02  0.34857656729E+02  0.00000000000E+00 0.  1.
          2   -1    0    0  501    0  0.00000000000E+00 -0.00000000000E+00 -0.80484036060E+03  0.80484036060E+03  0.00000000000E+00 0. -1.
         25    2    1    2    0    0  0.65180254751E+02  0.10919478771E+03 -0.41304289905E+03  0.44991527306E+03  0.12508936487E+03 0.  0.
          5    1    3    3  502    0  0.23729921585E+02  0.35651952320E+01 -0.31199938251E+01  0.24556599051E+02  0.41800000000E+01 0.  1.
         -5    1    3    3    0  502  0.41450333165E+02  0.10562959248E+03 -0.40992290522E+03  0.42535867401E+03  0.41800000000E+01 0.  1.
        -11    1    1    2    0    0 -0.40447421700E+02 -0.94608734424E+02 -0.34254213466E+03  0.35766174043E+03  0.00000000000E+00 0. -1.
         11    1    1    2    0    0 -0.24732833050E+02 -0.14586053288E+02 -0.14397670156E+02  0.32121003832E+02  0.00000000000E+00 0.  1.
</event>
<event>
 7    1  0.2556591E-009  0.1333760E+03  0.7561462E-02  0.1222531E+00
         -3   -1    0    0    0  501 -0.00000000000E+00  0.00000000000E+00  0.87156163316E+02  0.87156163316E+02  0.00000000000E+00 0.  1.
          3   -1    0    0  501    0  0.00000000000E+00 -0.00000000000E+00 -0.20748810937E+03  0.20748810937E+03  0.00000000000E+00 0. -1.
         25    2    1    2    0    0  0.77243866683E+02 -0.77230661091E+01 -0.80961511980E+02  0.16801286865E+03  0.12508915588E+03 0.  0.
          5    1    3    3  502    0  0.53227258359E+02  0.56785760026E+02 -0.48421867773E+02  0.91760085292E+02  0.41800000000E+01 0. -1.
         -5    1    3    3    0  502  0.24016608324E+02 -0.64508826135E+02 -0.32539644207E+02  0.76252783358E+02  0.41800000000E+01 0. -1.
        -11    1    1    2    0    0  0.20388825740E+02 -0.60025953069E+01 -0.11545387939E+02  0.24187421279E+02  0.00000000000E+00 0. -1.
         11    1    1    2    0    0 -0.97632692423E+02  0.13725661416E+02 -0.27825046138E+02  0.10244398276E+03  0.00000000000E+00 0.  1.
</event>
<event>
 7    1  0.2556591E-009  0.1032001E+03  0.7561462E-02  0.1273707E+00
         -1   -1    0    0    0  501 -0.00000000000E+00  0.00000000000E+00  0.47338634636E+03  0.47338634636E+03  0.00000000000E+00 0.  1.
          1   -1    0    0  501    0  0.00000000000E+00 -0.00000000000E+00 -0.31045590452E+02  0.31045590452E+02  0.00000000000E+00 0. -1.
         25    2    1    2    0    0  0.31014817808E+02  0.27589866755E+02  0.21452538364E+03  0.25177908149E+03  0.12509374876E+03 0.  0.
          5    1    3    3  502    0 -0.37505225476E+02  0.22182498297E+02  0.15399869120E+03  0.16009926439E+03  0.41800000000E+01 0. -1.
         -5    1    3    3    0  502  0.68520043284E+02  0.54073684579E+01  0.60526692442E+02  0.91679817099E+02  0.41800000000E+01 0. -1.
        -11    1    1    2    0    0 -0.25589161942E+02 -0.57726963831E+02  0.20489252231E+03  0.21440184995E+03  0.00000000000E+00 0.  1.
         11    1    1    2    0    0 -0.54256558665E+01  0.30137097076E+02  0.22922849953E+02  0.38251005368E+02  0.00000000000E+00 0. -1.
</event>
<event>
 7    1  0.2556591E-009  0.1171449E+03  0.7561462E-02  0.1247883E+00
          1   -1    0    0  501    0  0.00000000000E+00  0.00000000000E+00  0.14866210407E+03  0.14866210407E+03  0.00000000000E+00 0. -1.
         -1   -1    0    0    0  501 -0.00000000000E+00 -0.00000000000E+00 -0.17438763103E+03  0.17438763103E+03  0.00000000000E+00 0.  1.
         25    2    1    2    0    0 -0.83852257839E+02 -0.56037342695E+02  0.49975795720E+02  0.16826843884E+03  0.12508118337E+03 0.  0.
          5    1    3    3  502    0 -0.31060723222E+02  0.18559407961E+02  0.66008822740E+02  0.75391360449E+02  0.41800000000E+01 0.  1.
         -5    1    3    3    0  502 -0.52791534617E+02 -0.74596750656E+02 -0.16033027020E+02  0.92877078394E+02  0.41800000000E+01 0.  1.
        -11    1    1    2    0    0  0.57612864340E+02  0.18356574227E+02 -0.88435967970E+02  0.10713135109E+03  0.00000000000E+00 0.  1.
         11    1    1    2    0    0  0.26239393499E+02  0.37680768468E+02  0.12734645288E+02  0.47649945164E+02  0.00000000000E+00 0. -1.
</event>
<event>
 7    1  0.2556591E-009  0.1237407E+03  0.7561462E-02  0.1237051E+00
         -2   -1    0    0    0  501 -0.00000000000E+00  0.00000000000E+00  0.38627104755E+02  0.38627104755E+02  0.00000000000E+00 0.  1.
          2   -1    0    0  501    0  0.00000000000E+00 -0.00000000000E+00 -0.54378712653E+03  0.54378712653E+03  0.00000000000E+00 0. -1.
         25    2    1    2    0    0 -0.37301475134E+02  0.59979799505E+02 -0.40840631126E+03  0.43293483924E+03  0.12509150074E+03 0.  0.
          5    1    3    3  502    0 -0.55625081681E+02 -0.18593247674E+02 -0.12329025557E+03  0.13659362389E+03  0.41800000000E+01 0. -1.
         -5    1    3    3    0  502  0.18323606547E+02  0.78573047179E+02 -0.28511605569E+03  0.29634121535E+03  0.41800000000E+01 0. -1.
        -11    1    1    2    0    0  0.63401094995E+02 -0.45575846341E+02 -0.46017768122E+02  0.90633832530E+02  0.00000000000E+00 0.  1.
         11    1    1    2    0    0 -0.26099619861E+02 -0.14403953165E+02 -0.50735942396E+02  0.58845559514E+02  0.00000000000E+00 0. -1.
</event>
<event>
 7    1  0.2556591E-009  0.1095890E+03  0.7561462E-02  0.1261333E+00
         -2   -1    0    0    0  501 -0.00000000000E+00  0.00000000000E+00  0.34982627870E+03  0.34982627870E+03  0.00000000000E+00 0.  1.
          2   -1    0    0  501    0  0.00000000000E+00 -0.00000000000E+00 -0.40326862217E+02  0.40326862217E+02  0.00000000000E+00 0. -1.
         25    2    1    2    0    0 -0.42762143577E+02  0.15642053254E+02  0.16363390718E+03  0.21094641064E+03  0.12509619431E+03 0.  0.
          5    1    3    3  502    0 -0.20290271842E+02  0.70275549606E+02  0.80153526654E+02  0.10859285538E+03  0.41800000000E+01 0.  1.
         -5    1    3    3    0  502 -0.22471871734E+02 -0.54633496352E+02  0.83480380526E+02  0.10235355527E+03  0.41800000000E+01 0.  1.
        -11    1    1    2    0    0  0.16049322820E+02  0.29875354395E+02  0.11072251496E+03  0.11579979656E+03  0.00000000000E+00 0.  1.
         11    1    1    2    0    0  0.26712820757E+02 -0.45517407649E+02  0.35142994337E+02  0.63406933713E+02  0.00000000000E+00 0. -1.
</event>
<event>
 7    1  0.2556591E-009  0.1633930E+03  0.7561462E-02  0.1184918E+00
         -2   -1    0    0    0  501 -0.00000000000E+00  0.00000000000E+00  0.77709238721E+02  0.77709238721E+02  0.00000000000E+00 0.  1.
          2   -1    0    0  501    0  0.00000000000E+00 -0.00000000000E+00 -0.47162835314E+03  0.47162835314E+03  0.00000000000E+00 0. -1.
         25    2    1    2    0    0 -0.44056484202E+02 -0.14840484807E+03 -0.26316906187E+03  0.32995440064E+03  0.12508788368E+03 0.  0.
          5    1    3    3  502    0 -0.54658700956E+02 -0.87114846632E+02 -0.24386030863E+03  0.26469207132E+03  0.41800000000E+01 0.  1.
         -5    1    3    3    0  502  0.10602216755E+02 -0.61290001439E+02 -0.19308753238E+02  0.65262329319E+02  0.41800000000E+01 0.  1.
        -11    1    1    2    0    0  0.52289151945E+02  0.10454564050E+03 -0.50030507661E+02  0.12714951064E+03  0.00000000000E+00 0.  1.
         11    1    1    2    0    0 -0.82326677430E+01  0.43859207570E+02 -0.80719544895E+02  0.92233680589E+02  0.00000000000E+00 0. -1.
</event>
<event>
 7    1  0.2556591E-009  0.2151591E+03  0.7561462E-02  0.1137544E+00
         -2   -1    0    0    0  501 -0.00000000000E+00  0.00000000000E+00  0.64140945340E+03  0.64140945340E+03  0.00000000000E+00 0. -1.
          2   -1    0    0  501    0  0.00000000000E+00 -0.00000000000E+00 -0.11757952124E+03  0.11757952124E+03  0.00000000000E+00 0.  1.
         25    2    1    2    0    0 -0.13464538641E+03  0.15493998625E+03  0.66723709455E+02  0.24947039456E+03  0.12509054695E+03 0.  0.
          5    1    3    3  502    0 -0.12641976110E+03  0.14584033919E+03  0.12209537686E+02  0.19343708471E+03  0.41800000000E+01 0. -1.
         -5    1    3    3    0  502 -0.82256253138E+01  0.90996470600E+01  0.54514171769E+02  0.56033309844E+02  0.41800000000E+01 0. -1.
        -11    1    1    2    0    0 -0.13095964897E+02 -0.56207905692E+01  0.40847111730E+02  0.43261809023E+02  0.00000000000E+00 0. -1.
         11    1    1    2    0    0  0.14774135131E+03 -0.14931919568E+03  0.41625911097E+03  0.46625677105E+03  0.00000000000E+00 0.  1.
</event>
<event>
 7    1  0.2556591E-009  0.9492049E+02  0.7561462E-02  0.1291355E+00
         -1   -1    0    0    0  501 -0.00000000000E+00  0.00000000000E+00  0.89539188785E+02  0.89539188785E+02  0.00000000000E+00 0.  1.
          1   -1    0    0  501    0  0.00000000000E+00 -0.00000000000E+00 -0.14126783553E+03  0.14126783553E+03  0.00000000000E+00 0. -1.
         25    2    1    2    0    0  0.82800048922E+01 -0.24493712414E+01  0.55458863642E+00  0.12538936316E+03  0.12509047495E+03 0.  0.
          5    1    3    3  502    0  0.29908769824E+02 -0.54391112855E+02 -0.19989953897E+02  0.65345224208E+02  0.41800000000E+01 0. -1.
         -5    1    3    3    0  502 -0.21628764932E+02  0.51941741614E+02  0.20544542533E+02  0.60044138950E+02  0.41800000000E+01 0. -1.
        -11    1    1    2    0    0 -0.39125887520E+02  0.78166245393E+01  0.49253174292E+01  0.40201908477E+02  0.00000000000E+00 0.  1.
         11    1    1    2    0    0  0.30845882628E+02 -0.53672532979E+01 -0.57208552812E+02  0.65215752682E+02  0.00000000000E+00 0. -1.
</event>
<event>
 7    1  0.2556591E-009  0.2161665E+03  0.7561462E-02  0.1136774E+00
          2   -1    0    0  501    0  0.00000000000E+00  0.00000000000E+00  0.48143009337E+03  0.48143009337E+03  0.00000000000E+00 0. -1.
         -2   -1    0    0    0  501 -0.00000000000E+00 -0.00000000000E+00 -0.10234680509E+03  0.10234680509E+03  0.00000000000E+00 0.  1.
         25    2    1    2    0    0 -0.58572922914E+02 -0.18661495573E+03  0.19719211416E+03  0.30460985587E+03  0.12508599205E+03 0.  0.
          5    1    3    3  502    0 -0.83170684562E+02 -0.75584917232E+02  0.13218030481E+03  0.17354984259E+03  0.41800000000E+01 0.  1.
         -5    1    3    3    0  502  0.24597761648E+02 -0.11103003850E+03  0.65011809346E+02  0.13106001328E+03  0.41800000000E+01 0.  1.
        -11    1    1    2    0    0  0.72382598509E+02  0.14225156054E+03  0.11101862554E+03  0.19442191816E+03  0.00000000000E+00 0.  1.
         11    1    1    2    0    0 -0.13809675595E+02  0.44363395186E+02  0.70872548571E+02  0.84745124423E+02  0.00000000000E+00 0. -1.
</event>
<event>
 7    1  0.2556591E-009  0.1672463E+03  0.7561462E-02  0.1180750E+00
         -2   -1    0    0    0  501 -0.00000000000E+00  0.00000000000E+00  0.74857244071E+02  0.74857244071E+02  0.00000000000E+00 0.  1.
          2   -1    0    0  501    0  0.00000000000E+00 -0.00000000000E+00 -0.42132605167E+03  0.42132605167E+03  0.00000000000E+00 0. -1.
         25    2    1    2    0    0  0.12593165251E+03 -0.32528480172E+02 -0.26027238064E+03  0.31671140804E+03  0.12509005049E+03 0.  0.
          5    1    3    3  502    0 -0.17326507886E+02 -0.32029657452E+02 -0.44097482043E+02  0.57342542275E+02  0.41800000000E+01 0.  1.
         -5    1    3    3    0  502  0.14325816040E+03 -0.49882272052E+00 -0.21617489860E+03  0.25936886576E+03  0.41800000000E+01 0.  1.
        -11    1    1    2    0    0 -0.18150580596E+02 -0.26124546224E+02 -0.32669382552E+02  0.45598509271E+02  0.00000000000E+00 0. -1.
         11    1    1    2    0    0 -0.10778107192E+03  0.58653026397E+02 -0.53527044407E+02  0.13387337843E+03  0.00000000000E+00 0.  1.
</event>
<event>
 7    1  0.2556591E-009  0.1541159E+03  0.7561462E-02  0.1195505E+00
         -2   -1    0    0    0  501 -0.00000000000E+00  0.00000000000E+00  0.19741500300E+02  0.19741500300E+02  0.00000000000E+00 0.  1.
          2   -1    0    0  501    0  0.00000000000E+00 -0.00000000000E+00 -0.13588676229E+04  0.13588676229E+04  0.00000000000E+00 0. -1.
         25    2    1    2    0    0 -0.11176313039E+03 -0.19375489217E+02 -0.88873362468E+03  0.90463375088E+03  0.12509340786E+03 0.  0.
          5    1    3    3  502    0 -0.12054696114E+03 -0.54540533770E+02 -0.69603514907E+03  0.70851156717E+03  0.41800000000E+01 0. -1.
         -5    1    3    3    0  502  0.87838307563E+01  0.35165044554E+02 -0.19269847561E+03  0.19612218371E+03  0.41800000000E+01 0. -1.
        -11    1    1    2    0    0  0.56234235616E+02  0.50612905244E+02 -0.16441757421E+03  0.18098921001E+03  0.00000000000E+00 0. -1.
         11    1    1    2    0    0  0.55528894769E+02 -0.31237416027E+02 -0.28597492375E+03  0.29298616235E+03  0.00000000000E+00 0.  1.
</event>
<event>
 7    1  0.2556591E-009  0.1350657E+03  0.7561462E-02  0.1220127E+00
         -2   -1    0    0    0  501 -0.00000000000E+00  0.00000000000E+00  0.27802651149E+03  0.27802651149E+03  0.00000000000E+00 0. -1.
          2   -1    0    0  501    0  0.00000000000E+00 -0.00000000000E+00 -0.76314424638E+02  0.76314424638E+02  0.00000000000E+00 0.  1.
         25    2    1    2    0    0  0.44010937879E+02 -0.85809387100E+02  0.89501701480E+02  0.18155299840E+03  0.12510285006E+03 0.  0.
          5    1    3    3  502    0  0.77647198253E+02 -0.66147253480E+02  0.97937648806E+02  0.14147014524E+03  0.41800000000E+01 0.  1.
         -5    1    3    3    0  502 -0.33636260374E+02 -0.19662133620E+02 -0.84359473258E+01  0.40082853163E+02  0.41800000000E+01 0.  1.
        -11    1    1    2    0    0 -0.43745372229E+01  0.88987020560E+02  0.61105371129E+02  0.10803560887E+03  0.00000000000E+00 0.  1.
         11    1    1    2    0    0 -0.39636400656E+02 -0.31776334606E+01  0.51105014247E+02  0.64752328858E+02  0.00000000000E+00 0. -1.
</event>
<event>
 7    1  0.2556591E-009  0.1673606E+03  0.7561462E-02  0.1180629E+00
          3   -1    0    0  501    0  0.00000000000E+00  0.00000000000E+00  0.16219930626E+03  0.16219930626E+03  0.00000000000E+00 0. -1.
         -3   -1    0    0    0  501 -0.00000000000E+00 -0.00000000000E+00 -0.20593635204E+03  0.20593635204E+03  0.00000000000E+00 0.  1.
         25    2    1    2    0    0  0.34781761302E+01  0.13502829494E+03 -0.80224377351E+02  0.20081396667E+03  0.12508221433E+03 0.  0.
          5    1    3    3  502    0  0.40587929869E+02  0.13760127661E+03 -0.47750954564E+02  0.15125844584E+03  0.41800000000E+01 0.  1.
         -5    1    3    3    0  502 -0.37109753739E+02 -0.25729816643E+01 -0.32473422787E+02  0.49555520829E+02  0.41800000000E+01 0.  1.
        -11    1    1    2    0    0 -0.37615111964E+02 -0.87547034127E+02  0.49553370521E+02  0.10740072794E+03  0.00000000000E+00 0. -1.
         11    1    1    2    0    0  0.34136935834E+02 -0.47481260816E+02 -0.13066038946E+02  0.59920963698E+02  0.00000000000E+00 0.  1.
</event>
<event>
 7    1  0.2556591E-009  0.1337674E+03  0.7561462E-02  0.1221970E+00
          1   -1    0    0  501    0  0.00000000000E+00  0.00000000000E+00  0.21499243225E+03  0.21499243225E+03  0.00000000000E+00 0. -1.
         -1   -1    0    0    0  501 -0.00000000000E+00 -0.00000000000E+00 -0.11931623572E+03  0.11931623572E+03  0.00000000000E+00 0.  1.
         25    2    1    2    0    0 -0.75179374593E+02  0.54383145712E+02  0.12546427988E+03  0.19999542568E+03  0.12508964731E+03 0.  0.
          5    1    3    3  502    0 -0.24314100906E+02 -0.32494278171E+02  0.22950440701E+01  0.40863103700E+02  0.41800000000E+01 0.  1.
         -5    1    3    3    0  502 -0.50865273687E+02  0.86877423883E+02  0.12316923581E+03  0.15913232198E+03  0.41800000000E+01 0.  1.
        -11    1    1    2    0    0 -0.19153263409E+02 -0.68148890405E+01 -0.19493592296E+02  0.28165410568E+02  0.00000000000E+00 0.  1.
         11    1    1    2    0    0  0.94332638002E+02 -0.47568256671E+02 -0.10294491058E+02  0.10614783173E+03  0.00000000000E+00 0. -1.
</event>
<event>
 7    1  0.2556591E-009  0.2038405E+03  0.7561462E-02  0.1146539E+00
         -1   -1    0    0    0  501 -0.00000000000E+00  0.00000000000E+00  0.36615878046E+02  0.36615878046E+02  0.00000000000E+00 0.  1.
          1   -1    0    0  501    0  0.00000000000E+00 -0.00000000000E+00 -0.13277387068E+04  0.13277387068E+04  0.00000000000E+00 0. -1.
         25    2    1    2    0    0  0.62683234309E+02 -0.16864164892E+03 -0.46435308900E+03  0.51346393243E+03  0.12510885271E+03 0.  0.
          5    1    3    3  502    0 -0.32529914722E+02 -0.87588319250E+02 -0.21594045609E+03  0.23532458859E+03  0.41800000000E+01 0. -1.
         -5    1    3    3    0  502  0.95213149031E+02 -0.81053329671E+02 -0.24841263291E+03  0.27813934384E+03  0.41800000000E+01 0. -1.
        -11    1    1    2    0    0 -0.48747656977E+02  0.50894309490E+02 -0.17927806624E+03  0.19263226582E+03  0.00000000000E+00 0.  1.
         11    1    1    2    0    0 -0.13935577332E+02  0.11774733943E+03 -0.64749167352E+03  0.65825838660E+03  0.00000000000E+00 0. -1.
</event>
<event>
 7    1  0.2556591E-009  0.2306986E+03  0.7561462E-02  0.1126149E+00
         -1   -1    0    0    0  501 -0.00000000000E+00  0.00000000000E+00  0.22144985979E+03  0.22144985979E+03  0.00000000000E+00 0.  1.
          1   -1    0    0  501    0  0.00000000000E+00 -0.00000000000E+00 -0.33203679549E+03  0.33203679549E+03  0.00000000000E+00 0. -1.
         25    2    1    2    0    0  0.20865845533E+03  0.54527965641E+02  0.68253780323E+02  0.25849123095E+03  0.12508991937E+03 0.  0.
          5    1    3    3  502    0  0.42164326748E+02 -0.19934238884E+02  0.59676808106E+02  0.75855112917E+02  0.41800000000E+01 0. -1.
         -5    1    3    3    0  502  0.16649412859E+03  0.74462204525E+02  0.85769722172E+01  0.18263611803E+03  0.41800000000E+01 0. -1.
        -11    1    1    2    0    0 -0.61372313651E+02 -0.58513955213E+02 -0.86389307357E+02  0.12105187427E+03  0.00000000000E+00 0.  1.
         11    1    1    2    0    0 -0.14728614168E+03  0.39859895717E+01 -0.92451408665E+02  0.17394355006E+03  0.00000000000E+00 0. -1.
</event>
<event>
 7    1  0.2556591E-009  0.9979648E+02  0.7561462E-02  0.1280725E+00
         -2   -1    0    0    0  501 -0.00000000000E+00  0.00000000000E+00  0.57889135786E+02  0.57889135786E+02  0.00000000000E+00 0.  1.
          2   -1    0    0  501    0  0.00000000000E+00 -0.00000000000E+00 -0.22944764589E+03  0.22944764589E+03  0.00000000000E+00 0. -1.
         25    2    1    2    0    0  0.30237826393E+02 -0.23040705544E+02 -0.92647208776E+02  0.16024032218E+03  0.12509298662E+03 0.  0.
          5    1    3    3  502    0  0.52640873007E+02  0.35126078916E+02 -0.25033237223E+02  0.68183856570E+02  0.41800000000E+01 0.  1.
         -5    1    3    3    0  502 -0.22403046614E+02 -0.58166784460E+02 -0.67613971553E+02  0.92056465613E+02  0.41800000000E+01 0.  1.
        -11    1    1    2    0    0  0.66097080843E+01 -0.17624162400E+02  0.10970775936E+02  0.21786630439E+02  0.00000000000E+00 0.  1.
         11    1    1    2    0    0 -0.36847534477E+02  0.40664867944E+02 -0.89882077269E+02  0.10530982906E+03  0.00000000000E+00 0. -1.
</event>
<event>
 7    1  0.2556591E-009  0.2033917E+03  0.7561462E-02  0.1146909E+00
         -2   -1    0    0    0  501 -0.00000000000E+00  0.00000000000E+00  0.23224845860E+03  0.23224845860E+03  0.00000000000E+00 0.  1.
          2   -1    0    0  501    0  0.00000000000E+00 -0.00000000000E+00 -0.22961576102E+03  0.22961576102E+03  0.00000000000E+00 0. -1.
         25    2    1    2    0    0 -0.13172158399E+03 -0.14540163596E+03 -0.53070760515E+02  0.23865473217E+03  0.12508942456E+03 0.  0.
          5    1    3    3  502    0 -0.19873818400E+02  0.64062733060E+01  0.26459493287E+02  0.33964484104E+02  0.41800000000E+01 0.  1.
         -5    1    3    3    0  502 -0.11184776559E+03 -0.15180790927E+03 -0.79530253803E+02  0.20469024807E+03  0.41800000000E+01 0.  1.
        -11    1    1    2    0    0  0.63483163006E+02  0.57948078570E+02  0.70672957152E+02  0.11127784446E+03  0.00000000000E+00 0.  1.
         11    1    1    2    0    0  0.68238420983E+02  0.87453557392E+02 -0.14969499059E+02  0.11193164298E+03  0.00000000000E+00 0. -1.
</event>
<event>
 7    1  0.3071531E-009  0.7042192E+02  0.7561462E-02  0.1358664E+00
          2   -1    0    0  501    0  0.00000000000E+00  0.00000000000E+00  0.10202407027E+04  0.10202407027E+04  0.00000000000E+00 0. -1.
         -2   -1    0    0    0  501 -0.00000000000E+00 -0.00000000000E+00 -0.13672120460E+02  0.13672120460E+02  0.00000000000E+00 0.  1.
         25    2    1    2    0    0  0.18975318029E+02 -0.38574003914E+02  0.65302921317E+03  0.66628713306E+03  0.12507347422E+03 0.  0.
          5    1    3    3  502    0  0.17399201853E+02 -0.21560879464E+02  0.64712722114E+03  0.64773352275E+03  0.41800000000E+01 0.  1.
         -5    1    3    3    0  502  0.15761161762E+01 -0.17013124450E+02  0.59019920310E+01  0.18553610314E+02  0.41800000000E+01 0.  1.
        -11    1    1    2    0    0  0.26976637644E+02 -0.96238400862E+01  0.58126774209E+02  0.64800302133E+02  0.00000000000E+00 0.  1.
         11    1    1    2    0    0 -0.45951955673E+02  0.48197844000E+02  0.29541259491E+03  0.30282538801E+03  0.00000000000E+00 0. -1.
</event>
<event>
 7    1  0.2556591E-009  0.8896577E+02  0.7561462E-02  0.1305376E+00
         -1   -1    0    0    0  501 -0.00000000000E+00  0.00000000000E+00  0.12795765849E+03  0.12795765849E+03  0.00000000000E+00 0.  1.
          1   -1    0    0  501    0  0.00000000000E+00 -0.00000000000E+00 -0.11822021073E+03  0.11822021073E+03  0.00000000000E+00 0. -1.
         25    2    1    2    0    0 -0.22797366710E+02 -0.50837539064E+02  0.25661951395E+02  0.13931788975E+03  0.12508702310E+03 0.  0.
          5    1    3    3  502    0  0.39913833342E+02 -0.36221798021E+02 -0.22745795287E+02  0.58651311556E+02  0.41800000000E+01 0. -1.
         -5    1    3    3    0  502 -0.62711200053E+02 -0.14615741044E+02  0.48407746682E+02  0.80666578191E+02  0.41800000000E+01 0. -1.
        -11    1    1    2    0    0  0.95367788381E+00  0.26976740936E+02 -0.51887038196E+02  0.58488620994E+02  0.00000000000E+00 0. -1.
         11    1    1    2    0    0  0.21843688826E+02  0.23860798129E+02  0.35962534566E+02  0.48371358481E+02  0.00000000000E+00 0.  1.
</event>
<event>
 7    1  0.2556591E-009  0.2278648E+03  0.7561462E-02  0.1128152E+00
          1   -1    0    0  501    0  0.00000000000E+00  0.00000000000E+00  0.16261922072E+04  0.16261922072E+04  0.00000000000E+00 0. -1.
         -1   -1    0    0    0  501 -0.00000000000E+00 -0.00000000000E+00 -0.47052746770E+02  0.47052746770E+02  0.00000000000E+00 0.  1.
         25    2    1    2    0    0  0.55546020618E+02 -0.19569427069E+03  0.34807976694E+03  0.42212337275E+03  0.12508800773E+03 0.  0.
          5    1    3    3  502    0 -0.34919908201E+02 -0.58532990864E+02  0.62226045020E+02  0.92385410575E+02  0.41800000000E+01 0. -1.
         -5    1    3    3    0  502  0.90465928819E+02 -0.13716127983E+03  0.28585372192E+03  0.32973796217E+03  0.41800000000E+01 0. -1.
        -11    1    1    2    0    0  0.16642991743E+02  0.10901783788E+03  0.59279332129E+03  0.60296417798E+03  0.00000000000E+00 0.  1.
         11    1    1    2    0    0 -0.72189012360E+02  0.86676432811E+02  0.63826637221E+03  0.64815740326E+03  0.00000000000E+00 0. -1.
</event>
<event>
 7    1  0.2556591E-009  0.7826395E+02  0.7561462E-02  0.1334052E+00
          2   -1    0    0  501    0  0.00000000000E+00  0.00000000000E+00  0.11838588410E+03  0.11838588410E+03  0.00000000000E+00 0. -1.
         -2   -1    0    0    0  501 -0.00000000000E+00 -0.00000000000E+00 -0.11448766513E+03  0.11448766513E+03  0.00000000000E+00 0.  1.
         25    2    1    2    0    0  0.49347947125E+01 -0.14046629090E+02  0.44081004775E+02  0.13346156354E+03  0.12508874439E+03 0.  0.
          5    1    3    3  502    0  0.29737178303E+02  0.22880719976E+02  0.71630995486E+02  0.80970976493E+02  0.41800000000E+01 0. -1.
         -5    1    3    3    0  502 -0.24802383590E+02 -0.36927349066E+02 -0.27549990711E+02  0.52490587051E+02  0.41800000000E+01 0. -1.
        -11    1    1    2    0    0  0.33829100585E+02  0.89873314137E+01 -0.48137649390E+02  0.59518177569E+02  0.00000000000E+00 0. -1.
         11    1    1    2    0    0 -0.38763895297E+02  0.50592976764E+01  0.79548635805E+01  0.39893808118E+02  0.00000000000E+00 0.  1.
</event>
<event>
 7    1  0.2556591E-009  0.1225029E+03  0.7561462E-02  0.1239024E+00
          2   -1    0    0  501    0  0.00000000000E+00  0.00000000000E+00  0.12658514286E+04  0.12658514286E+04  0.00000000000E+00 0.  1.
         -2   -1    0    0    0  501 -0.00000000000E+00 -0.00000000000E+00 -0.16303760791E+02  0.16303760791E+02  0.00000000000E+00 0. -1.
         25    2    1    2    0    0 -0.76440777851E+02 -0.34721166212E+02  0.87819158345E+03  0.89102009767E+03  0.12509038855E+03 0.  0.
          5    1    3    3  502    0 -0.59743137830E+02  0.34976351220E+02  0.27670655252E+03  0.28526579933E+03  0.41800000000E+01 0. -1.
         -5    1    3    3    0  502 -0.16697640021E+02 -0.69697517432E+02  0.60148503093E+03  0.60575429833E+03  0.41800000000E+01 0. -1.
        -11    1    1    2    0    0  0.28881642837E+02  0.46613788262E+02  0.29735346195E+03  0.30236745176E+03  0.00000000000E+00 0.  1.
         11    1    1    2    0    0  0.47559135015E+02 -0.11892622050E+02  0.74002622459E+02  0.88767640012E+02  0.00000000000E+00 0. -1.
</event>
<event>
 7    1  0.2556591E-009  0.9489667E+02  0.7561462E-02  0.1291409E+00
          1   -1    0    0  501    0  0.00000000000E+00  0.00000000000E+00  0.19508909461E+03  0.19508909461E+03  0.00000000000E+00 0. -1.
         -1   -1    0    0    0  501 -0.00000000000E+00 -0.00000000000E+00 -0.73933519180E+02  0.73933519180E+02  0.00000000000E+00 0.  1.
         25    2    1    2    0    0  0.37584446635E+01  0.93565080434E+01  0.14887430994E+02  0.12637636109E+03  0.12509068267E+03 0.  0.
          5    1    3    3  502    0  0.62113246093E+02  0.18368579304E+02 -0.16065963584E+01  0.64926986668E+02  0.41800000000E+01 0. -1.
         -5    1    3    3    0  502 -0.58354801430E+02 -0.90120712603E+01  0.16494027352E+02  0.61449374420E+02  0.41800000000E+01 0. -1.
        -11    1    1    2    0    0  0.30541238139E+02 -0.19622286756E+01  0.10294935739E+03  0.10740199139E+03  0.00000000000E+00 0. -1.
         11    1    1    2    0    0 -0.34299682802E+02 -0.73942793677E+01  0.33187870457E+01  0.35244261308E+02  0.00000000000E+00 0.  1.
</event>
<event>
 7    1  0.2556591E-009  0.1198838E+03  0.7561462E-02  0.1243289E+00
         -2   -1    0    0    0  501 -0.00000000000E+00  0.00000000000E+00  0.87544016219E+02  0.87544016219E+02  0.00000000000E+00 0.  1.
          2   -1    0    0  501    0  0.00000000000E+00 -0.00000000000E+00 -0.17532129987E+03  0.17532129987E+03  0.00000000000E+00 0. -1.
         25    2    1    2    0    0 -0.22233724657E+02  0.55498246812E+02 -0.49745795469E+02  0.14729875304E+03  0.12509150478E+03 0.  0.
          5    1    3    3  502    0  0.61188334906E+01 -0.37546120512E+02 -0.28324313156E+02  0.47611872516E+02  0.41800000000E+01 0. -1.
         -5    1    3    3    0  502 -0.28352558148E+02  0.93044367323E+02 -0.21421482313E+02  0.99686880524E+02  0.41800000000E+01 0. -1.
        -11    1    1    2    0    0  0.22663042478E+02 -0.78207883746E+02 -0.14217396084E+02  0.82657249687E+02  0.00000000000E+00 0.  1.
         11    1    1    2    0    0 -0.42931782041E+00  0.22709636934E+02 -0.23814092095E+02  0.32909313359E+02  0.00000000000E+00 0. -1.
</event>
<event>
 7    1  0.2556591E-009  0.9370225E+02  0.7561462E-02  0.1294126E+00
          2   -1    0    0  501    0  0.00000000000E+00  0.00000000000E+00  0.65931930332E+02  0.65931930332E+02  0.00000000000E+00 0. -1.
         -2   -1    0    0    0  501 -0.00000000000E+00 -0.00000000000E+00 -0.21898062529E+03  0.21898062529E+03  0.00000000000E+00 0.  1.
         25    2    1    2    0    0  0.35349528681E+02  0.37562028708E+02 -0.69774734776E+02  0.15223456612E+03  0.12508538816E+03 0.  0.
          5    1    3    3  502    0  0.35903514812E+02  0.82403845125E+02 -0.51070375230E+02  0.10346550968E+03  0.41800000000E+01 0. -1.
         -5    1    3    3    0  502 -0.55398613114E+00 -0.44841816417E+02 -0.18704359546E+02  0.48769056442E+02  0.41800000000E+01 0. -1.
        -11    1    1    2    0    0 -0.31415159807E+02 -0.28155739132E+02 -0.10254084450E+03  0.11087958650E+03  0.00000000000E+00 0.  1.
         11    1    1    2    0    0 -0.39343688738E+01 -0.94062895760E+01  0.19266884318E+02  0.21798402999E+02  0.00000000000E+00 0. -1.
</event>
<event>
 7    1  0.2557573E-009  0.1455984E+03  0.7561462E-02  0.1205988E+00
         -2   -1    0    0    0  501 -0.00000000000E+00  0.00000000000E+00  0.14275299151E+02  0.14275299151E+02  0.00000000000E+00 0.  1.
          2   -1    0    0  501    0  0.00000000000E+00 -0.00000000000E+00 -0.19719708638E+04  0.19719708638E+04  0.00000000000E+00 0. -1.
         25    2    1    2    0    0 -0.81798138855E+02 -0.59074421862E+02 -0.15037931531E+04  0.15123558576E+04  0.12508265193E+03 0.  0.
          5    1    3    3  502    0  0.28778325102E+02  0.49956864132E+01 -0.42242732719E+03  0.42345657160E+03  0.41800000000E+01 0.  1.
         -5    1    3    3    0  502 -0.11057646396E+03 -0.64070108275E+02 -0.10813658259E+04  0.10888992859E+04  0.41800000000E+01 0.  1.
        -11    1    1    2    0    0 -0.83577287966E+00  0.50767658876E+02 -0.13147747764E+03  0.14094105446E+03  0.00000000000E+00 0.  1.
         11    1    1    2    0    0  0.82633911735E+02  0.83067629861E+01 -0.32242493395E+03  0.33294925096E+03  0.00000000000E+00 0. -1.
</event>
<event>
 7    1  0.2556591E-009  0.1472675E+03  0.7561462E-02  0.1203871E+00
          1   -1    0    0  501    0  0.00000000000E+00  0.00000000000E+00  0.36448656647E+03  0.36448656647E+03  0.00000000000E+00 0. -1.
         -1   -1    0    0    0  501 -0.00000000000E+00 -0.00000000000E+00 -0.73065539400E+02  0.73065539400E+02  0.00000000000E+00 0.  1.
         25    2    1    2    0    0  0.17550140544E+02  0.10417554711E+03  0.24190505978E+03  0.29210674197E+03  0.12509092174E+03 0.  0.
          5    1    3    3  502    0 -0.17592354959E+02  0.12239362540E+03  0.18915796855E+03  0.22602632580E+03  0.41800000000E+01 0. -1.
         -5    1    3    3    0  502  0.35142495503E+02 -0.18218078281E+02  0.52747091233E+02  0.66080416161E+02  0.41800000000E+01 0. -1.
        -11    1    1    2    0    0  0.21360091904E+02 -0.84976213870E+02  0.12687463946E+02  0.88533508861E+02  0.00000000000E+00 0.  1.
         11    1    1    2    0    0 -0.38910232448E+02 -0.19199333244E+02  0.36828503338E+02  0.56911855042E+02  0.00000000000E+00 0. -1.
</event>
<event>
 7    1  0.2556591E-009  0.1131652E+03  0.7561462E-02  0.1254818E+00
         -2   -1    0    0    0  501 -0.00000000000E+00  0.00000000000E+00  0.50364999930E+02  0.50364999930E+02  0.00000000000E+00 0.  1.
          2   -1    0    0  501    0  0.00000000000E+00 -0.00000000000E+00 -0.34752978099E+03  0.34752978099E+03  0.00000000000E+00 0. -1.
         25    2    1    2    0    0  0.40456176670E+02  0.50284445757E+02 -0.21947266218E+03  0.26073015335E+03  0.12508691259E+03 0.  0.
          5    1    3    3  502    0 -0.34398649807E+02  0.22204692388E+02 -0.19931271294E+02  0.45727928534E+02  0.41800000000E+01 0.  1.
         -5    1    3    3    0  502  0.74854826477E+02  0.28079753369E+02 -0.19954139089E+03  0.21500222481E+03  0.41800000000E+01 0.  1.
        -11    1    1    2    0    0 -0.20535402229E+02  0.22025537552E+02 -0.13516465901E+01  0.30143888231E+02  0.00000000000E+00 0.  1.
         11    1    1    2    0    0 -0.19920774441E+02 -0.72309983309E+02 -0.76340472285E+02  0.10702073934E+03  0.00000000000E+00 0. -1.
</event>
<event>
 7    1  0.2556591E-009  0.1041622E+03  0.7561462E-02  0.1271779E+00
          2   -1    0    0  501    0  0.00000000000E+00  0.00000000000E+00  0.44527223240E+03  0.44527223240E+03  0.00000000000E+00 0. -1.
         -2   -1    0    0    0  501 -0.00000000000E+00 -0.00000000000E+00 -0.37827696093E+02  0.37827696093E+02  0.00000000000E+00 0.  1.
         25    2    1    2    0    0  0.18153912531E+02 -0.43061379365E+02  0.12853004653E+03  0.18534516890E+03  0.12509601049E+03 0.  0.
          5    1    3    3  502    0  0.73856971132E+01  0.33085916555E+02 -0.15302275517E+01  0.34191232684E+02  0.41800000000E+01 0.  1.
         -5    1    3    3    0  502  0.10768215418E+02 -0.76147295920E+02  0.13006027408E+03  0.15115393622E+03  0.41800000000E+01 0.  1.
        -11    1    1    2    0    0  0.77856188673E+01 -0.24007650851E+02  0.12949625199E+03  0.13193279517E+03  0.00000000000E+00 0. -1.
         11    1    1    2    0    0 -0.25939531398E+02  0.67069030216E+02  0.14941823779E+03  0.16582196443E+03  0.00000000000E+00 0.  1.
</event>
<event>
 7    1  0.2556591E-009  0.9699193E+02  0.7561462E-02  0.1286752E+00
         -2   -1    0    0    0  501 -0.00000000000E+00  0.00000000000E+00  0.19713477439E+02  0.19713477439E+02  0.00000000000E+00 0.  1.
          2   -1    0    0  501    0  0.00000000000E+00 -0.00000000000E+00 -0.90550011627E+03  0.90550011627E+03  0.00000000000E+00 0. -1.
         25    2    1    2    0    0  0.28254407365E+02 -0.76816578041E+02 -0.42044911557E+03  0.44623238678E+03  0.12508711376E+03 0.  0.
          5    1    3    3  502    0  0.16987858176E+02 -0.27772671128E+02 -0.12426223387E+02  0.35096894659E+02  0.41800000000E+01 0. -1.
         -5    1    3    3    0  502  0.11266549189E+02 -0.49043906913E+02 -0.40802289218E+03  0.41113549212E+03  0.41800000000E+01 0. -1.
        -11    1    1    2    0    0  0.24397158855E+02  0.38376478155E+02 -0.24571298781E+03  0.24988566949E+03  0.00000000000E+00 0.  1.
         11    1    1    2    0    0 -0.52651566220E+02  0.38440099886E+02 -0.21962453546E+03  0.22909553745E+03  0.00000000000E+00 0. -1.
</event>
<event>
 7    1  0.2556591E-009  0.1361397E+03  0.7561462E-02  0.1218620E+00
          1   -1    0    0  501    0  0.00000000000E+00  0.00000000000E+00  0.17983772795E+03  0.17983772795E+03  0.00000000000E+00 0. -1.
         -1   -1    0    0    0  501 -0.00000000000E+00 -0.00000000000E+00 -0.12899808761E+03  0.12899808761E+03  0.00000000000E+00 0.  1.
         25    2    1    2    0    0  0.47930905468E+02 -0.95344673689E+02  0.25364873687E+02  0.16637037591E+03  0.12509095356E+03 0.  0.
          5    1    3    3  502    0  0.71133693175E+02 -0.35112825037E+02 -0.26203219259E+02  0.83648035759E+02  0.41800000000E+01 0. -1.
         -5    1    3    3    0  502 -0.23202787707E+02 -0.60231848652E+02  0.51568092947E+02  0.82722340148E+02  0.41800000000E+01 0. -1.
        -11    1    1    2    0    0 -0.33887659214E+02  0.10551325877E+03  0.42000098745E+02  0.11851341493E+03  0.00000000000E+00 0. -1.
         11    1    1    2    0    0 -0.14043246254E+02 -0.10168585084E+02 -0.16525332088E+02  0.23952024728E+02  0.00000000000E+00 0.  1.
</event>
<event>
 7    1  0.2556591E-009  0.1316466E+03  0.7561462E-02  0.1225033E+00
          4   -1    0    0  501    0  0.00000000000E+00  0.00000000000E+00  0.52213811105E+02  0.52213811105E+02  0.00000000000E+00 0. -1.
         -4   -1    0    0    0  501 -0.00000000000E+00 -0.00000000000E+00 -0.36956451742E+03  0.36956451742E+03  0.00000000000E+00 0.  1.
         25    2    1    2    0    0  0.15645492035E+02  0.83778223950E+02 -0.14697563585E+03  0.21097857797E+03  0.12508617270E+03 0.  0.
          5    1    3    3  502    0  0.53764744121E+01 -0.30314434003E+02 -0.58265379110E+02  0.66031796802E+02  0.41800000000E+01 0.  1.
         -5    1    3    3    0  502  0.10269017623E+02  0.11409265795E+03 -0.88710256736E+02  0.14494678117E+03  0.41800000000E+01 0.  1.
        -11    1    1    2    0    0 -0.32902617393E+02 -0.87646928570E+00 -0.82217936687E+02  0.88561501471E+02  0.00000000000E+00 0.  1.
         11    1    1    2    0    0  0.17257125358E+02 -0.82901754664E+02 -0.88157133784E+02  0.12223824908E+03  0.00000000000E+00 0. -1.
</event>
<event>
 7    1  0.2556591E-009  0.1674275E+03  0.7561462E-02  0.1180557E+00
          1   -1    0    0  501    0  0.00000000000E+00  0.00000000000E+00  0.62493873723E+03  0.62493873723E+03  0.00000000000E+00 0. -1.
         -1   -1    0    0    0  501 -0.00000000000E+00 -0.00000000000E+00 -0.57259808260E+02  0.57259808260E+02  0.00000000000E+00 0.  1.
         25    2    1    2    0    0 -0.11554181547E+03  0.10116122100E+03  0.32340908539E+03  0.37924253765E+03  0.12509181465E+03 0.  0.
          5    1    3    3  502    0 -0.48237861704E+02  0.18861483258E+02  0.16664904365E+02  0.54569572932E+02  0.41800000000E+01 0.  1.
         -5    1    3    3    0  502 -0.67303953767E+02  0.82299737742E+02  0.30674418103E+03  0.32467296472E+03  0.41800000000E+01 0.  1.
        -11    1    1    2    0    0  0.76435715535E+02 -0.97318877061E+01  0.81063327572E+02  0.11184091972E+03  0.00000000000E+00 0. -1.
         11    1    1    2    0    0  0.39106099937E+02 -0.91429333294E+02  0.16320651601E+03  0.19111508812E+03  0.00000000000E+00 0.  1.
</event>
<event>
 7    1  0.2556591E-009  0.8329204E+02  0.7561462E-02  0.1319960E+00
         -1   -1    0    0    0  501 -0.00000000000E+00  0.00000000000E+00  0.19162340195E+02  0.19162340195E+02  0.00000000000E+00 0.  1.
          1   -1    0    0  501    0  0.00000000000E+00 -0.00000000000E+00 -0.67182470728E+03  0.67182470728E+03  0.00000000000E+00 0. -1.
         25    2    1    2    0    0  0.18620016741E+02  0.25791653720E+02 -0.37797441635E+03  0.39940461416E+03  0.12508985559E+03 0.  0.
          5    1    3    3  502    0  0.40380534016E+02 -0.86931424146E+01 -0.35907803223E+02  0.54890809656E+02  0.41800000000E+01 0. -1.
         -5    1    3    3    0  502 -0.21760517275E+02  0.34484796135E+02 -0.34206661313E+03  0.34451380451E+03  0.41800000000E+01 0. -1.
        -11    1    1    2    0    0 -0.48097755070E+02 -0.57691775122E+01 -0.22665753687E+03  0.23177643640E+03  0.00000000000E+00 0. -1.
         11    1    1    2    0    0  0.29477738330E+02 -0.20022476208E+02 -0.48030413862E+02  0.59805996909E+02  0.00000000000E+00 0.  1.
</event>
<event>
 7    1  0.2556591E-009  0.1131345E+03  0.7561462E-02  0.1254873E+00
         -2   -1    0    0    0  501 -0.00000000000E+00  0.00000000000E+00  0.24197315546E+02  0.24197315546E+02  0.00000000000E+00 0. -1.
          2   -1    0    0  501    0  0.00000000000E+00 -0.00000000000E+00 -0.54991424659E+03  0.54991424659E+03  0.00000000000E+00 0.  1.
         25    2    1    2    0    0  0.26284813584E+02  0.23465895577E+02 -0.34382364982E+03  0.36756856880E+03  0.12510160236E+03 0.  0.
          5    1    3    3  502    0 -0.47698515375E+02 -0.95287391967E+01 -0.12515071675E+03  0.13433584608E+03  0.41800000000E+01 0.  1.
         -5    1    3    3    0  502  0.73983328959E+02  0.32994634774E+02 -0.21867293307E+03  0.23323272272E+03  0.41800000000E+01 0.  1.
        -11    1    1    2    0    0 -0.38039556542E+02 -0.52602338884E+02 -0.10457537380E+03  0.12308542855E+03  0.00000000000E+00 0. -1.
         11    1    1    2    0    0  0.11754742958E+02  0.29136443306E+02 -0.77317907428E+02  0.83457564784E+02  0.00000000000E+00 0.  1.
</event>
<event>
 7    1  0.2556591E-009  0.1023495E+03  0.7561462E-02  0.1275432E+00
         -3   -1    0    0    0  501 -0.00000000000E+00  0.00000000000E+00  0.85129641421E+03  0.85129641421E+03  0.00000000000E+00 0.  1.
          3   -1    0    0  501    0  0.00000000000E+00 -0.00000000000E+00 -0.21659695408E+02  0.21659695408E+02  0.00000000000E+00 0. -1.
         25    2    1    2    0    0 -0.44395506538E+02 -0.64076676176E+02  0.49140543045E+03  0.51303341400E+03  0.12508878997E+03 0.  0.
          5    1    3    3  502    0 -0.19532301758E+02 -0.50281304461E+02  0.60469977403E+02  0.81140686203E+02  0.41800000000E+01 0.  1.
         -5    1    3    3    0  502 -0.24863204780E+02 -0.13795371714E+02  0.43093545305E+03  0.43189272780E+03  0.41800000000E+01 0.  1.
        -11    1    1    2    0    0 -0.27432581771E+02  0.34745996741E+02  0.14796311291E+03  0.15444388500E+03  0.00000000000E+00 0.  1.
         11    1    1    2    0    0  0.71828088309E+02  0.29330679435E+02  0.19026817544E+03  0.20547881061E+03  0.00000000000E+00 0. -1.
</event>
<event>
 7    1  0.2556591E-009  0.3488372E+03  0.7561462E-02  0.1063093E+00
         -2   -1    0    0    0  501 -0.00000000000E+00  0.00000000000E+00  0.10313648841E+03  0.10313648841E+03  0.00000000000E+00 0.  1.
          2   -1    0    0  501    0  0.00000000000E+00 -0.00000000000E+00 -0.14844946829E+04  0.14844946829E+04  0.00000000000E+00 0. -1.
         25    2    1    2    0    0  0.28635718370E+03 -0.18479397350E+03 -0.10200453015E+04  0.10827232602E+04  0.12509193261E+03 0.  0.
          5    1    3    3  502    0  0.23179169344E+03 -0.18965768663E+03 -0.75908628386E+03  0.81604343388E+03  0.41800000000E+01 0. -1.
         -5    1    3    3    0  502  0.54565490265E+02  0.48637131380E+01 -0.26095901768E+03  0.26667982627E+03  0.41800000000E+01 0. -1.
        -11    1    1    2    0    0 -0.78952571512E+02  0.30215208989E+02 -0.14439599965E+03  0.16732206106E+03  0.00000000000E+00 0. -1.
         11    1    1    2    0    0 -0.20740461219E+03  0.15457876451E+03 -0.21691689334E+03  0.33758585013E+03  0.00000000000E+00 0.  1.
</event>
<event>
 7    1  0.2556591E-009  0.1060947E+03  0.7561462E-02  0.1267978E+00
          2   -1    0    0  501    0  0.00000000000E+00  0.00000000000E+00  0.13721577436E+04  0.13721577436E+04  0.00000000000E+00 0. -1.
         -2   -1    0    0    0  501 -0.00000000000E+00 -0.00000000000E+00 -0.12386186726E+02  0.12386186726E+02  0.00000000000E+00 0.  1.
         25    2    1    2    0    0  0.24706966021E+02 -0.10198999385E+01  0.10510023367E+04  0.10587086414E+04  0.12508637522E+03 0.  0.
          5    1    3    3  502    0  0.69449489837E+02 -0.16467399091E+01  0.38854092990E+03  0.39472454953E+03  0.41800000000E+01 0. -1.
         -5    1    3    3    0  502 -0.44742523816E+02  0.62683997067E+00  0.66246140676E+03  0.66398409184E+03  0.41800000000E+01 0. -1.
        -11    1    1    2    0    0  0.31688563847E+02 -0.19994771358E+02  0.67807204698E+02  0.77471110546E+02  0.00000000000E+00 0.  1.
         11    1    1    2    0    0 -0.56395529867E+02  0.21014671296E+02  0.24096201546E+03  0.24836417836E+03  0.00000000000E+00 0. -1.
</event>
<event>
 7    1  0.2556591E-009  0.2276081E+03  0.7561462E-02  0.1128335E+00
         -2   -1    0    0    0  501 -0.00000000000E+00  0.00000000000E+00  0.52893923817E+02  0.52893923817E+02  0.00000000000E+00 0.  1.
          2   -1    0    0  501    0  0.00000000000E+00 -0.00000000000E+00 -0.16156069332E+04  0.16156069332E+04  0.00000000000E+00 0. -1.
         25    2    1    2    0    0  0.19445611642E+03 -0.99071310093E+02 -0.12619903084E+04  0.12868145528E+04  0.12507537380E+03 0.  0.
          5    1    3    3  502    0  0.69379472421E+02 -0.73075754459E+02 -0.30298672682E+03  0.31933055932E+03  0.41800000000E+01 0. -1.
         -5    1    3    3    0  502  0.12507664400E+03 -0.25995555634E+02 -0.95900358155E+03  0.96748399346E+03  0.41800000000E+01 0. -1.
        -11    1    1    2    0    0 -0.94191330246E+02  0.14344615165E+02 -0.77892549947E+02  0.12306512103E+03  0.00000000000E+00 0.  1.
         11    1    1    2    0    0 -0.10026478617E+03  0.84726694928E+02 -0.22283015111E+03  0.25862118325E+03  0.00000000000E+00 0. -1.
</event>
<event>
 7    1  0.2556591E-009  0.1594615E+03  0.7561462E-02  0.1189306E+00
          2   -1    0    0  501    0  0.00000000000E+00  0.00000000000E+00  0.25861010183E+03  0.25861010183E+03  0.00000000000E+00 0. -1.
         -2   -1    0    0    0  501 -0.00000000000E+00 -0.00000000000E+00 -0.12348988480E+03  0.12348988480E+03  0.00000000000E+00 0.  1.
         25    2    1    2    0    0 -0.39393687964E+02 -0.12991849778E+03  0.23607508744E+02  0.18610637472E+03  0.12509032546E+03 0.  0.
          5    1    3    3  502    0 -0.61657307825E+01  0.10793021631E+02  0.38526255230E+02  0.40697055104E+02  0.41800000000E+01 0. -1.
         -5    1    3    3    0  502 -0.33227957181E+02 -0.14071151941E+03 -0.14918746487E+02  0.14540931962E+03  0.41800000000E+01 0. -1.
        -11    1    1    2    0    0  0.52864085143E+02  0.30891845130E+02  0.43485936434E+02  0.75099562323E+02  0.00000000000E+00 0.  1.
         11    1    1    2    0    0 -0.13470397180E+02  0.99026652654E+02  0.68026771853E+02  0.12089404958E+03  0.00000000000E+00 0. -1.
</event>
<event>
 7    1  0.2556591E-009  0.6928963E+02  0.7561462E-02  0.1362525E+00
         -1   -1    0    0    0  501 -0.00000000000E+00  0.00000000000E+00  0.19598709377E+03  0.19598709377E+03  0.00000000000E+00 0.  1.
          1   -1    0    0  501    0  0.00000000000E+00 -0.00000000000E+00 -0.81872828049E+02  0.81872828049E+02  0.00000000000E+00 0. -1.
         25    2    1    2    0    0 -0.47094281489E+02  0.28913360286E+02  0.27958386101E+02  0.13958266589E+03  0.12509114882E+03 0.  0.
          5    1    3    3  502    0 -0.48897160598E+02  0.43290284354E+02  0.69456841748E+02  0.95429064229E+02  0.41800000000E+01 0.  1.
         -5    1    3    3    0  502  0.18028791097E+01 -0.14376924068E+02 -0.41498455647E+02  0.44153601663E+02  0.41800000000E+01 0.  1.
        -11    1    1    2    0    0  0.45636055337E+01 -0.11000232035E+02 -0.19575295088E+02  0.22913397349E+02  0.00000000000E+00 0. -1.
         11    1    1    2    0    0  0.42530675955E+02 -0.17913128251E+02  0.10573117471E+03  0.11536385858E+03  0.00000000000E+00 0.  1.
</event>
<event>
 7    1  0.2556591E-009  0.1011146E+03  0.7561462E-02  0.1277969E+00
          1   -1    0    0  501    0  0.00000000000E+00  0.00000000000E+00  0.63999785928E+03  0.63999785928E+03  0.00000000000E+00 0. -1.
         -1   -1    0    0    0  501 -0.00000000000E+00 -0.00000000000E+00 -0.26248292943E+02  0.26248292943E+02  0.00000000000E+00 0.  1.
         25    2    1    2    0    0  0.57814071822E+02  0.54304680531E+01  0.22263982913E+03  0.26189293443E+03  0.12508980257E+03 0.  0.
          5    1    3    3  502    0 -0.28760896324E+02  0.17362041900E+01  0.13674418907E+03  0.13980933162E+03  0.41800000000E+01 0. -1.
         -5    1    3    3    0  502  0.86574968146E+02  0.36942638631E+01  0.85895640053E+02  0.12208360281E+03  0.41800000000E+01 0. -1.
        -11    1    1    2    0    0 -0.70885192571E+01  0.25823541281E+02  0.39439830606E+02  0.47671822157E+02  0.00000000000E+00 0.  1.
         11    1    1    2    0    0 -0.50725552565E+02 -0.31254009334E+02  0.35166990660E+03  0.35668139564E+03  0.00000000000E+00 0. -1.
</event>
<event>
 7    1  0.2556591E-009  0.9576664E+02  0.7561462E-02  0.1289459E+00
         -4   -1    0    0    0  501 -0.00000000000E+00  0.00000000000E+00  0.17146661442E+02  0.17146661442E+02  0.00000000000E+00 0.  1.
          4   -1    0    0  501    0  0.00000000000E+00 -0.00000000000E+00 -0.13277980510E+04  0.13277980510E+04  0.00000000000E+00 0. -1.
         25    2    1    2    0    0 -0.67929703247E+02 -0.22965608883E+02 -0.10108212343E+04  0.10210527245E+04  0.12508890682E+03 0.  0.
          5    1    3    3  502    0 -0.10473012143E+02 -0.21539247634E+02 -0.30339711289E+02  0.38879218782E+02  0.41800000000E+01 0. -1.
         -5    1    3    3    0  502 -0.57456691103E+02 -0.14263612489E+01 -0.98048152302E+03  0.98217350567E+03  0.41800000000E+01 0. -1.
        -11    1    1    2    0    0 -0.95020587002E+01  0.30358439744E+02 -0.32506867594E+02  0.45482089046E+02  0.00000000000E+00 0.  1.
         11    1    1    2    0    0  0.77431761947E+02 -0.73928308614E+01 -0.26732328766E+03  0.27840989895E+03  0.00000000000E+00 0. -1.
</event>
<event>
 7    1  0.2556591E-009  0.1572689E+03  0.7561462E-02  0.1191815E+00
         -2   -1    0    0    0  501 -0.00000000000E+00  0.00000000000E+00  0.70277953771E+02  0.70277953771E+02  0.00000000000E+00 0. -1.
          2   -1    0    0  501    0  0.00000000000E+00 -0.00000000000E+00 -0.38856464265E+03  0.38856464265E+03  0.00000000000E+00 0.  1.
         25    2    1    2    0    0 -0.11968433335E+03 -0.33345847457E+02 -0.15951787581E+03  0.23775973998E+03  0.12508979198E+03 0.  0.
          5    1    3    3  502    0 -0.78169433479E+02  0.42848256287E+02 -0.86412004391E+02  0.12422133593E+03  0.41800000000E+01 0.  1.
         -5    1    3    3    0  502 -0.41514899875E+02 -0.76194103744E+02 -0.73105871421E+02  0.11353840405E+03  0.41800000000E+01 0.  1.
        -11    1    1    2    0    0  0.19884819700E-01 -0.10858460283E+02 -0.56634792666E+02  0.57666335894E+02  0.00000000000E+00 0.  1.
         11    1    1    2    0    0  0.11966444853E+03  0.44204307740E+02 -0.10213402040E+03  0.16341652055E+03  0.00000000000E+00 0. -1.
</event>
<event>
 7    1  0.2556591E-009  0.9949222E+02  0.7561462E-02  0.1281367E+00
         -2   -1    0    0    0  501 -0.00000000000E+00  0.00000000000E+00  0.11585818489E+03  0.11585818489E+03  0.00000000000E+00 0. -1.
          2   -1    0    0  501    0  0.00000000000E+00 -0.00000000000E+00 -0.12434207791E+03  0.12434207791E+03  0.00000000000E+00 0.  1.
         25    2    1    2    0    0 -0.22516564027E+02 -0.50928469340E+02 -0.89029221769E+01  0.13721649620E+03  0.12509356563E+03 0.  0.
          5    1    3    3  502    0  0.16248360264E+02  0.18334397653E+02  0.37643522718E+02  0.45107278251E+02  0.41800000000E+01 0.  1.
         -5    1    3    3    0  502 -0.38764924291E+02 -0.69262866993E+02 -0.46546444895E+02  0.92109217952E+02  0.41800000000E+01 0.  1.
        -11    1    1    2    0    0  0.40499701527E+02 -0.14752729213E+00 -0.19928712428E+02  0.45137580431E+02  0.00000000000E+00 0.  1.
         11    1    1    2    0    0 -0.17983137500E+02  0.51075996632E+02  0.20347741585E+02  0.57846186165E+02  0.00000000000E+00 0. -1.
</event>
<event>
 7    1  0.2556591E-009  0.9329625E+02  0.7561462E-02  0.1295060E+00
          1   -1    0    0  501    0  0.00000000000E+00  0.00000000000E+00  0.28988740954E+03  0.28988740954E+03  0.00000000000E+00 0. -1.
         -1   -1    0    0    0  501 -0.00000000000E+00 -0.00000000000E+00 -0.40980637696E+02  0.40980637696E+02  0.00000000000E+00 0.  1.
         25    2    1    2    0    0  0.10701242443E+02 -0.17032347572E+02  0.14363665535E+03  0.19152994782E+03  0.12509042609E+03 0.  0.
          5    1    3    3  502    0 -0.38024085055E+02 -0.53129692848E+02  0.82484634005E+02  0.10530803651E+03  0.41800000000E+01 0.  1.
         -5    1    3    3    0  502  0.48725327498E+02  0.36097345275E+02  0.61152021347E+02  0.86221911313E+02  0.41800000000E+01 0.  1.
        -11    1    1    2    0    0 -0.20822329720E+02 -0.15700945421E+02 -0.25520723152E+01  0.26203094764E+02  0.00000000000E+00 0.  1.
         11    1    1    2    0    0  0.10121087277E+02  0.32733292993E+02  0.10782218881E+03  0.11313500465E+03  0.00000000000E+00 0. -1.
</event>
<event>
 7    1  0.2556591E-009  0.2134628E+03  0.7561462E-02  0.1138853E+00
          2   -1    0    0  501    0  0.00000000000E+00  0.00000000000E+00  0.12357158630E+04  0.12357158630E+04  0.00000000000E+00 0. -1.
         -2   -1    0    0    0  501 -0.00000000000E+00 -0.00000000000E+00 -0.62461658388E+02  0.62461658388E+02  0.00000000000E+00 0.  1.
         25    2    1    2    0    0  0.46867328349E+02  0.18903483242E+03  0.98762704260E+03  0.10143886684E+04  0.12508589472E+03 0.  0.
          5    1    3    3  502    0  0.72142832473E+02  0.18904995450E+03  0.80891789079E+03  0.83385256491E+03  0.41800000000E+01 0. -1.
         -5    1    3    3    0  502 -0.25275504124E+02 -0.15122076861E-01  0.17870915181E+03  0.18053610353E+03  0.41800000000E+01 0. -1.
        -11    1    1    2    0    0 -0.30203102834E+00 -0.84250984005E+02  0.27827746277E+02  0.88728253625E+02  0.00000000000E+00 0.  1.
         11    1    1    2    0    0 -0.46565297321E+02 -0.10478384842E+03  0.15779941578E+03  0.19506059936E+03  0.00000000000E+00 0. -1.
</event>
<event>
 7    1  0.2556591E-009  0.1241647E+03  0.7561462E-02  0.1236381E+00
         -2   -1    0    0    0  501 -0.00000000000E+00  0.00000000000E+00  0.91629220037E+02  0.91629220037E+02  0.00000000000E+00 0.  1.
          2   -1    0    0  501    0  0.00000000000E+00 -0.00000000000E+00 -0.20079985309E+03  0.20079985309E+03  0.00000000000E+00 0. -1.
         25    2    1    2    0    0  0.68535842954E+02  0.38559253339E+02 -0.79879347281E+02  0.16796514372E+03  0.12509037371E+03 0.  0.
          5    1    3    3  502    0 -0.34165930244E+02 -0.65590298038E+01 -0.24790572916E+02  0.42922914241E+02  0.41800000000E+01 0.  1.
         -5    1    3    3    0  502  0.10270177320E+03  0.45118283143E+02 -0.55088774365E+02  0.12504222948E+03  0.41800000000E+01 0.  1.
        -11    1    1    2    0    0 -0.30996674290E+02  0.15943334954E+02  0.21576148124E+02  0.40994071698E+02  0.00000000000E+00 0.  1.
         11    1    1    2    0    0 -0.37539168665E+02 -0.54502588293E+02 -0.50867433892E+02  0.83469857706E+02  0.00000000000E+00 0. -1.
</event>
<event>
 7    1  0.2556591E-009  0.1006667E+03  0.7561462E-02  0.1278900E+00
         -1   -1    0    0    0  501 -0.00000000000E+00  0.00000000000E+00  0.56189735903E+02  0.56189735903E+02  0.00000000000E+00 0.  1.
          1   -1    0    0  501    0  0.00000000000E+00 -0.00000000000E+00 -0.42468675946E+03  0.42468675946E+03  0.00000000000E+00 0. -1.
         25    2    1    2    0    0 -0.15733668980E+02 -0.76532502702E+02 -0.32516798148E+03  0.35705277268E+03  0.12509074304E+03 0.  0.
          5    1    3    3  502    0 -0.43783539311E+02 -0.46897148022E+02 -0.57486636203E+02  0.86246892983E+02  0.41800000000E+01 0. -1.
         -5    1    3    3    0  502  0.28049870331E+02 -0.29635354679E+02 -0.26768134527E+03  0.27080587970E+03  0.41800000000E+01 0. -1.
        -11    1    1    2    0    0  0.23688850069E+02  0.82654392521E+02 -0.71509815417E+01  0.86278889408E+02  0.00000000000E+00 0.  1.
         11    1    1    2    0    0 -0.79551810896E+01 -0.61218898186E+01 -0.36178060536E+02  0.37544833270E+02  0.00000000000E+00 0. -1.
</event>
<event>
 7    1  0.2556591E-009  0.1140678E+03  0.7561462E-02  0.1253217E+00
         -1   -1    0    0    0  501 -0.00000000000E+00  0.00000000000E+00  0.65799034801E+01  0.65799034801E+01  0.00000000000E+00 0.  1.
          1   -1    0    0  501    0  0.00000000000E+00 -0.00000000000E+00 -0.26314997045E+04  0.26314997045E+04  0.00000000000E+00 0. -1.
         25    2    1    2    0    0 -0.24661213356E+02 -0.25554534728E+02 -0.21009143172E+04  0.21049345029E+04  0.12508830382E+03 0.  0.
          5    1    3    3  502    0 -0.31319775736E+02 -0.74232246690E+02 -0.12765873558E+04  0.12791341228E+04  0.41800000000E+01 0. -1.
         -5    1    3    3    0  502  0.66585623805E+01  0.48677711962E+02 -0.82432696141E+03  0.82580038012E+03  0.41800000000E+01 0. -1.
        -11    1    1    2    0    0 -0.24518162814E+02  0.39979269535E+02 -0.23593740218E+03  0.24055340373E+03  0.00000000000E+00 0.  1.
         11    1    1    2    0    0  0.49179376170E+02 -0.14424734808E+02 -0.28806808162E+03  0.29259170128E+03  0.00000000000E+00 0. -1.
</event>
<event>
 7    1  0.2556591E-009  0.8494338E+02  0.7561462E-02  0.1315581E+00
          1   -1    0    0  501    0  0.00000000000E+00  0.00000000000E+00  0.24926437318E+03  0.24926437318E+03  0.00000000000E+00 0. -1.
         -1   -1    0    0    0  501 -0.00000000000E+00 -0.00000000000E+00 -0.51898813003E+02  0.51898813003E+02  0.00000000000E+00 0.  1.
         25    2    1    2    0    0 -0.26010501685E+02 -0.10690119336E+02  0.13775393250E+03  0.18819030083E+03  0.12509443856E+03 0.  0.
          5    1    3    3  502    0  0.44129479022E+02 -0.24087375740E+02  0.86699469611E+02  0.10030893788E+03  0.41800000000E+01 0.  1.
         -5    1    3    3    0  502 -0.70139980707E+02  0.13397256404E+02  0.51054462893E+02  0.87881362950E+02  0.41800000000E+01 0.  1.
        -11    1    1    2    0    0  0.35390094087E+02  0.25387544855E+01  0.80891220719E+02  0.88330592793E+02  0.00000000000E+00 0. -1.
         11    1    1    2    0    0 -0.93795924026E+01  0.81513648501E+01 -0.21279593041E+02  0.24642292559E+02  0.00000000000E+00 0.  1.
</event>
<event>
 7    1  0.2556591E-009  0.2380368E+03  0.7561462E-02  0.1121108E+00
         -2   -1    0    0    0  501 -0.00000000000E+00  0.00000000000E+00  0.37514248339E+03  0.37514248339E+03  0.00000000000E+00 0.  1.
          2   -1    0    0  501    0  0.00000000000E+00 -0.00000000000E+00 -0.17604377018E+03  0.17604377018E+03  0.00000000000E+00 0. -1.
         25    2    1    2    0    0  0.21328777415E+03 -0.39240949756E+01  0.20063539554E+03  0.31844807739E+03  0.12509013922E+03 0.  0.
          5    1    3    3  502    0  0.32784229647E+02 -0.47437558097E+02  0.25553010091E+02  0.63210413354E+02  0.41800000000E+01 0.  1.
         -5    1    3    3    0  502  0.18050354450E+03  0.43513463121E+02  0.17508238545E+03  0.25523766404E+03  0.41800000000E+01 0.  1.
        -11    1    1    2    0    0 -0.14180192043E+03 -0.41610092100E+02 -0.55747647844E+01  0.14788597771E+03  0.00000000000E+00 0. -1.
         11    1    1    2    0    0 -0.71485853721E+02  0.45534187076E+02  0.40380824593E+01  0.84852198467E+02  0.00000000000E+00 0.  1.
</event>
<event>
 7    1  0.2556591E-009  0.1087896E+03  0.7561462E-02  0.1262828E+00
         -4   -1    0    0    0  501 -0.00000000000E+00  0.00000000000E+00  0.18440363513E+03  0.18440363513E+03  0.00000000000E+00 0.  1.
          4   -1    0    0  501    0  0.00000000000E+00 -0.00000000000E+00 -0.69853834824E+02  0.69853834824E+02  0.00000000000E+00 0. -1.
         25    2    1    2    0    0  0.25333749394E+02 -0.18771405867E+02  0.75307390351E+02  0.14937231560E+03  0.12508685418E+03 0.  0.
          5    1    3    3  502    0 -0.25540433440E+02  0.41213253845E+02  0.17679300884E+02  0.51777177526E+02  0.41800000000E+01 0. -1.
         -5    1    3    3    0  502  0.50874182834E+02 -0.59984659712E+02  0.57628089467E+02  0.97595138072E+02  0.41800000000E+01 0. -1.
        -11    1    1    2    0    0  0.23426753386E+02  0.31969889487E+02 -0.19815508365E+01  0.39683915529E+02  0.00000000000E+00 0. -1.
         11    1    1    2    0    0 -0.48760502779E+02 -0.13198483621E+02  0.41223960793E+02  0.65201238827E+02  0.00000000000E+00 0.  1.
</event>
<event>
 7    1  0.2556591E-009  0.1187813E+03  0.7561462E-02  0.1245121E+00
          2   -1    0    0  501    0  0.00000000000E+00  0.00000000000E+00  0.96636996199E+02  0.96636996199E+02  0.00000000000E+00 0. -1.
         -2   -1    0    0    0  501 -0.00000000000E+00 -0.00000000000E+00 -0.23144489619E+03  0.23144489619E+03  0.00000000000E+00 0.  1.
         25    2    1    2    0    0  0.36363737530E+02 -0.75098656247E+02 -0.13267406960E+02  0.15094868163E+03  0.12508937134E+03 0.  0.
          5    1    3    3  502    0  0.76256260450E+02 -0.75888265159E+02 -0.22004647638E+02  0.10988959443E+03  0.41800000000E+01 0. -1.
         -5    1    3    3    0  502 -0.39892522920E+02  0.78960891211E+00  0.87372406774E+01  0.41059087201E+02  0.41800000000E+01 0. -1.
        -11    1    1    2    0    0 -0.36478301985E+01  0.45548907542E+02 -0.12482479501E+03  0.13292569012E+03  0.00000000000E+00 0.  1.
         11    1    1    2    0    0 -0.32715907332E+02  0.29549748705E+02  0.32843019867E+01  0.44207520634E+02  0.00000000000E+00 0. -1.
</event>
<event>
 7    1  0.2556591E-009  0.5782972E+02  0.7561462E-02  0.1407172E+00
         -4   -1    0    0    0  501 -0.00000000000E+00  0.00000000000E+00  0.69177766942E+02  0.69177766942E+02  0.00000000000E+00 0.  1.
          4   -1    0    0  501    0  0.00000000000E+00 -0.00000000000E+00 -0.15471484672E+03  0.15471484672E+03  0.00000000000E+00 0. -1.
         25    2    1    2    0    0  0.29924199336E+02  0.32485746880E+02 -0.67322229893E+02  0.14876761571E+03  0.12509492152E+03 0.  0.
          5    1    3    3  502    0  0.36296817459E+02  0.77740007456E+01 -0.10020100435E+03  0.10693740093E+03  0.41800000000E+01 0. -1.
         -5    1    3    3    0  502 -0.63726181239E+01  0.24711746134E+02  0.32878774454E+02  0.41830214778E+02  0.41800000000E+01 0. -1.
        -11    1    1    2    0    0  0.28695279312E+01 -0.15016312365E+02  0.17741260182E+02  0.23419567470E+02  0.00000000000E+00 0.  1.
         11    1    1    2    0    0 -0.32793727267E+02 -0.17469434515E+02 -0.35956110064E+02  0.51705430481E+02  0.00000000000E+00 0. -1.
</event>
<event>
 7    1  0.2556591E-009  0.1793430E+03  0.7561462E-02  0.1168440E+00
         -1   -1    0    0    0  501 -0.00000000000E+00  0.00000000000E+00  0.96227462274E+02  0.96227462274E+02  0.00000000000E+00 0.  1.
          1   -1    0    0  501    0  0.00000000000E+00 -0.00000000000E+00 -0.36893358884E+03  0.36893358884E+03  0.00000000000E+00 0. -1.
         25    2    1    2    0    0  0.15440695666E+03  0.24715747090E+02 -0.17416460284E+03  0.26539430386E+03  0.12509376971E+03 0.  0.
          5    1    3    3  502    0  0.37899481801E+02  0.66200086901E+02 -0.62174715572E+02  0.98498679600E+02  0.41800000000E+01 0.  1.
         -5    1    3    3    0  502  0.11650747486E+03 -0.41484339811E+02 -0.11198988726E+03  0.16689562426E+03  0.41800000000E+01 0.  1.
        -11    1    1    2    0    0 -0.10800391914E+03 -0.49718050273E+01 -0.25629605175E+02  0.11111454476E+03  0.00000000000E+00 0.  1.
         11    1    1    2    0    0 -0.46403037524E+02 -0.19743942062E+02 -0.72911918550E+02  0.88652202490E+02  0.00000000000E+00 0. -1.
</event>
<event>
 7    1  0.2556591E-009  0.9453659E+02  0.7561462E-02  0.1292223E+00
         -2   -1    0    0    0  501 -0.00000000000E+00  0.00000000000E+00  0.72577400948E+02  0.72577400948E+02  0.00000000000E+00 0.  1.
          2   -1    0    0  501    0  0.00000000000E+00 -0.00000000000E+00 -0.16916097282E+03  0.16916097282E+03  0.00000000000E+00 0. -1.
         25    2    1    2    0    0  0.30441850109E+02  0.10528950193E+02 -0.84919832458E+02  0.15458352698E+03  0.12508846405E+03 0.  0.
          5    1    3    3  502    0 -0.29186398045E+02 -0.34430546154E+02 -0.57886489414E+01  0.45697802965E+02  0.41800000000E+01 0.  1.
         -5    1    3    3    0  502  0.59628248154E+02  0.44959496346E+02 -0.79131183517E+02  0.10888572402E+03  0.41800000000E+01 0.  1.
        -11    1    1    2    0    0  0.11999018360E+02 -0.21933948057E+02 -0.30417682592E+02  0.39373975329E+02  0.00000000000E+00 0. -1.
         11    1    1    2    0    0 -0.42440868469E+02  0.11404997864E+02  0.18753943177E+02  0.47780871459E+02  0.00000000000E+00 0.  1.
</event>
<event>
 7    1  0.2556591E-009  0.1560049E+03  0.7561462E-02  0.1193282E+00
         -2   -1    0    0    0  501 -0.00000000000E+00  0.00000000000E+00  0.45682490243E+02  0.45682490243E+02  0.00000000000E+00 0.  1.
          2   -1    0    0  501    0  0.00000000000E+00 -0.00000000000E+00 -0.62466236995E+03  0.62466236995E+03  0.00000000000E+00 0. -1.
         25    2    1    2    0    0  0.71761542521E+02 -0.10249246072E+03 -0.37217565651E+03  0.41208529925E+03  0.12508057830E+03 0.  0.
          5    1    3    3  502    0  0.10423192202E+03 -0.97892884701E+02 -0.28591367983E+03  0.31970520039E+03  0.41800000000E+01 0.  1.
         -5    1    3    3    0  502 -0.32470379497E+02 -0.45995760213E+01 -0.86261976677E+02  0.92380098855E+02  0.41800000000E+01 0.  1.
        -11    1    1    2    0    0  0.35269968119E+00  0.41343741846E+02 -0.13009209613E+03  0.13650414962E+03  0.00000000000E+00 0.  1.
         11    1    1    2    0    0 -0.72114242202E+02  0.61148718876E+02 -0.76712127068E+02  0.12175541133E+03  0.00000000000E+00 0. -1.
</event>
<event>
 7    1  0.2556591E-009  0.2581945E+03  0.7561462E-02  0.1108233E+00
          2   -1    0    0  501    0  0.00000000000E+00  0.00000000000E+00  0.42560000497E+03  0.42560000497E+03  0.00000000000E+00 0. -1.
         -2   -1    0    0    0  501 -0.00000000000E+00 -0.00000000000E+00 -0.19136122847E+03  0.19136122847E+03  0.00000000000E+00 0.  1.
         25    2    1    2    0    0  0.13412348113E+03 -0.19389304225E+03 -0.78770923778E+01  0.26700760641E+03  0.12508954102E+03 0.  0.
          5    1    3    3  502    0  0.40989664929E+02 -0.16046700949E+03 -0.21404696215E+02  0.16704923581E+03  0.41800000000E+01 0.  1.
         -5    1    3    3    0  502  0.93133816204E+02 -0.33426032757E+02  0.13527603837E+02  0.99958370596E+02  0.41800000000E+01 0.  1.
        -11    1    1    2    0    0 -0.12584598625E+03  0.10931051180E+03  0.17478228607E+03  0.24152608093E+03  0.00000000000E+00 0.  1.
         11    1    1    2    0    0 -0.82774948790E+01  0.84582530449E+02  0.67333582805E+02  0.10842754609E+03  0.00000000000E+00 0. -1.
</event>
<event>
 7    1  0.2556591E-009  0.1094047E+03  0.7561462E-02  0.1261676E+00
          2   -1    0    0  501    0  0.00000000000E+00  0.00000000000E+00  0.17305828702E+03  0.17305828702E+03  0.00000000000E+00 0.  1.
         -2   -1    0    0    0  501 -0.00000000000E+00 -0.00000000000E+00 -0.12493316325E+03  0.12493316325E+03  0.00000000000E+00 0. -1.
         25    2    1    2    0    0  0.16950221826E+02  0.47413020868E+02  0.12862428789E+02  0.13545740398E+03  0.12509181288E+03 0.  0.
          5    1    3    3  502    0  0.22012206970E+02  0.92198086763E+01  0.65646461284E+02  0.69974798369E+02  0.41800000000E+01 0. -1.
         -5    1    3    3    0  502 -0.50619851432E+01  0.38193212192E+02 -0.52784032494E+02  0.65482605610E+02  0.41800000000E+01 0. -1.
        -11    1    1    2    0    0  0.59148921165E+02 -0.53139443877E+02  0.33271170121E+02  0.86193770841E+02  0.00000000000E+00 0.  1.
         11    1    1    2    0    0 -0.76099142992E+02  0.57264230083E+01  0.19915248622E+01  0.76340275450E+02  0.00000000000E+00 0. -1.
</event>
<event>
 7    1  0.2556591E-009  0.1419202E+03  0.7561462E-02  0.1210768E+00
          1   -1    0    0  501    0  0.00000000000E+00  0.00000000000E+00  0.10472121182E+04  0.10472121182E+04  0.00000000000E+00 0. -1.
         -1   -1    0    0    0  501 -0.00000000000E+00 -0.00000000000E+00 -0.23640860962E+02  0.23640860962E+02  0.00000000000E+00 0.  1.
         25    2    1    2    0    0  0.99064545497E+02  0.32658840222E+02  0.68964548372E+03  0.70861738926E+03  0.12508927664E+03 0.  0.
          5    1    3    3  502    0  0.11808302190E+03 -0.64639922754E+01  0.47009746104E+03  0.48476229075E+03  0.41800000000E+01 0. -1.
         -5    1    3    3    0  502 -0.19018476404E+02  0.39122832498E+02  0.21954802268E+03  0.22385509851E+03  0.41800000000E+01 0. -1.
        -11    1    1    2    0    0 -0.52108736475E+02 -0.49547986311E+02  0.10073469465E+03  0.12376510846E+03  0.00000000000E+00 0.  1.
         11    1    1    2    0    0 -0.46955809022E+02  0.16889146089E+02  0.23319107883E+03  0.23847048140E+03  0.00000000000E+00 0. -1.
</event>
<event>
 7    1  0.2556591E-009  0.7033693E+02  0.7561462E-02  0.1358951E+00
          2   -1    0    0  501    0  0.00000000000E+00  0.00000000000E+00  0.32693761056E+03  0.32693761056E+03  0.00000000000E+00 0.  1.
         -2   -1    0    0    0  501 -0.00000000000E+00 -0.00000000000E+00 -0.45544860633E+02  0.45544860633E+02  0.00000000000E+00 0. -1.
         25    2    1    2    0    0  0.20458042497E+02 -0.22782657497E+02  0.86379416810E+02  0.15507168150E+03  0.12509293253E+03 0.  0.
          5    1    3    3  502    0  0.28390317343E+02 -0.12793557457E+02  0.11726192722E+03  0.12139817629E+03  0.41800000000E+01 0. -1.
         -5    1    3    3    0  502 -0.79322748457E+01 -0.99891000397E+01 -0.30882510409E+02  0.33673505208E+02  0.41800000000E+01 0. -1.
        -11    1    1    2    0    0 -0.27206548791E+02 -0.31218849890E+02  0.76147379309E+02  0.86678926281E+02  0.00000000000E+00 0. -1.
         11    1    1    2    0    0  0.67485062938E+01  0.54001507386E+02  0.11886595381E+03  0.13073186341E+03  0.00000000000E+00 0.  1.
</event>
<event>
 7    1  0.2556591E-009  0.8879414E+02  0.7561462E-02  0.1305798E+00
          1   -1    0    0  501    0  0.00000000000E+00  0.00000000000E+00  0.99643015807E+02  0.99643015807E+02  0.00000000000E+00 0. -1.
         -1   -1    0    0    0  501 -0.00000000000E+00 -0.00000000000E+00 -0.15957791686E+03  0.15957791686E+03  0.00000000000E+00 0.  1.
         25    2    1    2    0    0  0.15659284360E+02 -0.54917026934E-01  0.30687367255E+02  0.12975093916E+03  0.12509346706E+03 0.  0.
          5    1    3    3  502    0  0.48651735356E+02 -0.14451359356E+02 -0.29972931781E+02  0.59090457605E+02  0.41800000000E+01 0. -1.
         -5    1    3    3    0  502 -0.32992450996E+02  0.14396442329E+02  0.60660299036E+02  0.70660481555E+02  0.41800000000E+01 0. -1.
        -11    1    1    2    0    0  0.22863195124E+02  0.32720985702E+02 -0.53674518854E+02  0.66890526764E+02  0.00000000000E+00 0.  1.
         11    1    1    2    0    0 -0.38522479484E+02 -0.32666068675E+02 -0.36947749459E+02  0.62579466747E+02  0.00000000000E+00 0. -1.
</event>
<event>
 7    1  0.2556591E-009  0.8137183E+02  0.7561462E-02  0.1325203E+00
          1   -1    0    0  501    0  0.00000000000E+00  0.00000000000E+00  0.20146212676E+03  0.20146212676E+03  0.00000000000E+00 0. -1.
         -1   -1    0    0    0  501 -0.00000000000E+00 -0.00000000000E+00 -0.67217571140E+02  0.67217571140E+02  0.00000000000E+00 0.  1.
         25    2    1    2    0    0  0.34301438387E+02  0.24017517395E+02  0.84942378923E+02  0.15689487064E+03  0.12508941954E+03 0.  0.
          5    1    3    3  502    0  0.38503523691E+02 -0.14439113641E+02 -0.19306937140E+02  0.45620604568E+02  0.41800000000E+01 0. -1.
         -5    1    3    3    0  502 -0.42020853043E+01  0.38456631036E+02  0.10424931606E+03  0.11127426608E+03  0.41800000000E+01 0. -1.
        -11    1    1    2    0    0  0.20855182429E+02 -0.16983832311E+02  0.49325203646E+02  0.56181535302E+02  0.00000000000E+00 0. -1.
         11    1    1    2    0    0 -0.55156620816E+02 -0.70336850837E+01 -0.23026949062E-01  0.55603291953E+02  0.00000000000E+00 0.  1.
</event>
<event>
 7    1  0.2556591E-009  0.9511925E+02  0.7561462E-02  0.1290908E+00
          2   -1    0    0  501    0  0.00000000000E+00  0.00000000000E+00  0.29138394975E+03  0.29138394975E+03  0.00000000000E+00 0. -1.
         -2   -1    0    0    0  501 -0.00000000000E+00 -0.00000000000E+00 -0.44565379369E+02  0.44565379369E+02  0.00000000000E+00 0.  1.
         25    2    1    2    0    0  0.95828654977E+01 -0.96037454717E+01  0.17529449780E+03  0.21577647186E+03  0.12508901475E+03 0.  0.
          5    1    3    3  502    0  0.53753657712E+02 -0.23884971357E+01  0.26083320805E+02  0.59941410229E+02  0.41800000000E+01 0.  1.
         -5    1    3    3    0  502 -0.44170792215E+02 -0.72152483360E+01  0.14921117700E+03  0.15583506164E+03  0.41800000000E+01 0.  1.
        -11    1    1    2    0    0 -0.75367211433E+01  0.50153866252E+02  0.58741436265E+02  0.77606499729E+02  0.00000000000E+00 0.  1.
         11    1    1    2    0    0 -0.20461443544E+01 -0.40550120780E+02  0.12782636313E+02  0.42566357527E+02  0.00000000000E+00 0. -1.
</event>
<event>
 7    1  0.2556591E-009  0.1767154E+03  0.7561462E-02  0.1171020E+00
          1   -1    0    0  501    0  0.00000000000E+00  0.00000000000E+00  0.96403950369E+03  0.96403950369E+03  0.00000000000E+00 0.  1.
         -1   -1    0    0    0  501 -0.00000000000E+00 -0.00000000000E+00 -0.50854707247E+02  0.50854707247E+02  0.00000000000E+00 0. -1.
         25    2    1    2    0    0  0.16292687537E+03  0.17814114869E+02  0.23796194503E+03  0.31486247059E+03  0.12509987488E+03 0.  0.
          5    1    3    3  502    0  0.28124068064E+02 -0.31776794357E+02  0.12502638681E+03  0.13209768228E+03  0.41800000000E+01 0.  1.
         -5    1    3    3    0  502  0.13480280731E+03  0.49590909226E+02  0.11293555822E+03  0.18276478831E+03  0.41800000000E+01 0.  1.
        -11    1    1    2    0    0 -0.12245425108E+03  0.10099717349E+01  0.60158151081E+03  0.61391886907E+03  0.00000000000E+00 0.  1.
         11    1    1    2    0    0 -0.40472624297E+02 -0.18824086604E+02  0.73641340607E+02  0.86112871282E+02  0.00000000000E+00 0. -1.
</event>
<event>
 7    1  0.2556591E-009  0.1002741E+03  0.7561462E-02  0.1279721E+00
          1   -1    0    0  501    0  0.00000000000E+00  0.00000000000E+00  0.20530068169E+03  0.20530068169E+03  0.00000000000E+00 0. -1.
         -1   -1    0    0    0  501 -0.00000000000E+00 -0.00000000000E+00 -0.92822023826E+02  0.92822023826E+02  0.00000000000E+00 0.  1.
         25    2    1    2    0    0 -0.27686805168E+02 -0.79623408076E+02  0.61781337865E+02  0.16301091109E+03  0.12509667115E+03 0.  0.
          5    1    3    3  502    0 -0.11836569808E+01  0.15883489626E+02 -0.25847192299E+02  0.30646958027E+02  0.41800000000E+01 0.  1.
         -5    1    3    3    0  502 -0.26503148188E+02 -0.95506897702E+02  0.87628530164E+02  0.13236395307E+03  0.41800000000E+01 0.  1.
        -11    1    1    2    0    0  0.17387504129E+02  0.35005864010E+02 -0.25175155028E+02  0.46492195534E+02  0.00000000000E+00 0.  1.
         11    1    1    2    0    0  0.10299301040E+02  0.44617544066E+02  0.75872475028E+02  0.88619598889E+02  0.00000000000E+00 0. -1.
</event>
<event>
 7    1  0.2556591E-009  0.1350685E+03  0.7561462E-02  0.1220123E+00
          4   -1    0    0  501    0  0.00000000000E+00  0.00000000000E+00  0.46580168850E+02  0.46580168850E+02  0.00000000000E+00 0. -1.
         -4   -1    0    0    0  501 -0.00000000000E+00 -0.00000000000E+00 -0.50902076573E+03  0.50902076573E+03  0.00000000000E+00 0.  1.
         25    2    1    2    0    0  0.54823412843E+02 -0.87768958995E+02 -0.30244100370E+03  0.34326352519E+03  0.12510112008E+03 0.  0.
          5    1    3    3  502    0 -0.16399138913E+02 -0.83310781449E+02 -0.20889834591E+03  0.22553405372E+03  0.41800000000E+01 0.  1.
         -5    1    3    3    0  502  0.71222551756E+02 -0.44581775457E+01 -0.93542657790E+02  0.11772947147E+03  0.41800000000E+01 0.  1.
        -11    1    1    2    0    0 -0.20405745536E+02  0.11544826232E+01  0.65675689948E+01  0.21467655752E+02  0.00000000000E+00 0. -1.
         11    1    1    2    0    0 -0.34417667307E+02  0.86614476371E+02 -0.16656716217E+03  0.19086975364E+03  0.00000000000E+00 0.  1.
</event>
<event>
 7    1  0.2556591E-009  0.8935554E+02  0.7561462E-02  0.1304420E+00
          2   -1    0    0  501    0  0.00000000000E+00  0.00000000000E+00  0.37463061064E+02  0.37463061064E+02  0.00000000000E+00 0. -1.
         -2   -1    0    0    0  501 -0.00000000000E+00 -0.00000000000E+00 -0.34289678191E+03  0.34289678191E+03  0.00000000000E+00 0.  1.
         25    2    1    2    0    0  0.21835351737E+02 -0.92104458294E+00 -0.21685333027E+03  0.25129706975E+03  0.12508884646E+03 0.  0.
          5    1    3    3  502    0 -0.26754238696E+02  0.46962608508E+02 -0.12945947097E+03  0.14035135521E+03  0.41800000000E+01 0.  1.
         -5    1    3    3    0  502  0.48589590434E+02 -0.47883653091E+02 -0.87393859298E+02  0.11094571454E+03  0.41800000000E+01 0.  1.
        -11    1    1    2    0    0 -0.17836672132E+02  0.25573624485E+02 -0.97638557783E+02  0.10249607362E+03  0.00000000000E+00 0.  1.
         11    1    1    2    0    0 -0.39986796053E+01 -0.24652579902E+02  0.90581672053E+01  0.26566699598E+02  0.00000000000E+00 0. -1.
</event>
<event>
 7    1  0.2556591E-009  0.1588049E+03  0.7561462E-02  0.1190053E+00
         -1   -1    0    0    0  501 -0.00000000000E+00  0.00000000000E+00  0.22964874602E+03  0.22964874602E+03  0.00000000000E+00 0.  1.
          1   -1    0    0  501    0  0.00000000000E+00 -0.00000000000E+00 -0.15518164780E+03  0.15518164780E+03  0.00000000000E+00 0. -1.
         25    2    1    2    0    0 -0.74411395212E+02  0.10494880737E+03  0.12876977011E+03  0.22087146500E+03  0.12510492576E+03 0.  0.
          5    1    3    3  502    0  0.26341545133E+02  0.31876910507E+02  0.73903002741E+02  0.84788800190E+02  0.41800000000E+01 0.  1.
         -5    1    3    3    0  502 -0.10075294035E+03  0.73071896863E+02  0.54866767369E+02  0.13608266481E+03  0.41800000000E+01 0.  1.
        -11    1    1    2    0    0  0.91801295141E+02 -0.85913967625E+02 -0.56973278670E+02  0.13803855297E+03  0.00000000000E+00 0.  1.
         11    1    1    2    0    0 -0.17389899929E+02 -0.19034839744E+02  0.26706067809E+01  0.25920375850E+02  0.00000000000E+00 0. -1.
</event>
<event>
 7    1  0.2556591E-009  0.1026185E+03  0.7561462E-02  0.1274884E+00
          2   -1    0    0  501    0  0.00000000000E+00  0.00000000000E+00  0.38037863805E+03  0.38037863805E+03  0.00000000000E+00 0. -1.
         -2   -1    0    0    0  501 -0.00000000000E+00 -0.00000000000E+00 -0.41707115302E+02  0.41707115302E+02  0.00000000000E+00 0.  1.
         25    2    1    2    0    0 -0.20380192286E+02 -0.54949930584E+02  0.22072995004E+03  0.26039432843E+03  0.12509455754E+03 0.  0.
          5    1    3    3  502    0  0.50885279375E+01 -0.71291038232E+02  0.50912843977E+02  0.87851552807E+02  0.41800000000E+01 0.  1.
         -5    1    3    3    0  502 -0.25468720223E+02  0.16341107648E+02  0.16981710606E+03  0.17254277562E+03  0.41800000000E+01 0.  1.
        -11    1    1    2    0    0  0.18248607937E+02  0.77918813234E+02  0.11238084941E+03  0.13796306920E+03  0.00000000000E+00 0. -1.
         11    1    1    2    0    0  0.21315843494E+01 -0.22968882650E+02  0.55607233049E+01  0.23728355731E+02  0.00000000000E+00 0.  1.
</event>
<event>
 7    1  0.2556591E-009  0.3915195E+03  0.7561462E-02  0.1046756E+00
          3   -1    0    0  501    0  0.00000000000E+00  0.00000000000E+00  0.27612006529E+03  0.27612006529E+03  0.00000000000E+00 0. -1.
         -3   -1    0    0    0  501 -0.00000000000E+00 -0.00000000000E+00 -0.61391173938E+03  0.61391173938E+03  0.00000000000E+00 0.  1.
         25    2    1    2    0    0  0.26302036297E+03  0.28922348059E+03 -0.94135642576E+02  0.42111631481E+03  0.12508996094E+03 0.  0.
          5    1    3    3  502    0  0.93054521353E+02  0.11148164341E+03  0.25671840635E+02  0.14752564714E+03  0.41800000000E+01 0. -1.
         -5    1    3    3    0  502  0.16996584162E+03  0.17774183718E+03 -0.11980748321E+03  0.27359066767E+03  0.41800000000E+01 0. -1.
        -11    1    1    2    0    0 -0.19715699433E+03 -0.23284719922E+03 -0.14571344988E+03  0.33811404596E+03  0.00000000000E+00 0.  1.
         11    1    1    2    0    0 -0.65863368644E+02 -0.56376281368E+02 -0.97942581635E+02  0.13080144390E+03  0.00000000000E+00 0. -1.
</event>
<event>
 7    1  0.2556591E-009  0.1027971E+03  0.7561462E-02  0.1274522E+00
         -2   -1    0    0    0  501 -0.00000000000E+00  0.00000000000E+00  0.76760956245E+02  0.76760956245E+02  0.00000000000E+00 0.  1.
          2   -1    0    0  501    0  0.00000000000E+00 -0.00000000000E+00 -0.28565101046E+03  0.28565101046E+03  0.00000000000E+00 0. -1.
         25    2    1    2    0    0 -0.25920969231E+02 -0.33598749840E+02 -0.32180189796E+01  0.13213136216E+03  0.12509024176E+03 0.  0.
          5    1    3    3  502    0 -0.60928599309E+02 -0.21401707571E+02 -0.42919383756E+02  0.77652258195E+02  0.41800000000E+01 0. -1.
         -5    1    3    3    0  502  0.35007630078E+02 -0.12197042269E+02  0.39701364777E+02  0.54479103966E+02  0.41800000000E+01 0. -1.
        -11    1    1    2    0    0 -0.14625588757E+02  0.55566686710E+02 -0.11331629789E+03  0.12705175278E+03  0.00000000000E+00 0. -1.
         11    1    1    2    0    0  0.40546557988E+02 -0.21967936870E+02 -0.92355737348E+02  0.10322885176E+03  0.00000000000E+00 0.  1.
</event>
<event>
 7    1  0.2556591E-009  0.1165763E+03  0.7561462E-02  0.1248854E+00
          1   -1    0    0  501    0  0.00000000000E+00  0.00000000000E+00  0.78877543607E+02  0.78877543607E+02  0.00000000000E+00 0. -1.
         -1   -1    0    0    0  501 -0.00000000000E+00 -0.00000000000E+00 -0.20473280454E+03  0.20473280454E+03  0.00000000000E+00 0.  1.
         25    2    1    2    0    0  0.54529613009E+02  0.38253251559E+02 -0.52055065615E+02  0.15097473520E+03  0.12508737292E+03 0.  0.
          5    1    3    3  502    0 -0.48184275059E+00  0.67902413326E+02  0.22620400422E+01  0.68070251455E+02  0.41800000000E+01 0. -1.
         -5    1    3    3    0  502  0.55011455760E+02 -0.29649161767E+02 -0.54317105657E+02  0.82904483746E+02  0.41800000000E+01 0. -1.
        -11    1    1    2    0    0 -0.52261159726E+02  0.10813759279E+02 -0.62589065795E+02  0.82253008229E+02  0.00000000000E+00 0.  1.
         11    1    1    2    0    0 -0.22684532833E+01 -0.49067010838E+02 -0.11211129523E+02  0.50382604717E+02  0.00000000000E+00 0. -1.
</event>
<event>
 7    1  0.2556591E-009  0.9908971E+02  0.7561462E-02  0.1282222E+00
          1   -1    0    0  501    0  0.00000000000E+00  0.00000000000E+00  0.29781553011E+03  0.29781553011E+03  0.00000000000E+00 0. -1.
         -1   -1    0    0    0  501 -0.00000000000E+00 -0.00000000000E+00 -0.50224546384E+02  0.50224546384E+02  0.00000000000E+00 0.  1.
         25    2    1    2    0    0  0.47235862642E+02  0.16387513778E+01  0.18937901483E+03  0.23182953513E+03  0.12508640963E+03 0.  0.
          5    1    3    3  502    0  0.13175540341E+02  0.51823274176E+02  0.30465019265E+02  0.61683356008E+02  0.41800000000E+01 0.  1.
         -5    1    3    3    0  502  0.34060322301E+02 -0.50184522798E+02  0.15891399556E+03  0.17014617912E+03  0.41800000000E+01 0.  1.
        -11    1    1    2    0    0 -0.39548128221E+02  0.30979409751E+02  0.64865477272E+02  0.82044551410E+02  0.00000000000E+00 0.  1.
         11    1    1    2    0    0 -0.76877344210E+01 -0.32618161129E+02 -0.66535083736E+01  0.34165989955E+02  0.00000000000E+00 0. -1.
</event>
<event>
 7    1  0.2556591E-009  0.8693556E+02  0.7561462E-02  0.1310447E+00
         -2   -1    0    0    0  501 -0.00000000000E+00  0.00000000000E+00  0.90475180013E+02  0.90475180013E+02  0.00000000000E+00 0.  1.
          2   -1    0    0  501    0  0.00000000000E+00 -0.00000000000E+00 -0.19209530251E+03  0.19209530251E+03  0.00000000000E+00 0. -1.
         25    2    1    2    0    0  0.22940322471E+02 -0.53422459859E+02 -0.28737943918E+02  0.14090095252E+03  0.12508793462E+03 0.  0.
          5    1    3    3  502    0  0.37897267772E+02 -0.60855299229E+02 -0.67456935753E+02  0.98526549366E+02  0.41800000000E+01 0.  1.
         -5    1    3    3    0  502 -0.14956945301E+02  0.74328393697E+01  0.38718991836E+02  0.42374403153E+02  0.41800000000E+01 0.  1.
        -11    1    1    2    0    0 -0.44220842083E+02  0.31529800019E+02  0.82955566446E+01  0.54940216816E+02  0.00000000000E+00 0.  1.
         11    1    1    2    0    0  0.21280519612E+02  0.21892659840E+02 -0.81177735221E+02  0.86729313184E+02  0.00000000000E+00 0. -1.
</event>
<event>
 7    1  0.2556591E-009  0.9934009E+02  0.7561462E-02  0.1281690E+00
          1   -1    0    0  501    0  0.00000000000E+00  0.00000000000E+00  0.24149591542E+03  0.24149591542E+03  0.00000000000E+00 0. -1.
         -1   -1    0    0    0  501 -0.00000000000E+00 -0.00000000000E+00 -0.85715918595E+02  0.85715918595E+02  0.00000000000E+00 0.  1.
         25    2    1    2    0    0  0.77817356708E+01  0.41638017362E+02 -0.12167096128E+02  0.13263658932E+03  0.12510054635E+03 0.  0.
          5    1    3    3  502    0 -0.16367934179E+02  0.64658444858E+02 -0.48921747772E+02  0.82821697434E+02  0.41800000000E+01 0. -1.
         -5    1    3    3    0  502  0.24149669850E+02 -0.23020427497E+02  0.36754651644E+02  0.49814891885E+02  0.41800000000E+01 0. -1.
        -11    1    1    2    0    0 -0.42913444090E+02  0.10684374614E+01  0.75559425524E+02  0.86901852844E+02  0.00000000000E+00 0.  1.
         11    1    1    2    0    0  0.35131708419E+02 -0.42706454823E+02  0.92387667425E+02  0.10767339185E+03  0.00000000000E+00 0. -1.
</event>
<event>
 7    1  0.2556591E-009  0.1217929E+03  0.7561462E-02  0.1240168E+00
         -1   -1    0    0    0  501 -0.00000000000E+00  0.00000000000E+00  0.10414343966E+03  0.10414343966E+03  0.00000000000E+00 0. -1.
          1   -1    0    0  501    0  0.00000000000E+00 -0.00000000000E+00 -0.17012589028E+03  0.17012589028E+03  0.00000000000E+00 0.  1.
         25    2    1    2    0    0  0.46558026178E+02  0.43980447234E+02  0.89903062200E+01  0.14080689680E+03  0.12507528549E+03 0.  0.
          5    1    3    3  502    0  0.83897110763E+02  0.51270115008E+02  0.21130864176E+02  0.10065453645E+03  0.41800000000E+01 0. -1.
         -5    1    3    3    0  502 -0.37339084585E+02 -0.72896677738E+01 -0.12140557956E+02  0.40152360347E+02  0.41800000000E+01 0. -1.
        -11    1    1    2    0    0 -0.68082466419E+02 -0.50093622522E+02 -0.71717403553E+02  0.11085115797E+03  0.00000000000E+00 0.  1.
         11    1    1    2    0    0  0.21524440241E+02  0.61131752876E+01 -0.32553532827E+01  0.22611275169E+02  0.00000000000E+00 0. -1.
</event>
<event>
 7    1  0.2556591E-009  0.9465594E+02  0.7561462E-02  0.1291953E+00
          1   -1    0    0  501    0  0.00000000000E+00  0.00000000000E+00  0.65187399821E+02  0.65187399821E+02  0.00000000000E+00 0. -1.
         -1   -1    0    0    0  501 -0.00000000000E+00 -0.00000000000E+00 -0.18878069271E+03  0.18878069271E+03  0.00000000000E+00 0.  1.
         25    2    1    2    0    0  0.10091132950E+02 -0.52576846326E+01 -0.78840461679E+02  0.14829163671E+03  0.12508044175E+03 0.  0.
          5    1    3    3  502    0  0.21309173387E+02  0.57594006282E+02 -0.36301017681E+02  0.71458986242E+02  0.41800000000E+01 0.  1.
         -5    1    3    3    0  502 -0.11218040437E+02 -0.62851690915E+02 -0.42539443999E+02  0.76832650467E+02  0.41800000000E+01 0.  1.
        -11    1    1    2    0    0 -0.13562295783E+02  0.33073840815E+02 -0.62854181754E+02  0.72308111420E+02  0.00000000000E+00 0.  1.
         11    1    1    2    0    0  0.34711628327E+01 -0.27816156182E+02  0.18101350548E+02  0.33368344398E+02  0.00000000000E+00 0. -1.
</event>
<event>
 7    1  0.2556591E-009  0.9395862E+02  0.7561462E-02  0.1293539E+00
          1   -1    0    0  501    0  0.00000000000E+00  0.00000000000E+00  0.38398445028E+02  0.38398445028E+02  0.00000000000E+00 0. -1.
         -1   -1    0    0    0  501 -0.00000000000E+00 -0.00000000000E+00 -0.34895671468E+03  0.34895671468E+03  0.00000000000E+00 0.  1.
         25    2    1    2    0    0 -0.40049653689E+02 -0.12261615174E+02 -0.18759372430E+03  0.22933051488E+03  0.12508700048E+03 0.  0.
          5    1    3    3  502    0 -0.64921097374E+02 -0.15485365832E+02 -0.19219080859E+03  0.20349281252E+03  0.41800000000E+01 0.  1.
         -5    1    3    3    0  502  0.24871443685E+02  0.32237506586E+01  0.45970842904E+01  0.25837702360E+02  0.41800000000E+01 0.  1.
        -11    1    1    2    0    0 -0.45586636537E+01 -0.32268088493E+02 -0.63485523092E+02  0.71361212094E+02  0.00000000000E+00 0.  1.
         11    1    1    2    0    0  0.44608317343E+02  0.44529703666E+02 -0.59479022258E+02  0.86663432736E+02  0.00000000000E+00 0. -1.
</event>
<event>
 7    1  0.2556591E-009  0.3387491E+03  0.7561462E-02  0.1067330E+00
          2   -1    0    0  501    0  0.00000000000E+00  0.00000000000E+00  0.95234820786E+02  0.95234820786E+02  0.00000000000E+00 0. -1.
         -2   -1    0    0    0  501 -0.00000000000E+00 -0.00000000000E+00 -0.13486540125E+04  0.13486540125E+04  0.00000000000E+00 0.  1.
         25    2    1    2    0    0  0.33586944091E+03  0.19638425865E+02 -0.52150654180E+03  0.63309659634E+03  0.12509307753E+03 0.  0.
          5    1    3    3  502    0  0.32056581465E+03  0.28826719609E+02 -0.52361682913E+03  0.61464256071E+03  0.41800000000E+01 0. -1.
         -5    1    3    3    0  502  0.15303626253E+02 -0.91882937434E+01  0.21102873261E+01  0.18454035629E+02  0.41800000000E+01 0. -1.
        -11    1    1    2    0    0 -0.18426541161E+03 -0.22597878631E+02 -0.50345749442E+03  0.53659468383E+03  0.00000000000E+00 0.  1.
         11    1    1    2    0    0 -0.15160402930E+03  0.29594527654E+01 -0.22845515546E+03  0.27419755308E+03  0.00000000000E+00 0. -1.
</event>
<event>
 7    1  0.2556591E-009  0.1018971E+03  0.7561462E-02  0.1276357E+00
          1   -1    0    0  501    0  0.00000000000E+00  0.00000000000E+00  0.73819216511E+02  0.73819216511E+02  0.00000000000E+00 0. -1.
         -1   -1    0    0    0  501 -0.00000000000E+00 -0.00000000000E+00 -0.16834351512E+03  0.16834351512E+03  0.00000000000E+00 0.  1.
         25    2    1    2    0    0  0.40787701350E+01  0.25495430157E+02 -0.36490385816E+02  0.13284950920E+03  0.12510311952E+03 0.  0.
          5    1    3    3  502    0 -0.57318114523E+02  0.17744928930E+02  0.14052149434E+01  0.60163907654E+02  0.41800000000E+01 0. -1.
         -5    1    3    3    0  502  0.61396884658E+02  0.77505012268E+01 -0.37895600759E+02  0.72685601544E+02  0.41800000000E+01 0. -1.
        -11    1    1    2    0    0 -0.32007867427E+02  0.12588281776E+02  0.12454641512E+00  0.34394533390E+02  0.00000000000E+00 0.  1.
         11    1    1    2    0    0  0.27929097292E+02 -0.38083711933E+02 -0.58158459205E+02  0.74918689039E+02  0.00000000000E+00 0. -1.
</event>
<event>
 7    1  0.2556591E-009  0.1426345E+03  0.7561462E-02  0.1209827E+00
         -1   -1    0    0    0  501 -0.00000000000E+00  0.00000000000E+00  0.96130772782E+02  0.96130772782E+02  0.00000000000E+00 0.  1.
          1   -1    0    0  501    0  0.00000000000E+00 -0.00000000000E+00 -0.27863644702E+03  0.27863644702E+03  0.00000000000E+00 0. -1.
         25    2    1    2    0    0  0.35529943028E+02  0.11655910559E+03 -0.10823491423E+03  0.20545314255E+03  0.12509114749E+03 0.  0.
          5    1    3    3  502    0  0.10323751154E+02  0.10718421789E+03 -0.15577595857E+02  0.10888145065E+03  0.41800000000E+01 0.  1.
         -5    1    3    3    0  502  0.25206191874E+02  0.93748876913E+01 -0.92657318374E+02  0.96571691899E+02  0.41800000000E+01 0.  1.
        -11    1    1    2    0    0  0.21876609328E+02 -0.78313102352E+02 -0.53273098695E+02  0.97208801455E+02  0.00000000000E+00 0. -1.
         11    1    1    2    0    0 -0.57406552356E+02 -0.38246003233E+02 -0.20997661309E+02  0.72105275793E+02  0.00000000000E+00 0.  1.
</event>
<event>
 7    1  0.2556591E-009  0.1118817E+03  0.7561462E-02  0.1257124E+00
         -2   -1    0    0    0  501 -0.00000000000E+00  0.00000000000E+00  0.14353362306E+02  0.14353362306E+02  0.00000000000E+00 0.  1.
          2   -1    0    0  501    0  0.00000000000E+00 -0.00000000000E+00 -0.11423323578E+04  0.11423323578E+04  0.00000000000E+00 0. -1.
         25    2    1    2    0    0 -0.41119989693E+02 -0.19392655300E+02 -0.85812283766E+03  0.86838226842E+03  0.12508409555E+03 0.  0.
          5    1    3    3  502    0  0.38913390513E+02  0.18295051077E+02 -0.34176608313E+03  0.34448583256E+03  0.41800000000E+01 0.  1.
         -5    1    3    3    0  502 -0.80033380206E+02 -0.37687706377E+02 -0.51635675453E+03  0.52389643586E+03  0.41800000000E+01 0.  1.
        -11    1    1    2    0    0  0.71753585946E+01  0.47432019663E+02 -0.20045208659E+03  0.20611239962E+03  0.00000000000E+00 0. -1.
         11    1    1    2    0    0  0.33944631098E+02 -0.28039364363E+02 -0.69404071256E+02  0.82191052075E+02  0.00000000000E+00 0.  1.
</event>
<event>
 7    1  0.2556591E-009  0.1494690E+03  0.7561462E-02  0.1201127E+00
          2   -1    0    0  501    0  0.00000000000E+00  0.00000000000E+00  0.79991378551E+02  0.79991378551E+02  0.00000000000E+00 0.  1.
         -2   -1    0    0    0  501 -0.00000000000E+00 -0.00000000000E+00 -0.29813156840E+03  0.29813156840E+03  0.00000000000E+00 0. -1.
         25    2    1    2    0    0  0.30132406808E+02 -0.10533215727E+03 -0.12056744861E+03  0.20539429489E+03  0.12508989334E+03 0.  0.
          5    1    3    3  502    0 -0.11345308688E+02 -0.11737059716E+03 -0.10865070339E+03  0.16039644901E+03  0.41800000000E+01 0.  1.
         -5    1    3    3    0  502  0.41477715495E+02  0.12038439893E+02 -0.11916745216E+02  0.44997845885E+02  0.41800000000E+01 0.  1.
        -11    1    1    2    0    0  0.21962917085E+01  0.10520327488E+03 -0.53431446728E+02  0.11801471197E+03  0.00000000000E+00 0.  1.
         11    1    1    2    0    0 -0.32328698516E+02  0.12888239155E+00 -0.44141294515E+02  0.54713940087E+02  0.00000000000E+00 0. -1.
</event>
<event>
 7    1  0.2556591E-009  0.9590159E+02  0.7561462E-02  0.1289158E+00
         -1   -1    0    0    0  501 -0.00000000000E+00  0.00000000000E+00  0.11419572710E+04  0.11419572710E+04  0.00000000000E+00 0.  1.
          1   -1    0    0  501    0  0.00000000000E+00 -0.00000000000E+00 -0.12778542883E+02  0.12778542883E+02  0.00000000000E+00 0. -1.
         25    2    1    2    0    0  0.38967557938E+02  0.31741712692E+02  0.54161917017E+03  0.55814506733E+03  0.12509429963E+03 0.  0.
          5    1    3    3  502    0  0.16768701401E+02  0.53989440687E+02  0.51077719933E+03  0.51391328919E+03  0.41800000000E+01 0.  1.
         -5    1    3    3    0  502  0.22198856537E+02 -0.22247727995E+02  0.30841970839E+02  0.44231778143E+02  0.41800000000E+01 0.  1.
        -11    1    1    2    0    0 -0.35563061403E+02 -0.62797445528E+02  0.41218970427E+03  0.41845979832E+03  0.00000000000E+00 0.  1.
         11    1    1    2    0    0 -0.34044965343E+01  0.31055732836E+02  0.17536985370E+03  0.17813094825E+03  0.00000000000E+00 0. -1.
</event>
<event>
 7    1  0.2556591E-009  0.1222598E+03  0.7561462E-02  0.1239415E+00
         -1   -1    0    0    0  501 -0.00000000000E+00  0.00000000000E+00  0.62928988791E+02  0.62928988791E+02  0.00000000000E+00 0.  1.
          1   -1    0    0  501    0  0.00000000000E+00 -0.00000000000E+00 -0.24375136709E+03  0.24375136709E+03  0.00000000000E+00 0. -1.
         25    2    1    2    0    0  0.12868739698E+02 -0.65454654389E+02 -0.11851845684E+03  0.18477844296E+03  0.12508609886E+03 0.  0.
          5    1    3    3  502    0  0.11393150227E+02  0.36550064282E+02 -0.43384340321E+02  0.58011933739E+02  0.41800000000E+01 0. -1.
         -5    1    3    3    0  502  0.14755894717E+01 -0.10200471867E+03 -0.75134116518E+02  0.12676650922E+03  0.41800000000E+01 0. -1.
        -11    1    1    2    0    0  0.15418795521E+02  0.73015662160E+02 -0.37452112166E+02  0.83496627966E+02  0.00000000000E+00 0.  1.
         11    1    1    2    0    0 -0.28287535220E+02 -0.75610077709E+01 -0.24851809298E+02  0.38405284958E+02  0.00000000000E+00 0. -1.
</event>
<event>
 7    1  0.2556591E-009  0.1096274E+03  0.7561462E-02  0.1261261E+00
          1   -1    0    0  501    0  0.00000000000E+00  0.00000000000E+00  0.15258957466E+03  0.15258957466E+03  0.00000000000E+00 0. -1.
         -1   -1    0    0    0  501 -0.00000000000E+00 -0.00000000000E+00 -0.15432286879E+03  0.15432286879E+03  0.00000000000E+00 0.  1.
         25    2    1    2    0    0  0.85027850652E+02 -0.15682351203E+02  0.68081648233E+02  0.16660682644E+03  0.12508817796E+03 0.  0.
          5    1    3    3  502    0  0.89741635323E+02 -0.37326738615E+02  0.91888850817E+02  0.13382032667E+03  0.41800000000E+01 0. -1.
         -5    1    3    3    0  502 -0.47137846707E+01  0.21644387412E+02 -0.23807202584E+02  0.32786499771E+02  0.41800000000E+01 0. -1.
        -11    1    1    2    0    0 -0.50463872378E+02  0.33470466197E+02 -0.79796733589E+02  0.10017181846E+03  0.00000000000E+00 0.  1.
         11    1    1    2    0    0 -0.34563978274E+02 -0.17788114995E+02  0.99817912330E+01  0.40133798542E+02  0.00000000000E+00 0. -1.
</event>
<event>
 7    1  0.2556591E-009  0.1210343E+03  0.7561462E-02  0.1241401E+00
          3   -1    0    0  501    0  0.00000000000E+00  0.00000000000E+00  0.36130973425E+03  0.36130973425E+03  0.00000000000E+00 0. -1.
         -3   -1    0    0    0  501 -0.00000000000E+00 -0.00000000000E+00 -0.48327413870E+02  0.48327413870E+02  0.00000000000E+00 0.  1.
         25    2    1    2    0    0  0.29475820602E+02  0.67133105311E+02  0.14371782773E+03  0.20415060199E+03  0.12508787494E+03 0.  0.
          5    1    3    3  502    0  0.47759731352E+02  0.86323265709E+02  0.14703352505E+03  0.17711303743E+03  0.41800000000E+01 0. -1.
         -5    1    3    3    0  502 -0.18283910750E+02 -0.19190160398E+02 -0.33156973182E+01  0.27037564556E+02  0.41800000000E+01 0. -1.
        -11    1    1    2    0    0  0.17777524658E+02 -0.66917053088E+02  0.10229879332E+03  0.12352722571E+03  0.00000000000E+00 0.  1.
         11    1    1    2    0    0 -0.47253345261E+02 -0.21605222294E+00  0.66965699334E+02  0.81959320423E+02  0.00000000000E+00 0. -1.
</event>
<event>
 7    1  0.2556591E-009  0.1433913E+03  0.7561462E-02  0.1208837E+00
          2   -1    0    0  501    0  0.00000000000E+00  0.00000000000E+00  0.24980013533E+03  0.24980013533E+03  0.00000000000E+00 0. -1.
         -2   -1    0    0    0  501 -0.00000000000E+00 -0.00000000000E+00 -0.20657479353E+03  0.20657479353E+03  0.00000000000E+00 0.  1.
         25    2    1    2    0    0 -0.23619246424E+02  0.12815663752E+03 -0.13283874821E+03  0.22422299238E+03  0.12509126566E+03 0.  0.
          5    1    3    3  502    0 -0.34035569655E+02  0.89079551568E+02 -0.15183597769E+03  0.17934665603E+03  0.41800000000E+01 0. -1.
         -5    1    3    3    0  502  0.10416323230E+02  0.39077085953E+02  0.18997229482E+02  0.44876336350E+02  0.41800000000E+01 0. -1.
        -11    1    1    2    0    0 -0.10828903157E+02 -0.11217933951E+03  0.14059904894E+03  0.18019312396E+03  0.00000000000E+00 0. -1.
         11    1    1    2    0    0  0.34448149582E+02 -0.15977298008E+02  0.35465041066E+02  0.51958812525E+02  0.00000000000E+00 0.  1.
</event>
<event>
 7    1  0.2556591E-009  0.9439520E+02  0.7561462E-02  0.1292544E+00
          2   -1    0    0  501    0  0.00000000000E+00  0.00000000000E+00  0.11567174584E+04  0.11567174584E+04  0.00000000000E+00 0. -1.
         -2   -1    0    0    0  501 -0.00000000000E+00 -0.00000000000E+00 -0.15080334709E+02  0.15080334709E+02  0.00000000000E+00 0.  1.
         25    2    1    2    0    0  0.50500772719E+02 -0.23243441446E+02  0.84446146899E+03  0.85548293608E+03  0.12508115642E+03 0.  0.
          5    1    3    3  502    0  0.27997513836E+02  0.23272417646E+02  0.67603896840E+02  0.76897499777E+02  0.41800000000E+01 0. -1.
         -5    1    3    3    0  502  0.22503258883E+02 -0.46515859091E+02  0.77685757215E+03  0.77858543630E+03  0.41800000000E+01 0. -1.
        -11    1    1    2    0    0 -0.14105523559E+02  0.52024126251E+02  0.98409224594E+02  0.11220450522E+03  0.00000000000E+00 0.  1.
         11    1    1    2    0    0 -0.36395249160E+02 -0.28780684806E+02  0.19876643012E+03  0.20411035182E+03  0.00000000000E+00 0. -1.
</event>
<event>
 7    1  0.2556591E-009  0.1591860E+03  0.7561462E-02  0.1189619E+00
         -2   -1    0    0    0  501 -0.00000000000E+00  0.00000000000E+00  0.25828571135E+02  0.25828571135E+02  0.00000000000E+00 0.  1.
          2   -1    0    0  501    0  0.00000000000E+00 -0.00000000000E+00 -0.10927248994E+04  0.10927248994E+04  0.00000000000E+00 0. -1.
         25    2    1    2    0    0 -0.99095631248E+02  0.67947153235E+02 -0.73881257350E+03  0.75889909444E+03  0.12508819691E+03 0.  0.
          5    1    3    3  502    0 -0.68812007409E+02 -0.25445118665E+02 -0.26478363881E+03  0.27479154683E+03  0.41800000000E+01 0. -1.
         -5    1    3    3    0  502 -0.30283623839E+02  0.93392271901E+02 -0.47402893470E+03  0.48410754761E+03  0.41800000000E+01 0. -1.
        -11    1    1    2    0    0  0.38200602201E+02  0.17235097066E+02 -0.11067108977E+03  0.11834029191E+03  0.00000000000E+00 0.  1.
         11    1    1    2    0    0  0.60895029047E+02 -0.85182250301E+02 -0.21741266504E+03  0.24131408423E+03  0.00000000000E+00 0. -1.
</event>
<event>
 7    1  0.2556591E-009  0.1780930E+03  0.7561462E-02  0.1169662E+00
          2   -1    0    0  501    0  0.00000000000E+00  0.00000000000E+00  0.11741765354E+04  0.11741765354E+04  0.00000000000E+00 0. -1.
         -2   -1    0    0    0  501 -0.00000000000E+00 -0.00000000000E+00 -0.28131682734E+02  0.28131682734E+02  0.00000000000E+00 0.  1.
         25    2    1    2    0    0  0.14299249029E+03 -0.13219734053E+02  0.53821995281E+03  0.57091875239E+03  0.12508353445E+03 0.  0.
          5    1    3    3  502    0  0.83488041044E+02  0.52121091821E+02  0.33709258637E+03  0.35119189256E+03  0.41800000000E+01 0.  1.
         -5    1    3    3    0  502  0.59504449247E+02 -0.65340825874E+02  0.20112736643E+03  0.21972685984E+03  0.41800000000E+01 0.  1.
        -11    1    1    2    0    0 -0.10189776718E+03 -0.33232880481E+02  0.42606591533E+03  0.43934012280E+03  0.00000000000E+00 0.  1.
         11    1    1    2    0    0 -0.41094723108E+02  0.46452614535E+02  0.18175898458E+03  0.19204934298E+03  0.00000000000E+00 0. -1.
</event>
<event>
 7    1  0.2556591E-009  0.1296937E+03  0.7561462E-02  0.1227911E+00
         -4   -1    0    0    0  501 -0.00000000000E+00  0.00000000000E+00  0.89932527526E+03  0.89932527526E+03  0.00000000000E+00 0.  1.
          4   -1    0    0  501    0  0.00000000000E+00 -0.00000000000E+00 -0.27108101638E+02  0.27108101638E+02  0.00000000000E+00 0. -1.
         25    2    1    2    0    0  0.10019882631E+03 -0.48333168163E+02  0.48147295735E+03  0.50974106492E+03  0.12507535594E+03 0.  0.
          5    1    3    3  502    0  0.67609606976E+02 -0.52681035944E+02  0.12435992437E+03  0.15109339394E+03  0.41800000000E+01 0. -1.
         -5    1    3    3    0  502  0.32589219332E+02  0.43478677811E+01  0.35711303298E+03  0.35864767097E+03  0.41800000000E+01 0. -1.
        -11    1    1    2    0    0  0.14945797178E+02  0.13483373069E+02  0.10063535032E+03  0.10262870913E+03  0.00000000000E+00 0.  1.
         11    1    1    2    0    0 -0.11514462349E+03  0.34849795093E+02  0.29010886596E+03  0.31406360286E+03  0.00000000000E+00 0. -1.
</event>
<event>
 7    1  0.2556591E-009  0.9705704E+02  0.7561462E-02  0.1286609E+00
          2   -1    0    0  501    0  0.00000000000E+00  0.00000000000E+00  0.56270944542E+03  0.56270944542E+03  0.00000000000E+00 0. -1.
         -2   -1    0    0    0  501 -0.00000000000E+00 -0.00000000000E+00 -0.27180675597E+02  0.27180675597E+02  0.00000000000E+00 0.  1.
         25    2    1    2    0    0 -0.14813254721E+02 -0.56192183747E+02  0.31564635767E+03  0.34446680622E+03  0.12509102066E+03 0.  0.
          5    1    3    3  502    0 -0.48752130848E+02 -0.61117324193E+02  0.10483458378E+03  0.13084288263E+03  0.41800000000E+01 0.  1.
         -5    1    3    3    0  502  0.33938876127E+02  0.49251404465E+01  0.21081177389E+03  0.21362392359E+03  0.41800000000E+01 0.  1.
        -11    1    1    2    0    0  0.16447781388E+02  0.67690649855E+02  0.22281029257E+03  0.23344588252E+03  0.00000000000E+00 0. -1.
         11    1    1    2    0    0 -0.16345266671E+01 -0.11498466108E+02 -0.29278804104E+01  0.11977432278E+02  0.00000000000E+00 0.  1.
</event>
<event>
 7    1  0.2556591E-009  0.8076663E+02  0.7561462E-02  0.1326890E+00
         -1   -1    0    0    0  501 -0.00000000000E+00  0.00000000000E+00  0.52116344464E+02  0.52116344464E+02  0.00000000000E+00 0.  1.
          1   -1    0    0  501    0  0.00000000000E+00 -0.00000000000E+00 -0.26201995295E+03  0.26201995295E+03  0.00000000000E+00 0. -1.
         25    2    1    2    0    0  0.28657711862E+02 -0.19675578366E+02 -0.15503789612E+03  0.20221553121E+03  0.12508388782E+03 0.  0.
          5    1    3    3  502    0 -0.99206427450E+01  0.11616106017E+02 -0.15140843749E+03  0.15223449154E+03  0.41800000000E+01 0.  1.
         -5    1    3    3    0  502  0.38578354607E+02 -0.31291684383E+02 -0.36294586297E+01  0.49981039661E+02  0.41800000000E+01 0.  1.
        -11    1    1    2    0    0  0.29917276884E+02 -0.81369308902E+01 -0.83176117397E+01  0.32100401329E+02  0.00000000000E+00 0.  1.
         11    1    1    2    0    0 -0.58574988745E+02  0.27812509256E+02 -0.46548100622E+02  0.79820364878E+02  0.00000000000E+00 0. -1.
</event>
<event>
 7    1  0.2556591E-009  0.1267971E+03  0.7561462E-02  0.1232287E+00
          1   -1    0    0  501    0  0.00000000000E+00  0.00000000000E+00  0.29808196359E+03  0.29808196359E+03  0.00000000000E+00 0. -1.
         -1   -1    0    0    0  501 -0.00000000000E+00 -0.00000000000E+00 -0.56864095227E+02  0.56864095227E+02  0.00000000000E+00 0.  1.
         25    2    1    2    0    0  0.65290694138E+02  0.14673360855E+02  0.97087357026E+02  0.17190284808E+03  0.12508577867E+03 0.  0.
          5    1    3    3  502    0  0.39133306360E+02 -0.54807180588E+02  0.47916131223E+02  0.82756696055E+02  0.41800000000E+01 0.  1.
         -5    1    3    3    0  502  0.26157387777E+02  0.69480541443E+02  0.49171225803E+02  0.89146152028E+02  0.41800000000E+01 0.  1.
        -11    1    1    2    0    0 -0.55771133750E+02  0.31883508239E+02  0.70202689921E+02  0.95159839899E+02  0.00000000000E+00 0.  1.
         11    1    1    2    0    0 -0.95195603878E+01 -0.46556869094E+02  0.73927821413E+02  0.87883370832E+02  0.00000000000E+00 0. -1.
</event>
<event>
 7    1  0.2556591E-009  0.1404304E+03  0.7561462E-02  0.1212751E+00
         -1   -1    0    0    0  501 -0.00000000000E+00  0.00000000000E+00  0.36901148201E+03  0.36901148201E+03  0.00000000000E+00 0.  1.
          1   -1    0    0  501    0  0.00000000000E+00 -0.00000000000E+00 -0.72754262898E+02  0.72754262898E+02  0.00000000000E+00 0. -1.
         25    2    1    2    0    0 -0.80771451718E+02  0.68235109035E+02  0.24222638503E+03  0.29240531765E+03  0.12508873117E+03 0.  0.
          5    1    3    3  502    0 -0.93568923728E+02  0.24617518044E+02  0.85563563545E+02  0.12922755700E+03  0.41800000000E+01 0. -1.
         -5    1    3    3    0  502  0.12797472010E+02  0.43617590992E+02  0.15666282148E+03  0.16317776065E+03  0.41800000000E+01 0. -1.
        -11    1    1    2    0    0  0.67957565131E+02  0.99365483681E+00  0.34905695472E+02  0.76404355798E+02  0.00000000000E+00 0.  1.
         11    1    1    2    0    0  0.12813886586E+02 -0.69228763872E+02  0.19125138614E+02  0.72956071466E+02  0.00000000000E+00 0. -1.
</event>
<event>
 7    1  0.2556591E-009  0.9850360E+02  0.7561462E-02  0.1283475E+00
         -2   -1    0    0    0  501 -0.00000000000E+00  0.00000000000E+00  0.14564668268E+03  0.14564668268E+03  0.00000000000E+00 0.  1.
          2   -1    0    0  501    0  0.00000000000E+00 -0.00000000000E+00 -0.12644410455E+03  0.12644410455E+03  0.00000000000E+00 0. -1.
         25    2    1    2    0    0  0.60847461741E+02  0.39677320711E+01 -0.46332369945E+02  0.14667126365E+03  0.12509042561E+03 0.  0.
          5    1    3    3  502    0  0.73906055837E+02 -0.68004479283E+01 -0.79723298641E+02  0.10900288036E+03  0.41800000000E+01 0.  1.
         -5    1    3    3    0  502 -0.13058594097E+02  0.10768179999E+02  0.33390928696E+02  0.37668383287E+02  0.41800000000E+01 0.  1.
        -11    1    1    2    0    0 -0.31165842516E+02  0.40911727543E+02  0.43180735536E+02  0.67153965718E+02  0.00000000000E+00 0.  1.
         11    1    1    2    0    0 -0.29681619225E+02 -0.44879459614E+02  0.22354212535E+02  0.58265557863E+02  0.00000000000E+00 0. -1.
</event>
<event>
 7    1  0.2556591E-009  0.1294680E+03  0.7561462E-02  0.1228247E+00
          1   -1    0    0  501    0  0.00000000000E+00  0.00000000000E+00  0.52709023357E+03  0.52709023357E+03  0.00000000000E+00 0. -1.
         -1   -1    0    0    0  501 -0.00000000000E+00 -0.00000000000E+00 -0.50098818709E+02  0.50098818709E+02  0.00000000000E+00 0.  1.
         25    2    1    2    0    0  0.36320206098E+02  0.11369121359E+03  0.29545051718E+03  0.34232121213E+03  0.12509178533E+03 0.  0.
          5    1    3    3  502    0 -0.17045115359E+02  0.59272418858E+02  0.24036757965E+03  0.24818904356E+03  0.41800000000E+01 0.  1.
         -5    1    3    3    0  502  0.53365321457E+02  0.54418794732E+02  0.55082937526E+02  0.94132168576E+02  0.41800000000E+01 0.  1.
        -11    1    1    2    0    0 -0.35183526792E+02 -0.83958141309E+02  0.18371695721E+03  0.20503358363E+03  0.00000000000E+00 0. -1.
         11    1    1    2    0    0 -0.11366793062E+01 -0.29733072281E+02 -0.21760595220E+01  0.29834256521E+02  0.00000000000E+00 0.  1.
</event>
<event>
 7    1  0.2556591E-009  0.9645631E+02  0.7561462E-02  0.1287929E+00
         -1   -1    0    0    0  501 -0.00000000000E+00  0.00000000000E+00  0.76439318912E+03  0.76439318912E+03  0.00000000000E+00 0.  1.
          1   -1    0    0  501    0  0.00000000000E+00 -0.00000000000E+00 -0.17296670586E+02  0.17296670586E+02  0.00000000000E+00 0. -1.
         25    2    1    2    0    0 -0.30772978621E+02  0.22855282147E+02  0.40538282561E+03  0.42597270237E+03  0.12509263662E+03 0.  0.
          5    1    3    3  502    0 -0.21920176433E+02 -0.34349555735E+02  0.44616670283E+02  0.60568191167E+02  0.41800000000E+01 0.  1.
         -5    1    3    3    0  502 -0.88528021885E+01  0.57204837883E+02  0.36076615532E+03  0.36540451121E+03  0.41800000000E+01 0.  1.
        -11    1    1    2    0    0  0.43288384301E+02 -0.48724739659E+02  0.28219293652E+03  0.28962188780E+03  0.00000000000E+00 0.  1.
         11    1    1    2    0    0 -0.12515405680E+02  0.25869457512E+02  0.59520756400E+02  0.66095269526E+02  0.00000000000E+00 0. -1.
</event>
<event>
 7    1  0.2556591E-009  0.1044204E+03  0.7561462E-02  0.1271266E+00
         -2   -1    0    0    0  501 -0.00000000000E+00  0.00000000000E+00  0.33035224348E+02  0.33035224348E+02  0.00000000000E+00 0.  1.
          2   -1    0    0  501    0  0.00000000000E+00 -0.00000000000E+00 -0.39441219220E+03  0.39441219220E+03  0.00000000000E+00 0. -1.
         25    2    1    2    0    0 -0.28886759215E+02  0.23057918633E+02 -0.21191594526E+03  0.24884066048E+03  0.12508874444E+03 0.  0.
          5    1    3    3  502    0 -0.58760709770E+02 -0.29412856314E+02 -0.79341137583E+02  0.10310395551E+03  0.41800000000E+01 0.  1.
         -5    1    3    3    0  502  0.29873950555E+02  0.52470774947E+02 -0.13257480768E+03  0.14573670497E+03  0.41800000000E+01 0.  1.
        -11    1    1    2    0    0 -0.11503421539E+02 -0.37773205747E+02 -0.24525791394E+02  0.46482880967E+02  0.00000000000E+00 0.  1.
         11    1    1    2    0    0  0.40390180755E+02  0.14715287114E+02 -0.12493523120E+03  0.13212387510E+03  0.00000000000E+00 0. -1.
</event>
<event>
 7    1  0.2556591E-009  0.1237386E+03  0.7561462E-02  0.1237054E+00
         -1   -1    0    0    0  501 -0.00000000000E+00  0.00000000000E+00  0.61355270169E+02  0.61355270169E+02  0.00000000000E+00 0.  1.
          1   -1    0    0  501    0  0.00000000000E+00 -0.00000000000E+00 -0.28256292707E+03  0.28256292707E+03  0.00000000000E+00 0. -1.
         25    2    1    2    0    0  0.67618457428E+02  0.22971362095E+02 -0.94488344570E+02  0.17226663101E+03  0.12509118930E+03 0.  0.
          5    1    3    3  502    0 -0.33312679583E+02 -0.13547802789E+02 -0.18239349960E+02  0.40539164623E+02  0.41800000000E+01 0. -1.
         -5    1    3    3    0  502  0.10093113701E+03  0.36519164884E+02 -0.76248994611E+02  0.13172746639E+03  0.41800000000E+01 0. -1.
        -11    1    1    2    0    0 -0.78296079539E+02 -0.36695103975E+02 -0.66816327490E+02  0.10927592757E+03  0.00000000000E+00 0.  1.
         11    1    1    2    0    0  0.10677622111E+02  0.13723741880E+02 -0.59902984841E+02  0.62375638658E+02  0.00000000000E+00 0. -1.
</event>
<event>
 7    1  0.2556591E-009  0.1092779E+03  0.7561462E-02  0.1261913E+00
         -2   -1    0    0    0  501 -0.00000000000E+00  0.00000000000E+00  0.39118087557E+02  0.39118087557E+02  0.00000000000E+00 0.  1.
          2   -1    0    0  501    0  0.00000000000E+00 -0.00000000000E+00 -0.39940418581E+03  0.39940418581E+03  0.00000000000E+00 0. -1.
         25    2    1    2    0    0  0.18411480772E+02  0.52221500203E+02 -0.28686107804E+03  0.31781012830E+03  0.12509169375E+03 0.  0.
          5    1    3    3  502    0  0.62597729938E+02  0.12292464999E+02 -0.21542865663E+03  0.22471439426E+03  0.41800000000E+01 0.  1.
         -5    1    3    3    0  502 -0.44186249166E+02  0.39929035204E+02 -0.71432421410E+02  0.93095734038E+02  0.41800000000E+01 0.  1.
        -11    1    1    2    0    0 -0.26772130355E+01 -0.70645495884E+02 -0.61525040627E+02  0.93719177240E+02  0.00000000000E+00 0.  1.
         11    1    1    2    0    0 -0.15734267736E+02  0.18423995682E+02 -0.11899979584E+02  0.26992967828E+02  0.00000000000E+00 0. -1.
</event>
<event>
 7    1  0.2556591E-009  0.2008813E+03  0.7561462E-02  0.1148998E+00
          2   -1    0    0  501    0  0.00000000000E+00  0.00000000000E+00  0.51933223817E+02  0.51933223817E+02  0.00000000000E+00 0. -1.
         -2   -1    0    0    0  501 -0.00000000000E+00 -0.00000000000E+00 -0.91518254278E+03  0.91518254278E+03  0.00000000000E+00 0.  1.
         25    2    1    2    0    0 -0.13059012814E+03  0.13538384724E+03 -0.42511717715E+03  0.48140966013E+03  0.12509228155E+03 0.  0.
          5    1    3    3  502    0 -0.10474711695E+03  0.70331085722E+02 -0.14318122433E+03  0.19088414164E+03  0.41800000000E+01 0.  1.
         -5    1    3    3    0  502 -0.25843011194E+02  0.65052761519E+02 -0.28193595281E+03  0.29052551850E+03  0.41800000000E+01 0.  1.
        -11    1    1    2    0    0  0.10896108511E+03 -0.54798231530E+02 -0.30628718990E+03  0.32967742863E+03  0.00000000000E+00 0.  1.
         11    1    1    2    0    0  0.21629043030E+02 -0.80585615712E+02 -0.13184495191E+03  0.15602867784E+03  0.00000000000E+00 0. -1.
</event>
<event>
 7    1  0.2556591E-009  0.1817236E+03  0.7561462E-02  0.1166145E+00
         -1   -1    0    0    0  501 -0.00000000000E+00  0.00000000000E+00  0.17631125482E+03  0.17631125482E+03  0.00000000000E+00 0.  1.
          1   -1    0    0  501    0  0.00000000000E+00 -0.00000000000E+00 -0.30322104243E+03  0.30322104243E+03  0.00000000000E+00 0. -1.
         25    2    1    2    0    0 -0.76994450971E+02 -0.14572929224E+03  0.59021108413E+02  0.21516905727E+03  0.12509620247E+03 0.  0.
          5    1    3    3  502    0 -0.39671493577E+02 -0.20591633994E+02  0.70965100484E+02  0.83972380459E+02  0.41800000000E+01 0. -1.
         -5    1    3    3    0  502 -0.37322957394E+02 -0.12513765825E+03 -0.11943992071E+02  0.13119667681E+03  0.41800000000E+01 0. -1.
        -11    1    1    2    0    0  0.87751969148E+02  0.72328560330E+02 -0.11033708706E+03  0.15844905020E+03  0.00000000000E+00 0. -1.
         11    1    1    2    0    0 -0.10757518177E+02  0.73400731909E+02 -0.75593808960E+02  0.10591418977E+03  0.00000000000E+00 0.  1.
</event>
<event>
 7    1  0.2556591E-009  0.1132195E+03  0.7561462E-02  0.1254721E+00
         -2   -1    0    0    0  501 -0.00000000000E+00  0.00000000000E+00  0.71723000624E+02  0.71723000624E+02  0.00000000000E+00 0. -1.
          2   -1    0    0  501    0  0.00000000000E+00 -0.00000000000E+00 -0.23717507639E+03  0.23717507639E+03  0.00000000000E+00 0.  1.
         25    2    1    2    0    0 -0.53685989550E+02  0.42680587835E+02 -0.83306536400E+02  0.16520860555E+03  0.12510030491E+03 0.  0.
          5    1    3    3  502    0 -0.10143170718E+02  0.74337822605E+02 -0.81962984327E+02  0.11119531906E+03  0.41800000000E+01 0. -1.
         -5    1    3    3    0  502 -0.43542818832E+02 -0.31657234770E+02 -0.13435520728E+01  0.54013286488E+02  0.41800000000E+01 0. -1.
        -11    1    1    2    0    0  0.45611410472E+02  0.77165183862E+01  0.83668393465E+00  0.46267109930E+02  0.00000000000E+00 0. -1.
         11    1    1    2    0    0  0.80745790779E+01 -0.50397106221E+02 -0.82982223300E+02  0.97422361532E+02  0.00000000000E+00 0.  1.
</event>
<event>
 7    1  0.2556591E-009  0.1031263E+03  0.7561462E-02  0.1273856E+00
          2   -1    0    0  501    0  0.00000000000E+00  0.00000000000E+00  0.60086731808E+03  0.60086731808E+03  0.00000000000E+00 0. -1.
         -2   -1    0    0    0  501 -0.00000000000E+00 -0.00000000000E+00 -0.21506943446E+02  0.21506943446E+02  0.00000000000E+00 0.  1.
         25    2    1    2    0    0 -0.55993118184E+01  0.35977400979E+02  0.31110013704E+03  0.33727768814E+03  0.12508884035E+03 0.  0.
          5    1    3    3  502    0 -0.33059074103E+02  0.70244056713E+02  0.25074484040E+03  0.26252157487E+03  0.41800000000E+01 0.  1.
         -5    1    3    3    0  502  0.27459762285E+02 -0.34266655733E+02  0.60355296635E+02  0.74756113274E+02  0.41800000000E+01 0.  1.
        -11    1    1    2    0    0 -0.23608976624E+02  0.13310731875E+02  0.16315189860E+03  0.16538773043E+03  0.00000000000E+00 0. -1.
         11    1    1    2    0    0  0.29208288443E+02 -0.49288132854E+02  0.10510833900E+03  0.11970884295E+03  0.00000000000E+00 0.  1.
</event>
<event>
 7    1  0.2556591E-009  0.2108272E+03  0.7561462E-02  0.1140913E+00
          2   -1    0    0  501    0  0.00000000000E+00  0.00000000000E+00  0.87305732940E+03  0.87305732940E+03  0.00000000000E+00 0. -1.
         -2   -1    0    0    0  501 -0.00000000000E+00 -0.00000000000E+00 -0.69514589571E+02  0.69514589571E+02  0.00000000000E+00 0.  1.
         25    2    1    2    0    0 -0.19444565378E+03 -0.37906039737E+02  0.23759822191E+03  0.33368862310E+03  0.12509677058E+03 0.  0.
          5    1    3    3  502    0 -0.27276361072E+02 -0.81743072468E+01  0.12882161056E+03  0.13199734436E+03  0.41800000000E+01 0.  1.
         -5    1    3    3    0  502 -0.16716929271E+03 -0.29731732491E+02  0.10877661135E+03  0.20169127874E+03  0.41800000000E+01 0.  1.
        -11    1    1    2    0    0  0.20165876519E+03  0.18711404126E+02  0.48963442136E+03  0.52986624803E+03  0.00000000000E+00 0. -1.
         11    1    1    2    0    0 -0.72131114067E+01  0.19194635611E+02  0.76310096562E+02  0.79017047842E+02  0.00000000000E+00 0.  1.
</event>
<event>
 7    1  0.3115275E-009  0.1377738E+03  0.7561462E-02  0.1216356E+00
         -2   -1    0    0    0  501 -0.00000000000E+00  0.00000000000E+00  0.13452464433E+02  0.13452464433E+02  0.00000000000E+00 0.  1.
          2   -1    0    0  501    0  0.00000000000E+00 -0.00000000000E+00 -0.16284946219E+04  0.16284946219E+04  0.00000000000E+00 0. -1.
         25    2    1    2    0    0  0.41633327616E+02 -0.82099294580E+02 -0.10985411657E+04  0.11094655983E+04  0.12509033884E+03 0.  0.
          5    1    3    3  502    0  0.71696875002E+01  0.33394014646E+02 -0.21628155422E+03  0.21900170713E+03  0.41800000000E+01 0.  1.
         -5    1    3    3    0  502  0.34463640115E+02 -0.11549330923E+03 -0.88225961149E+03  0.89046389114E+03  0.41800000000E+01 0.  1.
        -11    1    1    2    0    0 -0.48412895296E+02  0.11689548854E+02 -0.12347744324E+03  0.13314327986E+03  0.00000000000E+00 0.  1.
         11    1    1    2    0    0  0.67795676807E+01  0.70409745726E+02 -0.39302354853E+03  0.39933820820E+03  0.00000000000E+00 0. -1.
</event>
<event>
 7    1  0.2556591E-009  0.2269309E+03  0.7561462E-02  0.1128819E+00
         -4   -1    0    0    0  501 -0.00000000000E+00  0.00000000000E+00  0.66184103827E+03  0.66184103827E+03  0.00000000000E+00 0.  1.
          4   -1    0    0  501    0  0.00000000000E+00 -0.00000000000E+00 -0.14001581748E+03  0.14001581748E+03  0.00000000000E+00 0. -1.
         25    2    1    2    0    0 -0.12622895154E+03 -0.18518395214E+03  0.49613808540E+03  0.55859424833E+03  0.12509072764E+03 0.  0.
          5    1    3    3  502    0 -0.58083953785E+02 -0.63858339550E+02  0.33346839916E+03  0.34448552779E+03  0.41800000000E+01 0.  1.
         -5    1    3    3    0  502 -0.68144997757E+02 -0.12132561259E+03  0.16266968624E+03  0.21410872054E+03  0.41800000000E+01 0.  1.
        -11    1    1    2    0    0  0.31745677334E+02  0.83923624850E+02  0.49897240016E+02  0.10266789858E+03  0.00000000000E+00 0.  1.
         11    1    1    2    0    0  0.94483274208E+02  0.10126032729E+03 -0.24210104629E+02  0.14059470884E+03  0.00000000000E+00 0. -1.
</event>
<event>
 7    1  0.2556591E-009  0.1201009E+03  0.7561462E-02  0.1242931E+00
          1   -1    0    0  501    0  0.00000000000E+00  0.00000000000E+00  0.45769984782E+03  0.45769984782E+03  0.00000000000E+00 0. -1.
         -1   -1    0    0    0  501 -0.00000000000E+00 -0.00000000000E+00 -0.39540052109E+02  0.39540052109E+02  0.00000000000E+00 0.  1.
         25    2    1    2    0    0  0.56188880031E+02 -0.53612243049E+02  0.20615202927E+03  0.25333337939E+03  0.12509068350E+03 0.  0.
          5    1    3    3  502    0 -0.69197783257E+01 -0.55825915227E+02  0.17284807751E+03  0.18181954362E+03  0.41800000000E+01 0.  1.
         -5    1    3    3    0  502  0.63108658357E+02  0.22136721780E+01  0.33303951756E+02  0.71513835771E+02  0.41800000000E+01 0.  1.
        -11    1    1    2    0    0 -0.78365929186E+02  0.58506841033E+02  0.17558053861E+03  0.20097958813E+03  0.00000000000E+00 0. -1.
         11    1    1    2    0    0  0.22177049155E+02 -0.48945979847E+01  0.36427227831E+02  0.42926932409E+02  0.00000000000E+00 0.  1.
</event>
<event>
 7    1  0.3040719E-009  0.1161098E+03  0.7561462E-02  0.1249656E+00
          1   -1    0    0  501    0  0.00000000000E+00  0.00000000000E+00  0.23506212018E+03  0.23506212018E+03  0.00000000000E+00 0. -1.
         -1   -1    0    0    0  501 -0.00000000000E+00 -0.00000000000E+00 -0.96078353414E+02  0.96078353414E+02  0.00000000000E+00 0.  1.
         25    2    1    2    0    0  0.85764189760E+02 -0.36436588137E+02  0.12493841681E+03  0.19985114194E+03  0.12509096586E+03 0.  0.
          5    1    3    3  502    0  0.65772179424E+02  0.25271722348E+02  0.11378635150E+03  0.13390088022E+03  0.41800000000E+01 0. -1.
         -5    1    3    3    0  502  0.19992010335E+02 -0.61708310485E+02  0.11152065310E+02  0.65950261719E+02  0.41800000000E+01 0. -1.
        -11    1    1    2    0    0 -0.69733384932E+02  0.17638517896E+02  0.50046094935E+02  0.87626901725E+02  0.00000000000E+00 0. -1.
         11    1    1    2    0    0 -0.16030804827E+02  0.18798070241E+02 -0.36000744978E+02  0.43662429927E+02  0.00000000000E+00 0.  1.
</event>
<event>
 7    1  0.2556591E-009  0.1209032E+03  0.7561462E-02  0.1241614E+00
          1   -1    0    0  501    0  0.00000000000E+00  0.00000000000E+00  0.22998737929E+03  0.22998737929E+03  0.00000000000E+00 0. -1.
         -1   -1    0    0    0  501 -0.00000000000E+00 -0.00000000000E+00 -0.16121274491E+03  0.16121274491E+03  0.00000000000E+00 0.  1.
         25    2    1    2    0    0  0.10633659026E+03  0.10034481895E+02 -0.82881111312E+02  0.18418727069E+03  0.12509001086E+03 0.  0.
          5    1    3    3  502    0  0.62713044417E+01 -0.16370105515E+02  0.27462962752E+02  0.32848079656E+02  0.41800000000E+01 0. -1.
         -5    1    3    3    0  502  0.10006528582E+03  0.26404587410E+02 -0.11034407406E+03  0.15133919103E+03  0.41800000000E+01 0. -1.
        -11    1    1    2    0    0 -0.81191108201E+02 -0.31560122043E+02  0.50745427414E+02  0.10081237899E+03  0.00000000000E+00 0.  1.
         11    1    1    2    0    0 -0.25145482056E+02  0.21525640149E+02  0.10091031829E+03  0.10620047452E+03  0.00000000000E+00 0. -1.
</event>
<event>
 7    1  0.2556591E-009  0.8710441E+02  0.7561462E-02  0.1310019E+00
          1   -1    0    0  501    0  0.00000000000E+00  0.00000000000E+00  0.50870805761E+02  0.50870805761E+02  0.00000000000E+00 0. -1.
         -1   -1    0    0    0  501 -0.00000000000E+00 -0.00000000000E+00 -0.29782725566E+03  0.29782725566E+03  0.00000000000E+00 0.  1.
         25    2    1    2    0    0  0.34487584972E+01 -0.27730026611E+02 -0.14055349905E+03  0.19021419074E+03  0.12508118945E+03 0.  0.
          5    1    3    3  502    0 -0.28660083462E+02 -0.33143176995E+02  0.18710566915E+01  0.44055009005E+02  0.41800000000E+01 0. -1.
         -5    1    3    3    0  502  0.32108841959E+02  0.54131503838E+01 -0.14242455574E+03  0.14615918174E+03  0.41800000000E+01 0. -1.
        -11    1    1    2    0    0 -0.37605609679E+02 -0.16846067028E+02 -0.91548187354E+02  0.10039443441E+03  0.00000000000E+00 0.  1.
         11    1    1    2    0    0  0.34156851182E+02  0.44576093639E+02 -0.14854763497E+02  0.58089436263E+02  0.00000000000E+00 0. -1.
</event>
<event>
 7    1  0.2556591E-009  0.2099194E+03  0.7561462E-02  0.1141630E+00
          1   -1    0    0  501    0  0.00000000000E+00  0.00000000000E+00  0.23911214888E+02  0.23911214888E+02  0.00000000000E+00 0. -1.
         -1   -1    0    0    0  501 -0.00000000000E+00 -0.00000000000E+00 -0.19210806341E+04  0.19210806341E+04  0.00000000000E+00 0.  1.
         25    2    1    2    0    0  0.18316782436E+03  0.97578339555E+01 -0.10418878890E+04  0.10652809189E+04  0.12508955156E+03 0.  0.
          5    1    3    3  502    0 -0.16717639762E+02  0.10971264512E+02 -0.64657033281E+02  0.67807466233E+02  0.41800000000E+01 0. -1.
         -5    1    3    3    0  502  0.19988546412E+03 -0.12134305568E+01 -0.97723085567E+03  0.99747345271E+03  0.41800000000E+01 0. -1.
        -11    1    1    2    0    0 -0.10396155184E+03 -0.44376171423E+02 -0.58906074408E+03  0.59980814355E+03  0.00000000000E+00 0.  1.
         11    1    1    2    0    0 -0.79206272519E+02  0.34618337467E+02 -0.26622078616E+03  0.27990278648E+03  0.00000000000E+00 0. -1.
</event>
<event>
 7    1  0.2556591E-009  0.1251193E+03  0.7561462E-02  0.1234883E+00
         -4   -1    0    0    0  501 -0.00000000000E+00  0.00000000000E+00  0.66648618340E+03  0.66648618340E+03  0.00000000000E+00 0.  1.
          4   -1    0    0  501    0  0.00000000000E+00 -0.00000000000E+00 -0.35562428761E+02  0.35562428761E+02  0.00000000000E+00 0. -1.
         25    2    1    2    0    0  0.86309119599E+02  0.38624718228E+02  0.46480865243E+03  0.49054712164E+03  0.12509301416E+03 0.  0.
          5    1    3    3  502    0 -0.10802590786E+02 -0.31949315493E+02  0.69037653256E+02  0.76948844665E+02  0.41800000000E+01 0. -1.
         -5    1    3    3    0  502  0.97111710385E+02  0.70574033721E+02  0.39577099918E+03  0.41359827698E+03  0.41800000000E+01 0. -1.
        -11    1    1    2    0    0 -0.26701696214E+02 -0.21016538175E+02 -0.16915453152E+00  0.33980936873E+02  0.00000000000E+00 0. -1.
         11    1    1    2    0    0 -0.59607423385E+02 -0.17608180053E+02  0.16628425673E+03  0.17752055364E+03  0.00000000000E+00 0.  1.
</event>
<event>
 7    1  0.2556591E-009  0.2031757E+03  0.7561462E-02  0.1147087E+00
         -1   -1    0    0    0  501 -0.00000000000E+00  0.00000000000E+00  0.32651196839E+03  0.32651196839E+03  0.00000000000E+00 0.  1.
          1   -1    0    0  501    0  0.00000000000E+00 -0.00000000000E+00 -0.13573151599E+03  0.13573151599E+03  0.00000000000E+00 0. -1.
         25    2    1    2    0    0  0.16169377989E+03 -0.64149296308E+02  0.48275329269E+02  0.21963259486E+03  0.12509180084E+03 0.  0.
          5    1    3    3  502    0  0.17487963570E+03 -0.80394452165E+02  0.47448762307E+02  0.19828013609E+03  0.41800000000E+01 0.  1.
         -5    1    3    3    0  502 -0.13185855818E+02  0.16245155857E+02  0.82656696211E+00  0.21352458767E+02  0.41800000000E+01 0.  1.
        -11    1    1    2    0    0 -0.25037597400E+02 -0.19968679514E+02  0.43639152023E+02  0.54129520914E+02  0.00000000000E+00 0. -1.
         11    1    1    2    0    0 -0.13665618249E+03  0.84117975822E+02  0.98865971115E+02  0.18848136861E+03  0.00000000000E+00 0.  1.
</event>
<event>
 7    1  0.2556591E-009  0.1640164E+03  0.7561462E-02  0.1184235E+00
         -1   -1    0    0    0  501 -0.00000000000E+00  0.00000000000E+00  0.96339965104E+03  0.96339965104E+03  0.00000000000E+00 0.  1.
          1   -1    0    0  501    0  0.00000000000E+00 -0.00000000000E+00 -0.32991330040E+02  0.32991330040E+02  0.00000000000E+00 0. -1.
         25    2    1    2    0    0 -0.77487759434E+02  0.10956607010E+03  0.60615394564E+03  0.63330791752E+03  0.12508891239E+03 0.  0.
          5    1    3    3  502    0 -0.13855060392E+02  0.11802527272E+03  0.37837492649E+03  0.39661944619E+03  0.41800000000E+01 0.  1.
         -5    1    3    3    0  502 -0.63632699042E+02 -0.84592026277E+01  0.22777901915E+03  0.23668847134E+03  0.41800000000E+01 0.  1.
        -11    1    1    2    0    0  0.41279081980E+02 -0.98710664856E+02  0.14683699965E+03  0.18168341265E+03  0.00000000000E+00 0. -1.
         11    1    1    2    0    0  0.36208677454E+02 -0.10855405241E+02  0.17741737571E+03  0.18139965091E+03  0.00000000000E+00 0.  1.
</event>
<event>
 7    1  0.2556591E-009  0.1461330E+03  0.7561462E-02  0.1205307E+00
         -1   -1    0    0    0  501 -0.00000000000E+00  0.00000000000E+00  0.35460973245E+02  0.35460973245E+02  0.00000000000E+00 0.  1.
          1   -1    0    0  501    0  0.00000000000E+00 -0.00000000000E+00 -0.74221041304E+03  0.74221041304E+03  0.00000000000E+00 0. -1.
         25    2    1    2    0    0  0.78348288065E+02  0.95285437362E+02 -0.40319646742E+03  0.43981004221E+03  0.12509081929E+03 0.  0.
          5    1    3    3  502    0  0.10108265603E+03  0.10266820847E+03 -0.28764762918E+03  0.32174072691E+03  0.41800000000E+01 0.  1.
         -5    1    3    3    0  502 -0.22734367966E+02 -0.73827711073E+01 -0.11554883824E+03  0.11806931530E+03  0.41800000000E+01 0.  1.
        -11    1    1    2    0    0 -0.38307436385E+02 -0.37899453297E+02 -0.45618144874E+02  0.70603423319E+02  0.00000000000E+00 0.  1.
         11    1    1    2    0    0 -0.40040851680E+02 -0.57385984065E+02 -0.25793482750E+03  0.26725792076E+03  0.00000000000E+00 0. -1.
</event>
<event>
 7    1  0.2556591E-009  0.1727189E+03  0.7561462E-02  0.1175042E+00
         -1   -1    0    0    0  501 -0.00000000000E+00  0.00000000000E+00  0.32954220041E+03  0.32954220041E+03  0.00000000000E+00 0.  1.
          1   -1    0    0  501    0  0.00000000000E+00 -0.00000000000E+00 -0.11615759897E+03  0.11615759897E+03  0.00000000000E+00 0. -1.
         25    2    1    2    0    0 -0.43576949814E+02  0.15516544051E+03  0.12656128662E+03  0.24008454459E+03  0.12509022662E+03 0.  0.
          5    1    3    3  502    0  0.55460824849E+01  0.24660985443E+02 -0.23803250714E+02  0.34971279337E+02  0.41800000000E+01 0. -1.
         -5    1    3    3    0  502 -0.49123032299E+02  0.13050445507E+03  0.15036453733E+03  0.20511326525E+03  0.41800000000E+01 0. -1.
        -11    1    1    2    0    0 -0.21981784470E+02 -0.18482736375E+02 -0.38478920838E+01  0.28976139596E+02  0.00000000000E+00 0.  1.
         11    1    1    2    0    0  0.65558734284E+02 -0.13668270414E+03  0.90671206911E+02  0.17663911519E+03  0.00000000000E+00 0. -1.
</event>
<event>
 7    1  0.2556591E-009  0.1457551E+03  0.7561462E-02  0.1205788E+00
          2   -1    0    0  501    0  0.00000000000E+00  0.00000000000E+00  0.12218290163E+04  0.12218290163E+04  0.00000000000E+00 0. -1.
         -2   -1    0    0    0  501 -0.00000000000E+00 -0.00000000000E+00 -0.21723822275E+02  0.21723822275E+02  0.00000000000E+00 0.  1.
         25    2    1    2    0    0  0.18651277612E+02  0.11871021307E+03  0.71767907390E+03  0.73834331111E+03  0.12509039573E+03 0.  0.
          5    1    3    3  502    0 -0.37247140714E+02  0.10168615127E+03  0.36207406734E+03  0.37794513556E+03  0.41800000000E+01 0.  1.
         -5    1    3    3    0  502  0.55898418326E+02  0.17024061800E+02  0.35560500656E+03  0.36039817555E+03  0.41800000000E+01 0.  1.
        -11    1    1    2    0    0  0.46473497767E+01 -0.73921546718E+02  0.41171927746E+03  0.41832852683E+03  0.00000000000E+00 0. -1.
         11    1    1    2    0    0 -0.23298627388E+02 -0.44788666351E+02  0.70706842673E+02  0.86881000641E+02  0.00000000000E+00 0.  1.
</event>
<event>
 7    1  0.2556591E-009  0.1090580E+03  0.7561462E-02  0.1262324E+00
          1   -1    0    0  501    0  0.00000000000E+00  0.00000000000E+00  0.34819640936E+03  0.34819640936E+03  0.00000000000E+00 0. -1.
         -1   -1    0    0    0  501 -0.00000000000E+00 -0.00000000000E+00 -0.35846717542E+02  0.35846717542E+02  0.00000000000E+00 0.  1.
         25    2    1    2    0    0 -0.18301532990E+02 -0.16896841391E+02  0.17940475022E+03  0.22012138005E+03  0.12508760207E+03 0.  0.
          5    1    3    3  502    0 -0.48898049676E+02  0.38945693297E+02  0.10318099683E+03  0.12071278638E+03  0.41800000000E+01 0. -1.
         -5    1    3    3    0  502  0.30596516686E+02 -0.55842534688E+02  0.76223753388E+02  0.99408593665E+02  0.41800000000E+01 0. -1.
        -11    1    1    2    0    0  0.52974311497E+02  0.20477956977E+02  0.57532716444E+02  0.80843292004E+02  0.00000000000E+00 0. -1.
         11    1    1    2    0    0 -0.34672778507E+02 -0.35811155865E+01  0.75412225155E+02  0.83078454855E+02  0.00000000000E+00 0.  1.
</event>
<event>
 7    1  0.2556591E-009  0.1018430E+03  0.7561462E-02  0.1276468E+00
          3   -1    0    0  501    0  0.00000000000E+00  0.00000000000E+00  0.27530469617E+03  0.27530469617E+03  0.00000000000E+00 0. -1.
         -3   -1    0    0    0  501 -0.00000000000E+00 -0.00000000000E+00 -0.64535266137E+02  0.64535266137E+02  0.00000000000E+00 0.  1.
         25    2    1    2    0    0 -0.52460284824E+02  0.97410568880E+01  0.18542213978E+03  0.22994647596E+03  0.12508813777E+03 0.  0.
          5    1    3    3  502    0 -0.85534028553E+02 -0.23612517985E+02  0.12191961258E+03  0.15084921405E+03  0.41800000000E+01 0. -1.
         -5    1    3    3    0  502  0.33073743730E+02  0.33353574873E+02  0.63502527196E+02  0.79097261908E+02  0.41800000000E+01 0. -1.
        -11    1    1    2    0    0  0.40928473061E+01 -0.18148360354E+02 -0.30381495172E+02  0.35625126407E+02  0.00000000000E+00 0.  1.
         11    1    1    2    0    0  0.48367437517E+02  0.84073034664E+01  0.55728785422E+02  0.74268359940E+02  0.00000000000E+00 0. -1.
</event>
<event>
 7    1  0.2556591E-009  0.9729892E+02  0.7561462E-02  0.1286081E+00
         -2   -1    0    0    0  501 -0.00000000000E+00  0.00000000000E+00  0.50542235016E+02  0.50542235016E+02  0.00000000000E+00 0. -1.
          2   -1    0    0  501    0  0.00000000000E+00 -0.00000000000E+00 -0.37224112125E+03  0.37224112125E+03  0.00000000000E+00 0.  1.
         25    2    1    2    0    0  0.51315568263E+02  0.21731880103E+02 -0.26993819091E+03  0.30268595797E+03  0.12508637047E+03 0.  0.
          5    1    3    3  502    0  0.65963677164E+02 -0.51654506426E+00 -0.26757611600E+03  0.27561916439E+03  0.41800000000E+01 0. -1.
         -5    1    3    3    0  502 -0.14648108901E+02  0.22248425167E+02 -0.23620749157E+01  0.27066793580E+02  0.41800000000E+01 0. -1.
        -11    1    1    2    0    0 -0.19679083877E+02  0.32940060836E+02  0.98125920329E-01  0.38370868883E+02  0.00000000000E+00 0. -1.
         11    1    1    2    0    0 -0.31636484386E+02 -0.54671940939E+02 -0.51858821241E+02  0.81726529418E+02  0.00000000000E+00 0.  1.
</event>
<event>
 7    1  0.2556591E-009  0.8881164E+02  0.7561462E-02  0.1305755E+00
          1   -1    0    0  501    0  0.00000000000E+00  0.00000000000E+00  0.31841669946E+03  0.31841669946E+03  0.00000000000E+00 0. -1.
         -1   -1    0    0    0  501 -0.00000000000E+00 -0.00000000000E+00 -0.39693105332E+02  0.39693105332E+02  0.00000000000E+00 0.  1.
         25    2    1    2    0    0 -0.23326726472E+02  0.11938082466E+02  0.18939736121E+03  0.22848385581E+03  0.12508740125E+03 0.  0.
          5    1    3    3  502    0  0.41751724355E+02  0.19192268381E+02  0.13685586426E+03  0.14442489271E+03  0.41800000000E+01 0.  1.
         -5    1    3    3    0  502 -0.65078450827E+02 -0.72541859149E+01  0.52541496944E+02  0.84058963094E+02  0.41800000000E+01 0.  1.
        -11    1    1    2    0    0  0.20342391154E+02 -0.36145431066E+02  0.49212193323E+01  0.41767492916E+02  0.00000000000E+00 0.  1.
         11    1    1    2    0    0  0.29843353182E+01  0.24207348600E+02  0.84405013584E+02  0.87858456063E+02  0.00000000000E+00 0. -1.
</event>
<event>
 7    1  0.2556591E-009  0.9953815E+02  0.7561462E-02  0.1281270E+00
          1   -1    0    0  501    0  0.00000000000E+00  0.00000000000E+00  0.24453128979E+03  0.24453128979E+03  0.00000000000E+00 0. -1.
         -1   -1    0    0    0  501 -0.00000000000E+00 -0.00000000000E+00 -0.10937452185E+03  0.10937452185E+03  0.00000000000E+00 0.  1.
         25    2    1    2    0    0  0.91350415401E+01 -0.64867209340E+02  0.18274559962E+03  0.23094311191E+03  0.12509021916E+03 0.  0.
          5    1    3    3  502    0 -0.41879989291E+02 -0.18272256085E+02  0.13095127051E+02  0.47715444019E+02  0.41800000000E+01 0.  1.
         -5    1    3    3    0  502  0.51015030831E+02 -0.46594953254E+02  0.16965047257E+03  0.18322766789E+03  0.41800000000E+01 0.  1.
        -11    1    1    2    0    0 -0.21491748292E+02  0.67926541057E+02  0.24923345941E+01  0.71289003054E+02  0.00000000000E+00 0. -1.
         11    1    1    2    0    0  0.12356706752E+02 -0.30593317178E+01 -0.50081166272E+02  0.51673696670E+02  0.00000000000E+00 0.  1.
</event>
<event>
 7    1  0.2556591E-009  0.9773468E+02  0.7561462E-02  0.1285133E+00
         -1   -1    0    0    0  501 -0.00000000000E+00  0.00000000000E+00  0.22830372291E+02  0.22830372291E+02  0.00000000000E+00 0.  1.
          1   -1    0    0  501    0  0.00000000000E+00 -0.00000000000E+00 -0.93519438409E+03  0.93519438409E+03  0.00000000000E+00 0. -1.
         25    2    1    2    0    0  0.95314160105E+02 -0.84614317064E+01 -0.42943420115E+03  0.45740299764E+03  0.12508950471E+03 0.  0.
          5    1    3    3  502    0  0.85163500557E+02  0.94172975290E+00 -0.43395869145E+03  0.44225708244E+03  0.41800000000E+01 0. -1.
         -5    1    3    3    0  502  0.10150659548E+02 -0.94031614593E+01  0.45244903014E+01  0.15145915198E+02  0.41800000000E+01 0. -1.
        -11    1    1    2    0    0 -0.15644675825E+02  0.18711110814E+00 -0.55993571034E+01  0.16617571791E+02  0.00000000000E+00 0.  1.
         11    1    1    2    0    0 -0.79669484279E+02  0.82743205983E+01 -0.47733045355E+03  0.48400418696E+03  0.00000000000E+00 0. -1.
</event>
<event>
 7    1  0.2556591E-009  0.9656395E+02  0.7561462E-02  0.1287692E+00
         -2   -1    0    0    0  501 -0.00000000000E+00  0.00000000000E+00  0.18408869981E+02  0.18408869981E+02  0.00000000000E+00 0.  1.
          2   -1    0    0  501    0  0.00000000000E+00 -0.00000000000E+00 -0.93034349150E+03  0.93034349150E+03  0.00000000000E+00 0. -1.
         25    2    1    2    0    0  0.96123093113E+01 -0.52385678119E+02 -0.71944157217E+03  0.73217557288E+03  0.12509291742E+03 0.  0.
          5    1    3    3  502    0  0.33404731764E+02 -0.70839056171E+02 -0.25617164249E+03  0.26790937050E+03  0.41800000000E+01 0.  1.
         -5    1    3    3    0  502 -0.23792422453E+02  0.18453378052E+02 -0.46326992968E+03  0.46426620238E+03  0.41800000000E+01 0.  1.
        -11    1    1    2    0    0 -0.19675106365E+02  0.65142912547E+02 -0.18767196683E+03  0.19962834468E+03  0.00000000000E+00 0. -1.
         11    1    1    2    0    0  0.10062797054E+02 -0.12757234428E+02 -0.48210825190E+01  0.16948443924E+02  0.00000000000E+00 0.  1.
</event>
<event>
 7    1  0.2556591E-009  0.9510320E+02  0.7561462E-02  0.1290944E+00
          2   -1    0    0  501    0  0.00000000000E+00  0.00000000000E+00  0.32159630527E+03  0.32159630527E+03  0.00000000000E+00 0. -1.
         -2   -1    0    0    0  501 -0.00000000000E+00 -0.00000000000E+00 -0.49585084060E+02  0.49585084060E+02  0.00000000000E+00 0.  1.
         25    2    1    2    0    0 -0.51068873462E+02 -0.16165929730E+02  0.20299499805E+03  0.24438290218E+03  0.12508663608E+03 0.  0.
          5    1    3    3  502    0 -0.13256008254E+02  0.28454509488E+02 -0.14442789371E+01  0.31700776121E+02  0.41800000000E+01 0.  1.
         -5    1    3    3    0  502 -0.37812865208E+02 -0.44620439218E+02  0.20443927699E+03  0.21268212606E+03  0.41800000000E+01 0.  1.
        -11    1    1    2    0    0  0.55996597956E+02  0.44261611790E+02  0.27638447688E+02  0.76541446625E+02  0.00000000000E+00 0.  1.
         11    1    1    2    0    0 -0.49277244939E+01 -0.28095682060E+02  0.41377775474E+02  0.50257040525E+02  0.00000000000E+00 0. -1.
</event>
<event>
 7    1  0.2556591E-009  0.1616853E+03  0.7561462E-02  0.1186807E+00
         -3   -1    0    0    0  501 -0.00000000000E+00  0.00000000000E+00  0.50396423261E+02  0.50396423261E+02  0.00000000000E+00 0.  1.
          3   -1    0    0  501    0  0.00000000000E+00 -0.00000000000E+00 -0.62453244687E+03  0.62453244687E+03  0.00000000000E+00 0. -1.
         25    2    1    2    0    0 -0.96043855343E+02 -0.90953431769E+02 -0.38800996346E+03  0.42859541814E+03  0.12508138074E+03 0.  0.
          5    1    3    3  502    0 -0.68623616601E+02 -0.18470772458E+01 -0.26736125453E+03  0.27606543658E+03  0.41800000000E+01 0. -1.
         -5    1    3    3    0  502 -0.27420238741E+02 -0.89106354523E+02 -0.12064870893E+03  0.15252998156E+03  0.41800000000E+01 0. -1.
        -11    1    1    2    0    0 -0.12746770958E+02 -0.72920160885E+01 -0.14674856162E+02  0.20760661643E+02  0.00000000000E+00 0.  1.
         11    1    1    2    0    0  0.10879062630E+03  0.98245447858E+02 -0.17145120398E+03  0.22557279034E+03  0.00000000000E+00 0. -1.
</event>
<event>
 7    1  0.2556591E-009  0.9245211E+02  0.7561462E-02  0.1297020E+00
          2   -1    0    0  501    0  0.00000000000E+00  0.00000000000E+00  0.38479907715E+03  0.38479907715E+03  0.00000000000E+00 0. -1.
         -2   -1    0    0    0  501 -0.00000000000E+00 -0.00000000000E+00 -0.31282033814E+02  0.31282033814E+02  0.00000000000E+00 0.  1.
         25    2    1    2    0    0  0.10350975753E+02 -0.25956907534E+02  0.25849734986E+03  0.28852678281E+03  0.12508365507E+03 0.  0.
          5    1    3    3  502    0  0.65618584641E+02 -0.12835752824E+02  0.10244688561E+03  0.12240666637E+03  0.41800000000E+01 0.  1.
         -5    1    3    3    0  502 -0.55267608888E+02 -0.13121154711E+02  0.15605046425E+03  0.16612011644E+03  0.41800000000E+01 0.  1.
        -11    1    1    2    0    0  0.22299553998E+02  0.13104650627E+02  0.88062351949E+02  0.91782241242E+02  0.00000000000E+00 0. -1.
         11    1    1    2    0    0 -0.32650529751E+02  0.12852256907E+02  0.69573415220E+01  0.35772086907E+02  0.00000000000E+00 0.  1.
</event>
<event>
 7    1  0.2556591E-009  0.8453584E+02  0.7561462E-02  0.1316651E+00
          1   -1    0    0  501    0  0.00000000000E+00  0.00000000000E+00  0.12033614617E+03  0.12033614617E+03  0.00000000000E+00 0. -1.
         -1   -1    0    0    0  501 -0.00000000000E+00 -0.00000000000E+00 -0.13605184959E+03  0.13605184959E+03  0.00000000000E+00 0.  1.
         25    2    1    2    0    0  0.34403741345E+02  0.28435922215E+02 -0.57470700425E+02  0.14471535307E+03  0.12508969948E+03 0.  0.
          5    1    3    3  502    0  0.47604045246E+02 -0.17899899703E+02  0.18818894561E+02  0.54389104843E+02  0.41800000000E+01 0.  1.
         -5    1    3    3    0  502 -0.13200303901E+02  0.46335821918E+02 -0.76289594986E+02  0.90326248228E+02  0.41800000000E+01 0.  1.
        -11    1    1    2    0    0 -0.38005902745E+02  0.29214804691E+01 -0.19460906903E+02  0.42798488164E+02  0.00000000000E+00 0.  1.
         11    1    1    2    0    0  0.36021614000E+01 -0.31357402684E+02  0.61215903913E+02  0.68874154527E+02  0.00000000000E+00 0. -1.
</event>
<event>
 7    1  0.2556591E-009  0.1004978E+03  0.7561462E-02  0.1279253E+00
         -3   -1    0    0    0  501 -0.00000000000E+00  0.00000000000E+00  0.23362354673E+03  0.23362354673E+03  0.00000000000E+00 0.  1.
          3   -1    0    0  501    0  0.00000000000E+00 -0.00000000000E+00 -0.52973281915E+02  0.52973281915E+02  0.00000000000E+00 0. -1.
         25    2    1    2    0    0 -0.38797399489E+02  0.12696918590E+02  0.83345578785E+02  0.15574914383E+03  0.12507941619E+03 0.  0.
          5    1    3    3  502    0 -0.39377059255E+02 -0.52367177710E+02  0.49942121666E+02  0.82489769143E+02  0.41800000000E+01 0.  1.
         -5    1    3    3    0  502  0.57965976621E+00  0.65064096299E+02  0.33403457119E+02  0.73259374691E+02  0.41800000000E+01 0.  1.
        -11    1    1    2    0    0  0.42097239185E+02 -0.30532127938E+02  0.27704761790E+02  0.58923189062E+02  0.00000000000E+00 0. -1.
         11    1    1    2    0    0 -0.32998396962E+01  0.17835209348E+02  0.69599924242E+02  0.71924495751E+02  0.00000000000E+00 0.  1.
</event>
<event>
 7    1  0.2556591E-009  0.1452506E+03  0.7561462E-02  0.1206434E+00
          1   -1    0    0  501    0  0.00000000000E+00  0.00000000000E+00  0.80840295511E+03  0.80840295511E+03  0.00000000000E+00 0. -1.
         -1   -1    0    0    0  501 -0.00000000000E+00 -0.00000000000E+00 -0.34050512587E+02  0.34050512587E+02  0.00000000000E+00 0.  1.
         25    2    1    2    0    0 -0.10086838856E+03 -0.76461650295E+02  0.44661935450E+03  0.48076513369E+03  0.12508177397E+03 0.  0.
          5    1    3    3  502    0 -0.10659881826E+03 -0.68166692871E+02  0.21956594746E+03  0.25344956847E+03  0.41800000000E+01 0.  1.
         -5    1    3    3    0  502  0.57304297066E+01 -0.82949574240E+01  0.22705340704E+03  0.22731556522E+03  0.41800000000E+01 0.  1.
        -11    1    1    2    0    0  0.42137756957E+02  0.83802216691E+02  0.19853671591E+03  0.21957966583E+03  0.00000000000E+00 0.  1.
         11    1    1    2    0    0  0.58730631600E+02 -0.73405663960E+01  0.12919637211E+03  0.14210866817E+03  0.00000000000E+00 0. -1.
</event>
<event>
 7    1  0.2556591E-009  0.8251138E+02  0.7561462E-02  0.1322072E+00
         -3   -1    0    0    0  501 -0.00000000000E+00  0.00000000000E+00  0.16313591305E+03  0.16313591305E+03  0.00000000000E+00 0.  1.
          3   -1    0    0  501    0  0.00000000000E+00 -0.00000000000E+00 -0.10180780167E+03  0.10180780167E+03  0.00000000000E+00 0. -1.
         25    2    1    2    0    0 -0.16899769638E+02 -0.66702132726E+02  0.37335978567E+02  0.14756923633E+03  0.12509167634E+03 0.  0.
          5    1    3    3  502    0 -0.10573312532E+02 -0.69142354239E+01  0.75217610937E+02  0.76385620273E+02  0.41800000000E+01 0. -1.
         -5    1    3    3    0  502 -0.63264571062E+01 -0.59787897302E+02 -0.37881632371E+02  0.71183616053E+02  0.41800000000E+01 0. -1.
        -11    1    1    2    0    0 -0.22611429947E+02  0.29601261788E+02  0.45727521242E+02  0.58978959491E+02  0.00000000000E+00 0.  1.
         11    1    1    2    0    0  0.39511199585E+02  0.37100870938E+02 -0.21735388433E+02  0.58395518898E+02  0.00000000000E+00 0. -1.
</event>
<event>
 7    1  0.2556591E-009  0.2097796E+03  0.7561462E-02  0.1141741E+00
         -2   -1    0    0    0  501 -0.00000000000E+00  0.00000000000E+00  0.92214955193E+02  0.92214955193E+02  0.00000000000E+00 0.  1.
          2   -1    0    0  501    0  0.00000000000E+00 -0.00000000000E+00 -0.84356432436E+03  0.84356432436E+03  0.00000000000E+00 0. -1.
         25    2    1    2    0    0  0.77872843690E+02 -0.16625119957E+03 -0.83808353856E+02  0.23742398652E+03  0.12507065225E+03 0.  0.
          5    1    3    3  502    0 -0.23297182530E+02 -0.75189521761E+02 -0.26030432722E+01  0.78869963426E+02  0.41800000000E+01 0. -1.
         -5    1    3    3    0  502  0.10117002622E+03 -0.91061677811E+02 -0.81205310584E+02  0.15855402309E+03  0.41800000000E+01 0. -1.
        -11    1    1    2    0    0  0.14493374902E+02  0.14743816831E+00 -0.62842310207E+02  0.64492136003E+02  0.00000000000E+00 0. -1.
         11    1    1    2    0    0 -0.92366218592E+02  0.16610376140E+03 -0.60469870510E+03  0.63386315703E+03  0.00000000000E+00 0.  1.
</event>
<event>
 7    1  0.2556591E-009  0.8315921E+02  0.7561462E-02  0.1320318E+00
         -3   -1    0    0    0  501 -0.00000000000E+00  0.00000000000E+00  0.12843328113E+03  0.12843328113E+03  0.00000000000E+00 0.  1.
          3   -1    0    0  501    0  0.00000000000E+00 -0.00000000000E+00 -0.11157669284E+03  0.11157669284E+03  0.00000000000E+00 0. -1.
         25    2    1    2    0    0  0.39525386387E+02  0.53775675878E+01  0.61792620374E+02  0.14510421232E+03  0.12508289291E+03 0.  0.
          5    1    3    3  502    0  0.22362783229E+02  0.47166854960E+02 -0.16251864085E+02  0.54830664475E+02  0.41800000000E+01 0.  1.
         -5    1    3    3    0  502  0.17162603159E+02 -0.41789287373E+02  0.78044484458E+02  0.90273547846E+02  0.41800000000E+01 0.  1.
        -11    1    1    2    0    0 -0.10668933433E+01 -0.25264038383E+02  0.79973146658E+01  0.26521065942E+02  0.00000000000E+00 0.  1.
         11    1    1    2    0    0 -0.38458493044E+02  0.19886470795E+02 -0.52933346749E+02  0.68384695700E+02  0.00000000000E+00 0. -1.
</event>
<event>
 7    1  0.2556591E-009  0.1204106E+03  0.7561462E-02  0.1242421E+00
          1   -1    0    0  501    0  0.00000000000E+00  0.00000000000E+00  0.83003914682E+03  0.83003914682E+03  0.00000000000E+00 0. -1.
         -1   -1    0    0    0  501 -0.00000000000E+00 -0.00000000000E+00 -0.35011090480E+02  0.35011090480E+02  0.00000000000E+00 0.  1.
         25    2    1    2    0    0  0.61407176348E+02 -0.62178301856E+02  0.67076568135E+03  0.68790459981E+03  0.12509658918E+03 0.  0.
          5    1    3    3  502    0 -0.36274159427E+02 -0.36015409199E+02  0.21397681266E+03  0.22003743568E+03  0.41800000000E+01 0. -1.
         -5    1    3    3    0  502  0.97681335775E+02 -0.26162892657E+02  0.45678886869E+03  0.46786716413E+03  0.41800000000E+01 0. -1.
        -11    1    1    2    0    0 -0.29451805862E+02  0.38882927921E+02  0.21893181995E+01  0.48827083329E+02  0.00000000000E+00 0.  1.
         11    1    1    2    0    0 -0.31955370486E+02  0.23295373934E+02  0.12207305679E+03  0.12831855417E+03  0.00000000000E+00 0. -1.
</event>
<event>
 7    1  0.2556591E-009  0.1348696E+03  0.7561462E-02  0.1220404E+00
         -1   -1    0    0    0  501 -0.00000000000E+00  0.00000000000E+00  0.89985157976E+02  0.89985157976E+02  0.00000000000E+00 0.  1.
          1   -1    0    0  501    0  0.00000000000E+00 -0.00000000000E+00 -0.30684833350E+03  0.30684833350E+03  0.00000000000E+00 0. -1.
         25    2    1    2    0    0  0.85132302849E+02  0.76867759581E+02 -0.64372614988E+02  0.18151297268E+03  0.12508782611E+03 0.  0.
          5    1    3    3  502    0  0.28540437527E+02  0.88134357113E+02 -0.79018351104E+02  0.12183428782E+03  0.41800000000E+01 0.  1.
         -5    1    3    3    0  502  0.56591865322E+02 -0.11266597532E+02  0.14645736116E+02  0.59678684862E+02  0.41800000000E+01 0.  1.
        -11    1    1    2    0    0 -0.24266530052E+02 -0.46552708702E+01 -0.10824232644E+03  0.11102674120E+03  0.00000000000E+00 0. -1.
         11    1    1    2    0    0 -0.60865772797E+02 -0.72212488711E+02 -0.44248234093E+02  0.10429377759E+03  0.00000000000E+00 0.  1.
</event>
<event>
 7    1  0.2556591E-009  0.1267354E+03  0.7561462E-02  0.1232382E+00
         -2   -1    0    0    0  501 -0.00000000000E+00  0.00000000000E+00  0.18745422369E+03  0.18745422369E+03  0.00000000000E+00 0.  1.
          2   -1    0    0  501    0  0.00000000000E+00 -0.00000000000E+00 -0.11203410758E+03  0.11203410758E+03  0.00000000000E+00 0. -1.
         25    2    1    2    0    0 -0.27410577752E+02 -0.85234270716E+02  0.28863259166E+02  0.15651564396E+03  0.12509132023E+03 0.  0.
          5    1    3    3  502    0 -0.39045441489E+02  0.22251662959E+02  0.14295934348E+02  0.47344790045E+02  0.41800000000E+01 0. -1.
         -5    1    3    3    0  502  0.11634863737E+02 -0.10748593368E+03  0.14567324818E+02  0.10917085392E+03  0.41800000000E+01 0. -1.
        -11    1    1    2    0    0 -0.12578819078E+02  0.20452097968E+02  0.60936076368E+02  0.65495957157E+02  0.00000000000E+00 0.  1.
         11    1    1    2    0    0  0.39989396829E+02  0.64782172748E+02 -0.14379219427E+02  0.77476730158E+02  0.00000000000E+00 0. -1.
</event>
<event>
 7    1  0.2556591E-009  0.1142683E+03  0.7561462E-02  0.1252864E+00
          2   -1    0    0  501    0  0.00000000000E+00  0.00000000000E+00  0.26544580590E+03  0.26544580590E+03  0.00000000000E+00 0. -1.
         -2   -1    0    0    0  501 -0.00000000000E+00 -0.00000000000E+00 -0.55808462793E+02  0.55808462793E+02  0.00000000000E+00 0.  1.
         25    2    1    2    0    0  0.50685444716E+02 -0.10138188820E+02  0.15259988368E+03  0.20397515833E+03  0.12508934223E+03 0.  0.
          5    1    3    3  502    0 -0.41682351585E+02 -0.21436401026E+01  0.38903878972E+02  0.57210119958E+02  0.41800000000E+01 0. -1.
         -5    1    3    3    0  502  0.92367796301E+02 -0.79945487169E+01  0.11369600470E+03  0.14676503837E+03  0.41800000000E+01 0. -1.
        -11    1    1    2    0    0 -0.64047425753E+02 -0.14578656911E+02  0.16105301433E+02  0.67631285048E+02  0.00000000000E+00 0.  1.
         11    1    1    2    0    0  0.13361981038E+02  0.24716845731E+02  0.40932158001E+02  0.49647825318E+02  0.00000000000E+00 0. -1.
</event>
<event>
 7    1  0.3045943E-009  0.2988273E+03  0.7561462E-02  0.1085828E+00
          1   -1    0    0  501    0  0.00000000000E+00  0.00000000000E+00  0.53738401949E+03  0.53738401949E+03  0.00000000000E+00 0. -1.
         -1   -1    0    0    0  501 -0.00000000000E+00 -0.00000000000E+00 -0.17082320659E+03  0.17082320659E+03  0.00000000000E+00 0.  1.
         25    2    1    2    0    0 -0.28168094198E+03  0.20084107582E+02  0.18042738854E+03  0.35769935976E+03  0.12508902824E+03 0.  0.
          5    1    3    3  502    0 -0.17598178958E+03 -0.45645707141E+02  0.12898993665E+03  0.22295514572E+03  0.41800000000E+01 0.  1.
         -5    1    3    3    0  502 -0.10569915240E+03  0.65729814723E+02  0.51437451887E+02  0.13474421404E+03  0.41800000000E+01 0.  1.
        -11    1    1    2    0    0  0.21736349653E+03 -0.45551891622E+02  0.11065900689E+03  0.24812754837E+03  0.00000000000E+00 0.  1.
         11    1    1    2    0    0  0.64317445450E+02  0.25467784040E+02  0.75474417471E+02  0.10238031796E+03  0.00000000000E+00 0. -1.
</event>
<event>
 7    1  0.2556591E-009  0.1466491E+03  0.7561462E-02  0.1204652E+00
         -2   -1    0    0    0  501 -0.00000000000E+00  0.00000000000E+00  0.15573492985E+02  0.15573492985E+02  0.00000000000E+00 0.  1.
          2   -1    0    0  501    0  0.00000000000E+00 -0.00000000000E+00 -0.14558159010E+04  0.14558159010E+04  0.00000000000E+00 0. -1.
         25    2    1    2    0    0  0.56386127976E+02 -0.83598506794E+02 -0.91650593496E+03  0.93048283575E+03  0.12508826101E+03 0.  0.
          5    1    3    3  502    0  0.62883619730E+01 -0.10541807438E+03 -0.62410542925E+03  0.63299097396E+03  0.41800000000E+01 0.  1.
         -5    1    3    3    0  502  0.50097766003E+02  0.21819567588E+02 -0.29240050571E+03  0.29749186179E+03  0.41800000000E+01 0.  1.
        -11    1    1    2    0    0  0.23123676460E+02  0.24873763354E+02 -0.18290164214E+03  0.18602800653E+03  0.00000000000E+00 0. -1.
         11    1    1    2    0    0 -0.79509804436E+02  0.58724743440E+02 -0.34083483088E+03  0.35487855167E+03  0.00000000000E+00 0.  1.
</event>
<event>
 7    1  0.2556591E-009  0.1511226E+03  0.7561462E-02  0.1199100E+00
          4   -1    0    0  501    0  0.00000000000E+00  0.00000000000E+00  0.11122787228E+04  0.11122787228E+04  0.00000000000E+00 0.  1.
         -4   -1    0    0    0  501 -0.00000000000E+00 -0.00000000000E+00 -0.24409954967E+02  0.24409954967E+02  0.00000000000E+00 0. -1.
         25    2    1    2    0    0 -0.22875322888E+02 -0.10292765361E+03  0.79910794490E+03  0.81568420207E+03  0.12509927106E+03 0.  0.
          5    1    3    3  502    0 -0.50468204679E+02  0.55206562908E+01  0.21653584901E+03  0.22244721540E+03  0.41800000000E+01 0. -1.
         -5    1    3    3    0  502  0.27592881791E+02 -0.10844830990E+03  0.58257209589E+03  0.59323698667E+03  0.41800000000E+01 0. -1.
        -11    1    1    2    0    0 -0.49966774380E+01  0.11036282812E+03  0.24262022036E+03  0.26658861930E+03  0.00000000000E+00 0.  1.
         11    1    1    2    0    0  0.27872000326E+02 -0.74351745046E+01  0.46140602594E+02  0.54415856419E+02  0.00000000000E+00 0. -1.
</event>
<event>
 7    1  0.2556591E-009  0.9300011E+02  0.7561462E-02  0.1295745E+00
         -1   -1    0    0    0  501 -0.00000000000E+00  0.00000000000E+00  0.17349676817E+03  0.17349676817E+03  0.00000000000E+00 0.  1.
          1   -1    0    0  501    0  0.00000000000E+00 -0.00000000000E+00 -0.10345739160E+03  0.10345739160E+03  0.00000000000E+00 0. -1.
         25    2    1    2    0    0 -0.41026791633E+02 -0.25762465688E+02  0.10148642054E+03  0.16820685103E+03  0.12508856426E+03 0.  0.
          5    1    3    3  502    0 -0.80856011046E+02 -0.28645260427E+01  0.89133215946E+02  0.12044958537E+03  0.41800000000E+01 0.  1.
         -5    1    3    3    0  502  0.39829219413E+02 -0.22897939645E+02  0.12353204595E+02  0.47757265654E+02  0.41800000000E+01 0.  1.
        -11    1    1    2    0    0  0.31054893563E+02 -0.18558770977E+00  0.28826535498E+02  0.42372278743E+02  0.00000000000E+00 0.  1.
         11    1    1    2    0    0  0.99718980703E+01  0.25948053398E+02 -0.60273579469E+02  0.66375030006E+02  0.00000000000E+00 0. -1.
</event>
<event>
 7    1  0.2556591E-009  0.1110267E+03  0.7561462E-02  0.1258680E+00
          4   -1    0    0  501    0  0.00000000000E+00  0.00000000000E+00  0.44261269403E+02  0.44261269403E+02  0.00000000000E+00 0. -1.
         -4   -1    0    0    0  501 -0.00000000000E+00 -0.00000000000E+00 -0.42927844463E+03  0.42927844463E+03  0.00000000000E+00 0.  1.
         25    2    1    2    0    0  0.10542687739E+02  0.70824929225E+02 -0.21599757433E+03  0.25967247641E+03  0.12509006365E+03 0.  0.
          5    1    3    3  502    0  0.35683541346E+02  0.52024964068E+02 -0.28209537615E+02  0.69232668746E+02  0.41800000000E+01 0. -1.
         -5    1    3    3    0  502 -0.25140853606E+02  0.18799965157E+02 -0.18778803671E+03  0.19043980766E+03  0.41800000000E+01 0. -1.
        -11    1    1    2    0    0 -0.52457769093E+02 -0.10176855724E+02 -0.46291231903E+02  0.70698402257E+02  0.00000000000E+00 0. -1.
         11    1    1    2    0    0  0.41915081353E+02 -0.60648073501E+02 -0.12272836900E+03  0.14316883537E+03  0.00000000000E+00 0.  1.
</event>
<event>
 7    1  0.2556591E-009  0.1816209E+03  0.7561462E-02  0.1166243E+00
          1   -1    0    0  501    0  0.00000000000E+00  0.00000000000E+00  0.18880958455E+04  0.18880958455E+04  0.00000000000E+00 0. -1.
         -1   -1    0    0    0  501 -0.00000000000E+00 -0.00000000000E+00 -0.21277764600E+02  0.21277764600E+02  0.00000000000E+00 0.  1.
         25    2    1    2    0    0 -0.14932069232E+02  0.16837897266E+03  0.10248787671E+04  0.10462307138E+04  0.12509106307E+03 0.  0.
          5    1    3    3  502    0 -0.27741875977E+02  0.14949636974E+03  0.10025838080E+04  0.10140564781E+04  0.41800000000E+01 0. -1.
         -5    1    3    3    0  502  0.12809806745E+02  0.18882602919E+02  0.22294959102E+02  0.32174235705E+02  0.41800000000E+01 0. -1.
        -11    1    1    2    0    0  0.35272240235E+02 -0.25267438238E+02  0.14412830693E+03  0.15051758444E+03  0.00000000000E+00 0.  1.
         11    1    1    2    0    0 -0.20340171004E+02 -0.14311153442E+03  0.69781100689E+03  0.71262531191E+03  0.00000000000E+00 0. -1.
</event>
<event>
 7    1  0.2556591E-009  0.2716689E+03  0.7561462E-02  0.1100328E+00
         -1   -1    0    0    0  501 -0.00000000000E+00  0.00000000000E+00  0.12489014153E+03  0.12489014153E+03  0.00000000000E+00 0.  1.
          1   -1    0    0  501    0  0.00000000000E+00 -0.00000000000E+00 -0.63689318509E+03  0.63689318509E+03  0.00000000000E+00 0. -1.
         25    2    1    2    0    0  0.89506244601E+01 -0.25361632468E+03 -0.18756173331E+03  0.33945403301E+03  0.12509309695E+03 0.  0.
          5    1    3    3  502    0  0.60406057713E+02 -0.82643868487E+02 -0.49886163701E+02  0.11395175530E+03  0.41800000000E+01 0.  1.
         -5    1    3    3    0  502 -0.51455433253E+02 -0.17097245619E+03 -0.13767556961E+03  0.22550227772E+03  0.41800000000E+01 0.  1.
        -11    1    1    2    0    0 -0.36760607897E+02  0.10924637796E+03 -0.92850403121E+02  0.14801118454E+03  0.00000000000E+00 0.  1.
         11    1    1    2    0    0  0.27809983437E+02  0.14436994672E+03 -0.23159090713E+03  0.27431810906E+03  0.00000000000E+00 0. -1.
</event>
<event>
 7    1  0.2556591E-009  0.8414554E+02  0.7561462E-02  0.1317682E+00
          2   -1    0    0  501    0  0.00000000000E+00  0.00000000000E+00  0.37394138949E+03  0.37394138949E+03  0.00000000000E+00 0. -1.
         -2   -1    0    0    0  501 -0.00000000000E+00 -0.00000000000E+00 -0.50598222615E+02  0.50598222615E+02  0.00000000000E+00 0.  1.
         25    2    1    2    0    0 -0.21766030876E+01 -0.36828320478E+02  0.29375644642E+03  0.32140976649E+03  0.12510126057E+03 0.  0.
          5    1    3    3  502    0 -0.66556520304E+01 -0.66874875512E+02  0.27967442079E+03  0.28766612717E+03  0.41800000000E+01 0. -1.
         -5    1    3    3    0  502  0.44790489428E+01  0.30046555034E+02  0.14082025630E+02  0.33743639322E+02  0.41800000000E+01 0. -1.
        -11    1    1    2    0    0  0.19057604315E+02 -0.92747889151E+01 -0.22938734681E+02  0.31231387104E+02  0.00000000000E+00 0.  1.
         11    1    1    2    0    0 -0.16881001228E+02  0.46103109393E+02  0.52525455137E+02  0.71898458506E+02  0.00000000000E+00 0. -1.
</event>
<event>
 7    1  0.2556591E-009  0.8315427E+02  0.7561462E-02  0.1320331E+00
          4   -1    0    0  501    0  0.00000000000E+00  0.00000000000E+00  0.45387931818E+02  0.45387931818E+02  0.00000000000E+00 0. -1.
         -4   -1    0    0    0  501 -0.00000000000E+00 -0.00000000000E+00 -0.29637601112E+03  0.29637601112E+03  0.00000000000E+00 0.  1.
         25    2    1    2    0    0  0.37711246535E+01  0.20982104051E+02 -0.96563905646E+02  0.15945629049E+03  0.12508897086E+03 0.  0.
          5    1    3    3  502    0  0.36750577506E+02  0.52328354217E+02 -0.14762659374E+02  0.65759182734E+02  0.41800000000E+01 0. -1.
         -5    1    3    3    0  502 -0.32979452853E+02 -0.31346250166E+02 -0.81801246272E+02  0.93697107754E+02  0.41800000000E+01 0. -1.
        -11    1    1    2    0    0 -0.70099547155E+01 -0.38290888007E+02 -0.15933923164E+03  0.16402537093E+03  0.00000000000E+00 0.  1.
         11    1    1    2    0    0  0.32388300620E+01  0.17308783956E+02  0.49150579908E+01  0.18282281511E+02  0.00000000000E+00 0. -1.
</event>
<event>
 7    1  0.2556591E-009  0.9952798E+02  0.7561462E-02  0.1281292E+00
          1   -1    0    0  501    0  0.00000000000E+00  0.00000000000E+00  0.21492923690E+02  0.21492923690E+02  0.00000000000E+00 0. -1.
         -1   -1    0    0    0  501 -0.00000000000E+00 -0.00000000000E+00 -0.61240526304E+03  0.61240526304E+03  0.00000000000E+00 0.  1.
         25    2    1    2    0    0  0.74536069852E+01 -0.12285144677E+02 -0.42901141413E+03  0.44710500711E+03  0.12508242438E+03 0.  0.
          5    1    3    3  502    0 -0.39841895027E+02 -0.35112993590E+02 -0.94585913898E+02  0.10855536111E+03  0.41800000000E+01 0.  1.
         -5    1    3    3    0  502  0.47295502012E+02  0.22827848913E+02 -0.33442550024E+03  0.33854964600E+03  0.41800000000E+01 0.  1.
        -11    1    1    2    0    0  0.40880204405E+02  0.17539802385E+02 -0.80781311915E+02  0.92219608190E+02  0.00000000000E+00 0.  1.
         11    1    1    2    0    0 -0.48333811390E+02 -0.52546577078E+01 -0.81119613303E+02  0.94573571433E+02  0.00000000000E+00 0. -1.
</event>
<event>
 7    1  0.2556591E-009  0.1297624E+03  0.7561462E-02  0.1227809E+00
         -1   -1    0    0    0  501 -0.00000000000E+00  0.00000000000E+00  0.63482248259E+02  0.63482248259E+02  0.00000000000E+00 0.  1.
          1   -1    0    0  501    0  0.00000000000E+00 -0.00000000000E+00 -0.32840759794E+03  0.32840759794E+03  0.00000000000E+00 0. -1.
         25    2    1    2    0    0 -0.43885955874E+02 -0.64715011708E+02 -0.22079664641E+03  0.26554089369E+03  0.12508715879E+03 0.  0.
          5    1    3    3  502    0  0.38885266815E+02 -0.40809480643E+02 -0.12154962821E+03  0.13404947670E+03  0.41800000000E+01 0. -1.
         -5    1    3    3    0  502 -0.82771222690E+02 -0.23905531066E+02 -0.99247018200E+02  0.13149141699E+03  0.41800000000E+01 0. -1.
        -11    1    1    2    0    0 -0.24096397188E+02  0.35140836983E+02 -0.61493453080E+01  0.43050310441E+02  0.00000000000E+00 0.  1.
         11    1    1    2    0    0  0.67982353062E+02  0.29574174725E+02 -0.37979357960E+02  0.83298642063E+02  0.00000000000E+00 0. -1.
</event>
<event>
 7    1  0.2556591E-009  0.9760221E+02  0.7561462E-02  0.1285420E+00
          1   -1    0    0  501    0  0.00000000000E+00  0.00000000000E+00  0.19869183980E+03  0.19869183980E+03  0.00000000000E+00 0. -1.
         -1   -1    0    0    0  501 -0.00000000000E+00 -0.00000000000E+00 -0.61891227172E+02  0.61891227172E+02  0.00000000000E+00 0.  1.
         25    2    1    2    0    0 -0.62113725268E+01 -0.11964751783E+02  0.71869713744E+02  0.14489464751E+03  0.12508983447E+03 0.  0.
          5    1    3    3  502    0  0.30532134335E+02  0.46665698741E+02  0.38990490484E+02  0.68173524290E+02  0.41800000000E+01 0. -1.
         -5    1    3    3    0  502 -0.36743506862E+02 -0.58630450524E+02  0.32879223260E+02  0.76721123215E+02  0.41800000000E+01 0. -1.
        -11    1    1    2    0    0 -0.13752178922E+02  0.36106038033E+02 -0.50988302170E+01  0.38971354571E+02  0.00000000000E+00 0.  1.
         11    1    1    2    0    0  0.19963551449E+02 -0.24141286249E+02  0.70029729103E+02  0.76717064898E+02  0.00000000000E+00 0. -1.
</event>
<event>
 7    1  0.2556591E-009  0.1024997E+03  0.7561462E-02  0.1275126E+00
         -2   -1    0    0    0  501 -0.00000000000E+00  0.00000000000E+00  0.15450840585E+03  0.15450840585E+03  0.00000000000E+00 0.  1.
          2   -1    0    0  501    0  0.00000000000E+00 -0.00000000000E+00 -0.12291380106E+03  0.12291380106E+03  0.00000000000E+00 0. -1.
         25    2    1    2    0    0  0.24492375927E+02 -0.76540521631E+02  0.42226285767E+02  0.15456055347E+03  0.12509027759E+03 0.  0.
          5    1    3    3  502    0  0.25914193104E+02 -0.47967544023E+02 -0.39771982944E+02  0.67614448982E+02  0.41800000000E+01 0. -1.
         -5    1    3    3    0  502 -0.14218171765E+01 -0.28572977609E+02  0.81998268712E+02  0.86946104486E+02  0.41800000000E+01 0. -1.
        -11    1    1    2    0    0  0.11892758571E+02  0.83516826648E+02 -0.14558038798E+02  0.85606276250E+02  0.00000000000E+00 0. -1.
         11    1    1    2    0    0 -0.36385134498E+02 -0.69763050170E+01  0.39263578202E+01  0.37255377194E+02  0.00000000000E+00 0.  1.
</event>
<event>
 7    1  0.2556591E-009  0.9267699E+02  0.7561462E-02  0.1296495E+00
          4   -1    0    0  501    0  0.00000000000E+00  0.00000000000E+00  0.99331967996E+02  0.99331967996E+02  0.00000000000E+00 0. -1.
         -4   -1    0    0    0  501 -0.00000000000E+00 -0.00000000000E+00 -0.12568452038E+03  0.12568452038E+03  0.00000000000E+00 0.  1.
         25    2    1    2    0    0  0.36122167775E+01 -0.37794920077E+02 -0.39713844810E+02  0.13662555663E+03  0.12509136325E+03 0.  0.
          5    1    3    3  502    0 -0.32489421829E+02  0.16055339405E+02 -0.58548763888E+02  0.68983814094E+02  0.41800000000E+01 0.  1.
         -5    1    3    3    0  502  0.36101638606E+02 -0.53850259482E+02  0.18834919077E+02  0.67641742534E+02  0.41800000000E+01 0.  1.
        -11    1    1    2    0    0 -0.71789153947E+01  0.60499616548E+02 -0.16385423920E+01  0.60946084779E+02  0.00000000000E+00 0.  1.
         11    1    1    2    0    0  0.35666986172E+01 -0.22704696471E+02  0.14999834815E+02  0.27444846972E+02  0.00000000000E+00 0. -1.
</event>
<event>
 7    1  0.2556591E-009  0.1057170E+03  0.7561462E-02  0.1268713E+00
          2   -1    0    0  501    0  0.00000000000E+00  0.00000000000E+00  0.16908384261E+03  0.16908384261E+03  0.00000000000E+00 0. -1.
         -2   -1    0    0    0  501 -0.00000000000E+00 -0.00000000000E+00 -0.79838596449E+02  0.79838596449E+02  0.00000000000E+00 0.  1.
         25    2    1    2    0    0  0.13708572807E+02  0.14454164358E+02  0.92637891214E+02  0.15692336113E+03  0.12508522912E+03 0.  0.
          5    1    3    3  502    0 -0.44426375829E+02  0.36024391947E+02  0.70658054472E+02  0.91002707357E+02  0.41800000000E+01 0. -1.
         -5    1    3    3    0  502  0.58134948637E+02 -0.21570227588E+02  0.21979836742E+02  0.65920653777E+02  0.41800000000E+01 0. -1.
        -11    1    1    2    0    0 -0.52095838907E+02 -0.45633263391E+01 -0.18454999720E+01  0.52327872581E+02  0.00000000000E+00 0.  1.
         11    1    1    2    0    0  0.38387266100E+02 -0.98908380190E+01 -0.15471450836E+01  0.39671205341E+02  0.00000000000E+00 0. -1.
</event>
<event>
 7    1  0.2556591E-009  0.6934603E+02  0.7561462E-02  0.1362331E+00
          1   -1    0    0  501    0  0.00000000000E+00  0.00000000000E+00  0.12680543967E+03  0.12680543967E+03  0.00000000000E+00 0. -1.
         -1   -1    0    0    0  501 -0.00000000000E+00 -0.00000000000E+00 -0.11244743996E+03  0.11244743996E+03  0.00000000000E+00 0.  1.
         25    2    1    2    0    0 -0.38186201014E+02 -0.17544658254E+02 -0.20867600279E+02  0.13359783468E+03  0.12508766410E+03 0.  0.
          5    1    3    3  502    0 -0.44827458712E+02 -0.17832714446E+01  0.46035937107E+02  0.64416310178E+02  0.41800000000E+01 0. -1.
         -5    1    3    3    0  502  0.66412576974E+01 -0.15761386810E+02 -0.66903537386E+02  0.69181524504E+02  0.41800000000E+01 0. -1.
        -11    1    1    2    0    0  0.52885396141E+02 -0.32898934794E+00 -0.10947231159E+02  0.54007547890E+02  0.00000000000E+00 0.  1.
         11    1    1    2    0    0 -0.14699195127E+02  0.17873647602E+02  0.46172831150E+02  0.51647497058E+02  0.00000000000E+00 0. -1.
</event>
<event>
 7    1  0.3183612E-009  0.1608176E+03  0.7561462E-02  0.1187777E+00
          1   -1    0    0  501    0  0.00000000000E+00  0.00000000000E+00  0.47124758125E+03  0.47124758125E+03  0.00000000000E+00 0. -1.
         -1   -1    0    0    0  501 -0.00000000000E+00 -0.00000000000E+00 -0.66318574900E+02  0.66318574900E+02  0.00000000000E+00 0.  1.
         25    2    1    2    0    0 -0.92935200903E+02  0.10311474591E+03  0.19657309786E+03  0.27121514529E+03  0.12508824820E+03 0.  0.
          5    1    3    3  502    0 -0.90987760296E+01  0.98038780103E+02  0.13428035934E+03  0.16656253310E+03  0.41800000000E+01 0. -1.
         -5    1    3    3    0  502 -0.83836424873E+02  0.50759658092E+01  0.62292738523E+02  0.10465261218E+03  0.41800000000E+01 0. -1.
        -11    1    1    2    0    0  0.41506638266E+02 -0.40877848270E+02  0.16441733840E+03  0.17443296898E+03  0.00000000000E+00 0. -1.
         11    1    1    2    0    0  0.51428562637E+02 -0.62236897643E+02  0.43938570092E+02  0.91918041889E+02  0.00000000000E+00 0.  1.
</event>
<event>
 7    1  0.2556591E-009  0.1735207E+03  0.7561462E-02  0.1174225E+00
          1   -1    0    0  501    0  0.00000000000E+00  0.00000000000E+00  0.31212429985E+02  0.31212429985E+02  0.00000000000E+00 0. -1.
         -1   -1    0    0    0  501 -0.00000000000E+00 -0.00000000000E+00 -0.11084802143E+04  0.11084802143E+04  0.00000000000E+00 0.  1.
         25    2    1    2    0    0 -0.92722166923E+02 -0.11497033067E+03 -0.65214047574E+03  0.68025812344E+03  0.12509331408E+03 0.  0.
          5    1    3    3  502    0 -0.47478672210E+02  0.22801205666E+01 -0.70166376155E+02  0.84854086568E+02  0.41800000000E+01 0.  1.
         -5    1    3    3    0  502 -0.45243494712E+02 -0.11725045124E+03 -0.58197409959E+03  0.59540403687E+03  0.41800000000E+01 0.  1.
        -11    1    1    2    0    0  0.11625289058E+02  0.87030274346E+02 -0.19558644112E+03  0.21439093252E+03  0.00000000000E+00 0. -1.
         11    1    1    2    0    0  0.81096877865E+02  0.27940056329E+02 -0.22954086745E+03  0.24504358832E+03  0.00000000000E+00 0.  1.
</event>
<event>
 7    1  0.2556591E-009  0.2301615E+03  0.7561462E-02  0.1126526E+00
         -1   -1    0    0    0  501 -0.00000000000E+00  0.00000000000E+00  0.81554690279E+03  0.81554690279E+03  0.00000000000E+00 0.  1.
          1   -1    0    0  501    0  0.00000000000E+00 -0.00000000000E+00 -0.81972136785E+02  0.81972136785E+02  0.00000000000E+00 0. -1.
         25    2    1    2    0    0  0.15029041293E+03 -0.17081200401E+03  0.47528014043E+03  0.54157431150E+03  0.12509026365E+03 0.  0.
          5    1    3    3  502    0  0.86951939227E+02 -0.78264059584E+02  0.36857617161E+03  0.38671923852E+03  0.41800000000E+01 0. -1.
         -5    1    3    3    0  502  0.63338473700E+02 -0.92547944425E+02  0.10670396882E+03  0.15485507299E+03  0.41800000000E+01 0. -1.
        -11    1    1    2    0    0 -0.46484325998E+02  0.82738260400E+02  0.50431255132E+02  0.10746964126E+03  0.00000000000E+00 0.  1.
         11    1    1    2    0    0 -0.10380608693E+03  0.88073743609E+02  0.20786337044E+03  0.24847508681E+03  0.00000000000E+00 0. -1.
</event>
<event>
 7    1  0.2556591E-009  0.1378134E+03  0.7561462E-02  0.1216302E+00
          1   -1    0    0  501    0  0.00000000000E+00  0.00000000000E+00  0.84215160490E+02  0.84215160490E+02  0.00000000000E+00 0. -1.
         -1   -1    0    0    0  501 -0.00000000000E+00 -0.00000000000E+00 -0.37432967042E+03  0.37432967042E+03  0.00000000000E+00 0.  1.
         25    2    1    2    0    0  0.95678624949E+01 -0.12926934740E+03 -0.22221349916E+03  0.28605321487E+03  0.12508195057E+03 0.  0.
          5    1    3    3  502    0  0.10946864844E+02 -0.10905199914E+03 -0.65020176570E+02  0.12750399259E+03  0.41800000000E+01 0. -1.
         -5    1    3    3    0  502 -0.13790023491E+01 -0.20217348266E+02 -0.15719332259E+03  0.15854922228E+03  0.41800000000E+01 0. -1.
        -11    1    1    2    0    0  0.25726355899E+02  0.84016387727E+02 -0.73870208555E+02  0.11479288526E+03  0.00000000000E+00 0.  1.
         11    1    1    2    0    0 -0.35294218394E+02  0.45252959677E+02  0.59691977816E+01  0.57698730781E+02  0.00000000000E+00 0. -1.
</event>
<event>
 7    1  0.2556591E-009  0.1356703E+03  0.7561462E-02  0.1219277E+00
         -1   -1    0    0    0  501 -0.00000000000E+00  0.00000000000E+00  0.15918423403E+03  0.15918423403E+03  0.00000000000E+00 0.  1.
          1   -1    0    0  501    0  0.00000000000E+00 -0.00000000000E+00 -0.13347301902E+03  0.13347301902E+03  0.00000000000E+00 0. -1.
         25    2    1    2    0    0 -0.97842604030E+02  0.11441579593E+02  0.10156624067E+02  0.15954710458E+03  0.12509211270E+03 0.  0.
          5    1    3    3  502    0  0.24458608875E+02  0.51294919062E+01  0.25628061000E+02  0.36038939301E+02  0.41800000000E+01 0. -1.
         -5    1    3    3    0  502 -0.12230121290E+03  0.63120876865E+01 -0.15471436933E+02  0.12350816528E+03  0.41800000000E+01 0. -1.
        -11    1    1    2    0    0  0.22541296960E+01  0.22062521402E+02 -0.15625972786E+02  0.27129448516E+02  0.00000000000E+00 0. -1.
         11    1    1    2    0    0  0.95588474334E+02 -0.33504100995E+02  0.31180563724E+02  0.10598069996E+03  0.00000000000E+00 0.  1.
</event>
<event>
 7    1  0.2556591E-009  0.1315245E+03  0.7561462E-02  0.1225211E+00
         -2   -1    0    0    0  501 -0.00000000000E+00  0.00000000000E+00  0.11662177478E+02  0.11662177478E+02  0.00000000000E+00 0.  1.
          2   -1    0    0  501    0  0.00000000000E+00 -0.00000000000E+00 -0.15192221095E+04  0.15192221095E+04  0.00000000000E+00 0. -1.
         25    2    1    2    0    0 -0.53626860561E+02  0.60554206768E+02 -0.93927454534E+03  0.95101342491E+03  0.12508881129E+03 0.  0.
          5    1    3    3  502    0 -0.44654693624E+02  0.98719361959E+02 -0.73680187758E+03  0.74473756001E+03  0.41800000000E+01 0.  1.
         -5    1    3    3    0  502 -0.89721669366E+01 -0.38165155191E+02 -0.20247266776E+03  0.20627586490E+03  0.41800000000E+01 0.  1.
        -11    1    1    2    0    0  0.75405676808E+02 -0.52882767276E+02 -0.44240451797E+03  0.45188976609E+03  0.00000000000E+00 0.  1.
         11    1    1    2    0    0 -0.21778816247E+02 -0.76714394925E+01 -0.12588086866E+03  0.12798109593E+03  0.00000000000E+00 0. -1.
</event>
<event>
 7    1  0.2556591E-009  0.1522325E+03  0.7561462E-02  0.1197756E+00
          1   -1    0    0  501    0  0.00000000000E+00  0.00000000000E+00  0.15259314075E+04  0.15259314075E+04  0.00000000000E+00 0. -1.
         -1   -1    0    0    0  501 -0.00000000000E+00 -0.00000000000E+00 -0.17349224892E+02  0.17349224892E+02  0.00000000000E+00 0.  1.
         25    2    1    2    0    0  0.11262685635E+03 -0.16255362377E+02  0.99457316397E+03  0.10088469630E+04  0.12508945112E+03 0.  0.
          5    1    3    3  502    0  0.68782488324E+02 -0.66298506233E+02  0.71869261303E+03  0.72502625266E+03  0.41800000000E+01 0. -1.
         -5    1    3    3    0  502  0.43844368028E+02  0.50043143856E+02  0.27588055094E+03  0.28382071039E+03  0.41800000000E+01 0. -1.
        -11    1    1    2    0    0 -0.95995567517E+02  0.47255876489E+02  0.32443661910E+03  0.34162462830E+03  0.00000000000E+00 0.  1.
         11    1    1    2    0    0 -0.16631288834E+02 -0.31000514112E+02  0.18957239953E+03  0.19280904104E+03  0.00000000000E+00 0. -1.
</event>
<event>
 7    1  0.2556591E-009  0.9023173E+02  0.7561462E-02  0.1302291E+00
         -4   -1    0    0    0  501 -0.00000000000E+00  0.00000000000E+00  0.16333835402E+03  0.16333835402E+03  0.00000000000E+00 0.  1.
          4   -1    0    0  501    0  0.00000000000E+00 -0.00000000000E+00 -0.73332123279E+02  0.73332123279E+02  0.00000000000E+00 0. -1.
         25    2    1    2    0    0  0.36125613434E+01 -0.18275903993E+02  0.25996873274E+01  0.12649264429E+03  0.12508625592E+03 0.  0.
          5    1    3    3  502    0 -0.95813385697E+01 -0.66644755371E+02 -0.21371139562E+02  0.70763857112E+02  0.41800000000E+01 0. -1.
         -5    1    3    3    0  502  0.13193899913E+02  0.48368851378E+02  0.23970826890E+02  0.55728787178E+02  0.41800000000E+01 0. -1.
        -11    1    1    2    0    0 -0.43046848956E+00 -0.22144350211E+02  0.13665059220E+02  0.26024822629E+02  0.00000000000E+00 0.  1.
         11    1    1    2    0    0 -0.31820928538E+01  0.40420254204E+02  0.73741484191E+02  0.84153010377E+02  0.00000000000E+00 0. -1.
</event>
<event>
 7    1  0.2556591E-009  0.1016482E+03  0.7561462E-02  0.1276868E+00
         -2   -1    0    0    0  501 -0.00000000000E+00  0.00000000000E+00  0.20574071786E+03  0.20574071786E+03  0.00000000000E+00 0.  1.
          2   -1    0    0  501    0  0.00000000000E+00 -0.00000000000E+00 -0.86705431953E+02  0.86705431953E+02  0.00000000000E+00 0. -1.
         25    2    1    2    0    0  0.35781299300E+02 -0.13310388697E+02  0.13969942743E+03  0.19137752089E+03  0.12510778414E+03 0.  0.
          5    1    3    3  502    0  0.15401464324E+02 -0.67290612986E+02  0.52914339611E+02  0.87078306344E+02  0.41800000000E+01 0. -1.
         -5    1    3    3    0  502  0.20379834976E+02  0.53980224289E+02  0.86785087820E+02  0.10429921455E+03  0.41800000000E+01 0. -1.
        -11    1    1    2    0    0  0.13047732269E+00 -0.24292271599E+02 -0.38989011792E+02  0.45937724413E+02  0.00000000000E+00 0. -1.
         11    1    1    2    0    0 -0.35911776623E+02  0.37602660296E+02  0.18324870273E+02  0.55130904510E+02  0.00000000000E+00 0.  1.
</event>
<event>
 7    1  0.2556591E-009  0.1065476E+03  0.7561462E-02  0.1267100E+00
         -4   -1    0    0    0  501 -0.00000000000E+00  0.00000000000E+00  0.35009970530E+03  0.35009970530E+03  0.00000000000E+00 0.  1.
          4   -1    0    0  501    0  0.00000000000E+00 -0.00000000000E+00 -0.40207502982E+02  0.40207502982E+02  0.00000000000E+00 0. -1.
         25    2    1    2    0    0 -0.43615811530E+02  0.18384112329E+02  0.18029289649E+03  0.22448804537E+03  0.12509612060E+03 0.  0.
          5    1    3    3  502    0  0.40359671930E+02 -0.12664712158E+02  0.75048966223E+02  0.86250320483E+02  0.41800000000E+01 0.  1.
         -5    1    3    3    0  502 -0.83975483460E+02  0.31048824487E+02  0.10524393026E+03  0.13823772489E+03  0.41800000000E+01 0.  1.
        -11    1    1    2    0    0 -0.69777749213E+01 -0.28519896655E+02  0.34971100882E+01  0.29568625721E+02  0.00000000000E+00 0. -1.
         11    1    1    2    0    0  0.50593586451E+02  0.10135784326E+02  0.12610219574E+03  0.13625053719E+03  0.00000000000E+00 0.  1.
</event>
<event>
 7    1  0.2556591E-009  0.1052104E+03  0.7561462E-02  0.1269706E+00
         -3   -1    0    0    0  501 -0.00000000000E+00  0.00000000000E+00  0.52245885725E+02  0.52245885725E+02  0.00000000000E+00 0.  1.
          3   -1    0    0  501    0  0.00000000000E+00 -0.00000000000E+00 -0.29422260909E+03  0.29422260909E+03  0.00000000000E+00 0. -1.
         25    2    1    2    0    0 -0.58905386552E+02  0.32046108752E+01 -0.12545478395E+03  0.18672502616E+03  0.12508884237E+03 0.  0.
          5    1    3    3  502    0 -0.17579316063E+02 -0.44932557711E+02 -0.11159582667E+03  0.12165142016E+03  0.41800000000E+01 0.  1.
         -5    1    3    3    0  502 -0.41326070489E+02  0.48137168586E+02 -0.13858957275E+02  0.65073606004E+02  0.41800000000E+01 0.  1.
        -11    1    1    2    0    0 -0.10054997687E+01 -0.31946205881E+02 -0.74644965998E+02  0.81200012616E+02  0.00000000000E+00 0. -1.
         11    1    1    2    0    0  0.59910886320E+02  0.28741595006E+02 -0.41876973416E+02  0.78543456033E+02  0.00000000000E+00 0.  1.
</event>
<event>
 7    1  0.2556591E-009  0.1127421E+03  0.7561462E-02  0.1255575E+00
          1   -1    0    0  501    0  0.00000000000E+00  0.00000000000E+00  0.44262324502E+03  0.44262324502E+03  0.00000000000E+00 0. -1.
         -1   -1    0    0    0  501 -0.00000000000E+00 -0.00000000000E+00 -0.37168383290E+02  0.37168383290E+02  0.00000000000E+00 0.  1.
         25    2    1    2    0    0 -0.22973639044E+01 -0.64719296313E+02  0.17802167231E+03  0.22700895455E+03  0.12508990543E+03 0.  0.
          5    1    3    3  502    0  0.49485787604E+02 -0.26728448700E+02  0.14303822986E+03  0.15375519746E+03  0.41800000000E+01 0. -1.
         -5    1    3    3    0  502 -0.51783151508E+02 -0.37990847613E+02  0.34983442446E+02  0.73253757090E+02  0.41800000000E+01 0. -1.
        -11    1    1    2    0    0  0.74681922023E+01 -0.19223804340E+02  0.19080445400E+02  0.28096119745E+02  0.00000000000E+00 0.  1.
         11    1    1    2    0    0 -0.51708282979E+01  0.83943100653E+02  0.20835274402E+03  0.22468655401E+03  0.00000000000E+00 0. -1.
</event>
<event>
 7    1  0.2556591E-009  0.9982338E+02  0.7561462E-02  0.1280668E+00
         -2   -1    0    0    0  501 -0.00000000000E+00  0.00000000000E+00  0.63421907140E+02  0.63421907140E+02  0.00000000000E+00 0.  1.
          2   -1    0    0  501    0  0.00000000000E+00 -0.00000000000E+00 -0.58837850176E+03  0.58837850176E+03  0.00000000000E+00 0. -1.
         25    2    1    2    0    0  0.76352171396E+02 -0.85870923402E+00 -0.51056657006E+03  0.53118552440E+03  0.12509775144E+03 0.  0.
          5    1    3    3  502    0  0.57038152231E+02  0.22746996995E+02 -0.49070350683E+03  0.49454846142E+03  0.41800000000E+01 0.  1.
         -5    1    3    3    0  502  0.19314019166E+02 -0.23605706229E+02 -0.19863063231E+02  0.36637062980E+02  0.41800000000E+01 0.  1.
        -11    1    1    2    0    0 -0.53618973996E+01  0.30072247262E+02 -0.29398490122E+02  0.42395297151E+02  0.00000000000E+00 0.  1.
         11    1    1    2    0    0 -0.70990273997E+02 -0.29213538028E+02  0.15008465560E+02  0.78219587347E+02  0.00000000000E+00 0. -1.
</event>
<event>
 7    1  0.2556591E-009  0.2206521E+03  0.7561462E-02  0.1133398E+00
         -1   -1    0    0    0  501 -0.00000000000E+00  0.00000000000E+00  0.87174333424E+02  0.87174333424E+02  0.00000000000E+00 0.  1.
          1   -1    0    0  501    0  0.00000000000E+00 -0.00000000000E+00 -0.72467061818E+03  0.72467061818E+03  0.00000000000E+00 0. -1.
         25    2    1    2    0    0 -0.17252386112E+03 -0.91416245804E+02 -0.14294116304E+03  0.27239910997E+03  0.12509071256E+03 0.  0.
          5    1    3    3  502    0 -0.14592099432E+03 -0.12763665038E+02 -0.72786258129E+02  0.16361894603E+03  0.41800000000E+01 0. -1.
         -5    1    3    3    0  502 -0.26602866797E+02 -0.78652580766E+02 -0.70154904914E+02  0.10878016394E+03  0.41800000000E+01 0. -1.
        -11    1    1    2    0    0  0.14460258261E+03  0.10678688055E+03 -0.37726256261E+03  0.41789997117E+03  0.00000000000E+00 0.  1.
         11    1    1    2    0    0  0.27921278508E+02 -0.15370634750E+02 -0.11729255911E+03  0.12154587047E+03  0.00000000000E+00 0. -1.
</event>
<event>
 7    1  0.3193837E-009  0.1165857E+03  0.7561462E-02  0.1248838E+00
          2   -1    0    0  501    0  0.00000000000E+00  0.00000000000E+00  0.87709882205E+03  0.87709882205E+03  0.00000000000E+00 0. -1.
         -2   -1    0    0    0  501 -0.00000000000E+00 -0.00000000000E+00 -0.28638799137E+02  0.28638799137E+02  0.00000000000E+00 0.  1.
         25    2    1    2    0    0  0.46888959767E+02  0.63560375595E+02  0.69479439316E+03  0.71037001860E+03  0.12509124138E+03 0.  0.
          5    1    3    3  502    0 -0.32790722416E+02 -0.51098020623E+01  0.81342180942E+02  0.87950920143E+02  0.41800000000E+01 0.  1.
         -5    1    3    3    0  502  0.79679682182E+02  0.68670177658E+02  0.61345221222E+03  0.62241909846E+03  0.41800000000E+01 0.  1.
        -11    1    1    2    0    0 -0.51896488416E+02 -0.28838377391E+02  0.29412426627E+02  0.66256987259E+02  0.00000000000E+00 0. -1.
         11    1    1    2    0    0  0.50075286497E+01 -0.34721998204E+02  0.12425320312E+03  0.12911061532E+03  0.00000000000E+00 0.  1.
</event>
<event>
 7    1  0.3013208E-009  0.1280970E+03  0.7561462E-02  0.1230307E+00
         -1   -1    0    0    0  501 -0.00000000000E+00  0.00000000000E+00  0.33593284213E+02  0.33593284213E+02  0.00000000000E+00 0.  1.
          1   -1    0    0  501    0  0.00000000000E+00 -0.00000000000E+00 -0.68766270387E+03  0.68766270387E+03  0.00000000000E+00 0. -1.
         25    2    1    2    0    0 -0.27895277343E+02 -0.79999590499E+02 -0.20139641037E+03  0.25176566125E+03  0.12508938043E+03 0.  0.
          5    1    3    3  502    0 -0.88285298497E+01  0.27976142348E+02 -0.10232826755E+02  0.31349491597E+02  0.41800000000E+01 0. -1.
         -5    1    3    3    0  502 -0.19066747494E+02 -0.10797573285E+03 -0.19116358361E+03  0.22041616965E+03  0.41800000000E+01 0. -1.
        -11    1    1    2    0    0 -0.28091993384E+02  0.18332953403E+02 -0.67028366112E+02  0.74953713293E+02  0.00000000000E+00 0.  1.
         11    1    1    2    0    0  0.55987270728E+02  0.61666637097E+02 -0.38564464317E+03  0.39453661354E+03  0.00000000000E+00 0. -1.
</event>
<event>
 7    1  0.2556591E-009  0.1727906E+03  0.7561462E-02  0.1174969E+00
          2   -1    0    0  501    0  0.00000000000E+00  0.00000000000E+00  0.52888164428E+03  0.52888164428E+03  0.00000000000E+00 0.  1.
         -2   -1    0    0    0  501 -0.00000000000E+00 -0.00000000000E+00 -0.66766174919E+02  0.66766174919E+02  0.00000000000E+00 0. -1.
         25    2    1    2    0    0  0.53466088673E+02  0.12496163004E+03  0.14211318792E+03  0.23305957976E+03  0.12508628189E+03 0.  0.
          5    1    3    3  502    0  0.18763941534E+01  0.13000982188E+03  0.11840093487E+03  0.17590431608E+03  0.41800000000E+01 0. -1.
         -5    1    3    3    0  502  0.51589694520E+02 -0.50481918329E+01  0.23712253058E+02  0.57155263682E+02  0.41800000000E+01 0. -1.
        -11    1    1    2    0    0 -0.61471069675E+02 -0.30383409368E+02  0.18712298766E+03  0.19929088410E+03  0.00000000000E+00 0.  1.
         11    1    1    2    0    0  0.80049810022E+01 -0.94578220674E+02  0.13287929377E+03  0.16329735533E+03  0.00000000000E+00 0. -1.
</event>
<event>
 7    1  0.2556591E-009  0.7651007E+02  0.7561462E-02  0.1339258E+00
          2   -1    0    0  501    0  0.00000000000E+00  0.00000000000E+00  0.94674975082E+03  0.94674975082E+03  0.00000000000E+00 0. -1.
         -2   -1    0    0    0  501 -0.00000000000E+00 -0.00000000000E+00 -0.18501609704E+02  0.18501609704E+02  0.00000000000E+00 0.  1.
         25    2    1    2    0    0 -0.14720281563E+01 -0.49646809338E+02  0.73513881152E+03  0.74735750213E+03  0.12508873352E+03 0.  0.
          5    1    3    3  502    0  0.13674962934E+02 -0.47117856220E+02  0.72841945077E+03  0.73008182120E+03  0.41800000000E+01 0.  1.
         -5    1    3    3    0  502 -0.15146991091E+02 -0.25289531188E+01  0.67193607512E+01  0.17275680938E+02  0.41800000000E+01 0.  1.
        -11    1    1    2    0    0 -0.35355641933E+02  0.20257403867E+02  0.37749627206E+02  0.55546540686E+02  0.00000000000E+00 0.  1.
         11    1    1    2    0    0  0.36827670090E+02  0.29389405471E+02  0.15535970239E+03  0.16234731770E+03  0.00000000000E+00 0. -1.
</event>
<event>
 7    1  0.2556591E-009  0.9758274E+02  0.7561462E-02  0.1285463E+00
          1   -1    0    0  501    0  0.00000000000E+00  0.00000000000E+00  0.56943240971E+02  0.56943240971E+02  0.00000000000E+00 0. -1.
         -1   -1    0    0    0  501 -0.00000000000E+00 -0.00000000000E+00 -0.25859093978E+03  0.25859093978E+03  0.00000000000E+00 0.  1.
         25    2    1    2    0    0  0.29267248860E+02 -0.45193414000E+02 -0.98149127494E+02  0.16787002787E+03  0.12509227996E+03 0.  0.
          5    1    3    3  502    0  0.49075867151E+02 -0.49651189976E+02 -0.11927852737E+03  0.13826973962E+03  0.41800000000E+01 0. -1.
         -5    1    3    3    0  502 -0.19808618291E+02  0.44577759755E+01  0.21129399878E+02  0.29600288250E+02  0.41800000000E+01 0. -1.
        -11    1    1    2    0    0 -0.22311587905E+02  0.72741442158E+02 -0.83205669947E+02  0.11274887083E+03  0.00000000000E+00 0.  1.
         11    1    1    2    0    0 -0.69556609549E+01 -0.27548028158E+02 -0.20292901365E+02  0.34915282048E+02  0.00000000000E+00 0. -1.
</event>
<event>
 7    1  0.2556591E-009  0.6316567E+02  0.7561462E-02  0.1385007E+00
          3   -1    0    0  501    0  0.00000000000E+00  0.00000000000E+00  0.21469224068E+03  0.21469224068E+03  0.00000000000E+00 0. -1.
         -3   -1    0    0    0  501 -0.00000000000E+00 -0.00000000000E+00 -0.79571078443E+02  0.79571078443E+02  0.00000000000E+00 0.  1.
         25    2    1    2    0    0 -0.16873525422E+02  0.24402581079E+02  0.14660085655E+03  0.19498273038E+03  0.12508497983E+03 0.  0.
          5    1    3    3  502    0 -0.14648679037E+02  0.87943582110E+01 -0.20543168359E+02  0.27044753652E+02  0.41800000000E+01 0. -1.
         -5    1    3    3    0  502 -0.22248463857E+01  0.15608222868E+02  0.16714402491E+03  0.16793797672E+03  0.41800000000E+01 0. -1.
        -11    1    1    2    0    0 -0.34019458749E+02  0.38251994889E+01  0.12350476614E+02  0.36393543346E+02  0.00000000000E+00 0. -1.
         11    1    1    2    0    0  0.50892984171E+02 -0.28227780568E+02 -0.23830170926E+02  0.62887045407E+02  0.00000000000E+00 0.  1.
</event>
<event>
 7    1  0.2556591E-009  0.1074145E+03  0.7561462E-02  0.1265434E+00
          2   -1    0    0  501    0  0.00000000000E+00  0.00000000000E+00  0.79391290443E+03  0.79391290443E+03  0.00000000000E+00 0. -1.
         -2   -1    0    0    0  501 -0.00000000000E+00 -0.00000000000E+00 -0.30746243352E+02  0.30746243352E+02  0.00000000000E+00 0.  1.
         25    2    1    2    0    0  0.61799370328E+02 -0.76794687127E+01  0.16476095998E+03  0.21603690188E+03  0.12509049774E+03 0.  0.
          5    1    3    3  502    0  0.22438001345E+02  0.37384656742E+02  0.14714191449E+03  0.15352293596E+03  0.41800000000E+01 0. -1.
         -5    1    3    3    0  502  0.39361368983E+02 -0.45064125454E+02  0.17619045490E+02  0.62513965921E+02  0.41800000000E+01 0. -1.
        -11    1    1    2    0    0 -0.77517010472E+02 -0.19246159704E+02  0.43043394242E+03  0.43778154411E+03  0.00000000000E+00 0. -1.
         11    1    1    2    0    0  0.15717640144E+02  0.26925628417E+02  0.16797175867E+03  0.17084070179E+03  0.00000000000E+00 0.  1.
</event>
<event>
 7    1  0.2556591E-009  0.3197416E+03  0.7561462E-02  0.1075768E+00
          1   -1    0    0  501    0  0.00000000000E+00  0.00000000000E+00  0.55510891497E+03  0.55510891497E+03  0.00000000000E+00 0. -1.
         -1   -1    0    0    0  501 -0.00000000000E+00 -0.00000000000E+00 -0.24416140374E+03  0.24416140374E+03  0.00000000000E+00 0.  1.
         25    2    1    2    0    0 -0.10956450783E+03  0.29139890523E+03 -0.19249188681E+02  0.33605819742E+03  0.12508747917E+03 0.  0.
          5    1    3    3  502    0 -0.83003596454E+02  0.80983870261E+02  0.26561606647E+02  0.11904190697E+03  0.41800000000E+01 0. -1.
         -5    1    3    3    0  502 -0.26560911374E+02  0.21041503496E+03 -0.45810795328E+02  0.21701629045E+03  0.41800000000E+01 0. -1.
        -11    1    1    2    0    0  0.67379345679E+02 -0.17850340167E+03  0.26394026563E+03  0.32568067866E+03  0.00000000000E+00 0. -1.
         11    1    1    2    0    0  0.42185162149E+02 -0.11289550356E+03  0.66256434282E+02  0.13753144263E+03  0.00000000000E+00 0.  1.
</event>
<event>
 7    1  0.2556591E-009  0.2129091E+03  0.7561462E-02  0.1139283E+00
         -2   -1    0    0    0  501 -0.00000000000E+00  0.00000000000E+00  0.57591585314E+02  0.57591585314E+02  0.00000000000E+00 0.  1.
          2   -1    0    0  501    0  0.00000000000E+00 -0.00000000000E+00 -0.95551699745E+03  0.95551699745E+03  0.00000000000E+00 0. -1.
         25    2    1    2    0    0  0.55465771672E+01 -0.19472703923E+03 -0.61984423489E+03  0.66166761669E+03  0.12509106734E+03 0.  0.
          5    1    3    3  502    0 -0.36443280362E+02 -0.23117062729E+02 -0.22412586520E+03  0.22828137709E+03  0.41800000000E+01 0.  1.
         -5    1    3    3    0  502  0.41989857529E+02 -0.17160997650E+03 -0.39571836968E+03  0.43338623960E+03  0.41800000000E+01 0.  1.
        -11    1    1    2    0    0  0.29435540064E+02  0.11435323668E+03 -0.20813487900E+03  0.23929739157E+03  0.00000000000E+00 0.  1.
         11    1    1    2    0    0 -0.34982117231E+02  0.80373802550E+02 -0.69946298251E+02  0.11214357450E+03  0.00000000000E+00 0. -1.
</event>
<event>
 7    1  0.2556591E-009  0.1005416E+03  0.7561462E-02  0.1279161E+00
         -4   -1    0    0    0  501 -0.00000000000E+00  0.00000000000E+00  0.25188715498E+03  0.25188715498E+03  0.00000000000E+00 0. -1.
          4   -1    0    0  501    0  0.00000000000E+00 -0.00000000000E+00 -0.68456241346E+02  0.68456241346E+02  0.00000000000E+00 0.  1.
         25    2    1    2    0    0 -0.10669375001E+02 -0.25022446998E+02  0.17478162510E+03  0.21664706955E+03  0.12508947940E+03 0.  0.
          5    1    3    3  502    0  0.12822082560E+01 -0.70676338789E+02  0.14307451677E+03  0.15963890087E+03  0.41800000000E+01 0. -1.
         -5    1    3    3    0  502 -0.11951583257E+02  0.45653891790E+02  0.31707108327E+02  0.57008168681E+02  0.41800000000E+01 0. -1.
        -11    1    1    2    0    0 -0.20483393841E+02  0.42496704669E+02 -0.26056599861E+02  0.53893280911E+02  0.00000000000E+00 0.  1.
         11    1    1    2    0    0  0.31152768842E+02 -0.17474257671E+02  0.34705888400E+02  0.49803045864E+02  0.00000000000E+00 0. -1.
</event>
<event>
 7    1  0.2616848E-009  0.2082479E+03  0.7561462E-02  0.1142961E+00
         -2   -1    0    0    0  501 -0.00000000000E+00  0.00000000000E+00  0.48526547545E+03  0.48526547545E+03  0.00000000000E+00 0.  1.
          2   -1    0    0  501    0  0.00000000000E+00 -0.00000000000E+00 -0.94976759311E+02  0.94976759311E+02  0.00000000000E+00 0. -1.
         25    2    1    2    0    0 -0.10399346621E+03  0.15121458123E+03  0.23472568775E+03  0.32314760233E+03  0.12509090220E+03 0.  0.
          5    1    3    3  502    0 -0.10235848716E+03  0.17088626824E+03  0.19603276115E+03  0.27950973581E+03  0.41800000000E+01 0.  1.
         -5    1    3    3    0  502 -0.16349790468E+01 -0.19671687010E+02  0.38692926595E+02  0.43637866524E+02  0.41800000000E+01 0.  1.
        -11    1    1    2    0    0  0.24725997406E+02 -0.99278642205E+02  0.11524760667E+03  0.15410916452E+03  0.00000000000E+00 0.  1.
         11    1    1    2    0    0  0.79267468800E+02 -0.51935939023E+02  0.40315421726E+02  0.10298546791E+03  0.00000000000E+00 0. -1.
</event>
<event>
 7    1  0.2556591E-009  0.1403086E+03  0.7561462E-02  0.1212914E+00
         -2   -1    0    0    0  501 -0.00000000000E+00  0.00000000000E+00  0.15126136285E+03  0.15126136285E+03  0.00000000000E+00 0.  1.
          2   -1    0    0  501    0  0.00000000000E+00 -0.00000000000E+00 -0.18237304005E+03  0.18237304005E+03  0.00000000000E+00 0. -1.
         25    2    1    2    0    0 -0.51074516553E+02  0.11769466030E+03 -0.19520328981E+01  0.17919950481E+03  0.12509201728E+03 0.  0.
          5    1    3    3  502    0 -0.53397624664E+02  0.95028364828E+02 -0.54376425770E+02  0.12188504634E+03  0.41800000000E+01 0.  1.
         -5    1    3    3    0  502  0.23231081108E+01  0.22666295477E+02  0.52424392872E+02  0.57314458472E+02  0.41800000000E+01 0.  1.
        -11    1    1    2    0    0  0.34528002106E+02 -0.12543548211E+03 -0.14295596919E+02  0.13088394552E+03  0.00000000000E+00 0.  1.
         11    1    1    2    0    0  0.16546514447E+02  0.77408218099E+01 -0.14864047385E+02  0.23550952577E+02  0.00000000000E+00 0. -1.
</event>
<event>
 7    1  0.2556591E-009  0.3374822E+03  0.7561462E-02  0.1067873E+00
          2   -1    0    0  501    0  0.00000000000E+00  0.00000000000E+00  0.74191160321E+03  0.74191160321E+03  0.00000000000E+00 0. -1.
         -2   -1    0    0    0  501 -0.00000000000E+00 -0.00000000000E+00 -0.15622221158E+03  0.15622221158E+03  0.00000000000E+00 0.  1.
         25    2    1    2    0    0 -0.20355276029E+03 -0.24833120924E+03  0.25725368077E+03  0.43003463075E+03  0.12509281224E+03 0.  0.
          5    1    3    3  502    0 -0.21930299427E+03 -0.22282875017E+03  0.22143082225E+03  0.38313905653E+03  0.41800000000E+01 0.  1.
         -5    1    3    3    0  502  0.15750233979E+02 -0.25502459071E+02  0.35822858522E+02  0.46895574224E+02  0.41800000000E+01 0.  1.
        -11    1    1    2    0    0  0.60765354048E+02  0.14056663970E+03  0.17376753952E+03  0.23161728398E+03  0.00000000000E+00 0. -1.
         11    1    1    2    0    0  0.14278740624E+03  0.10776456953E+03  0.15466817134E+03  0.23648190005E+03  0.00000000000E+00 0.  1.
</event>
<event>
 7    1  0.2556591E-009  0.9652976E+02  0.7561462E-02  0.1287767E+00
          2   -1    0    0  501    0  0.00000000000E+00  0.00000000000E+00  0.97807215385E+02  0.97807215385E+02  0.00000000000E+00 0. -1.
         -2   -1    0    0    0  501 -0.00000000000E+00 -0.00000000000E+00 -0.13713460365E+03  0.13713460365E+03  0.00000000000E+00 0.  1.
         25    2    1    2    0    0  0.27103721147E+02 -0.47803622904E+01  0.22740635252E+02  0.13008092617E+03  0.12508575977E+03 0.  0.
          5    1    3    3  502    0  0.15352801408E+02  0.52635847272E+02 -0.18811876871E+02  0.58117123471E+02  0.41800000000E+01 0. -1.
         -5    1    3    3    0  502  0.11750919739E+02 -0.57416209562E+02  0.41552512123E+02  0.71963802699E+02  0.41800000000E+01 0. -1.
        -11    1    1    2    0    0 -0.18687447777E+02  0.39443132661E+02 -0.51812509974E+02  0.67745978540E+02  0.00000000000E+00 0. -1.
         11    1    1    2    0    0 -0.84162733701E+01 -0.34662770371E+02 -0.10255513541E+02  0.37114914323E+02  0.00000000000E+00 0.  1.
</event>
<event>
 7    1  0.2556591E-009  0.8970287E+02  0.7561462E-02  0.1303573E+00
          2   -1    0    0  501    0  0.00000000000E+00  0.00000000000E+00  0.47191969140E+03  0.47191969140E+03  0.00000000000E+00 0. -1.
         -2   -1    0    0    0  501 -0.00000000000E+00 -0.00000000000E+00 -0.41504056434E+02  0.41504056434E+02  0.00000000000E+00 0.  1.
         25    2    1    2    0    0  0.64270966224E+02 -0.61467266544E+02  0.25492373989E+03  0.29756115764E+03  0.12509015716E+03 0.  0.
          5    1    3    3  502    0  0.24837751629E+02 -0.16206558487E+02  0.23079335100E+03  0.23272861816E+03  0.41800000000E+01 0.  1.
         -5    1    3    3    0  502  0.39433214595E+02 -0.45260708057E+02  0.24130388892E+02  0.64832539479E+02  0.41800000000E+01 0.  1.
        -11    1    1    2    0    0 -0.35381254700E+02  0.28389459048E+02  0.16443090332E+03  0.17057349306E+03  0.00000000000E+00 0. -1.
         11    1    1    2    0    0 -0.28889711524E+02  0.33077807496E+02  0.11060991755E+02  0.45289097135E+02  0.00000000000E+00 0.  1.
</event>
<event>
 7    1  0.2556591E-009  0.1158909E+03  0.7561462E-02  0.1250034E+00
         -2   -1    0    0    0  501 -0.00000000000E+00  0.00000000000E+00  0.16151886090E+03  0.16151886090E+03  0.00000000000E+00 0.  1.
          2   -1    0    0  501    0  0.00000000000E+00 -0.00000000000E+00 -0.15022857084E+03  0.15022857084E+03  0.00000000000E+00 0. -1.
         25    2    1    2    0    0  0.11237698265E+02 -0.75901836474E+02 -0.59456606858E+02  0.15833284278E+03  0.12508727498E+03 0.  0.
          5    1    3    3  502    0 -0.36298790924E+02  0.18507108021E+02 -0.16136530663E+02  0.44022440774E+02  0.41800000000E+01 0. -1.
         -5    1    3    3    0  502  0.47536489189E+02 -0.94408944495E+02 -0.43320076195E+02  0.11431040201E+03  0.41800000000E+01 0. -1.
        -11    1    1    2    0    0  0.83722794056E-01  0.73457120607E+02  0.98770537225E+02  0.12309173246E+03  0.00000000000E+00 0.  1.
         11    1    1    2    0    0 -0.11321421059E+02  0.24447158667E+01 -0.28023640307E+02  0.30322856503E+02  0.00000000000E+00 0. -1.
</event>
<event>
 7    1  0.2556591E-009  0.1604312E+03  0.7561462E-02  0.1188211E+00
         -1   -1    0    0    0  501 -0.00000000000E+00  0.00000000000E+00  0.48412244817E+03  0.48412244817E+03  0.00000000000E+00 0.  1.
          1   -1    0    0  501    0  0.00000000000E+00 -0.00000000000E+00 -0.67943347932E+02  0.67943347932E+02  0.00000000000E+00 0. -1.
         25    2    1    2    0    0 -0.59885778043E+02 -0.10974012842E+03  0.33176308127E+03  0.37595366616E+03  0.12508083309E+03 0.  0.
          5    1    3    3  502    0 -0.80750669794E+02 -0.22844271709E+02  0.12443291461E+03  0.15014511002E+03  0.41800000000E+01 0.  1.
         -5    1    3    3    0  502  0.20864891752E+02 -0.86895856708E+02  0.20733016666E+03  0.22580855614E+03  0.41800000000E+01 0.  1.
        -11    1    1    2    0    0  0.78611776576E+02  0.79479048294E+02  0.85139118317E+02  0.14051832621E+03  0.00000000000E+00 0.  1.
         11    1    1    2    0    0 -0.18725998534E+02  0.30261080123E+02 -0.72309935057E+00  0.35593803730E+02  0.00000000000E+00 0. -1.
</event>
<event>
 7    1  0.2556591E-009  0.1060034E+03  0.7561462E-02  0.1268155E+00
          2   -1    0    0  501    0  0.00000000000E+00  0.00000000000E+00  0.49505150448E+02  0.49505150448E+02  0.00000000000E+00 0. -1.
         -2   -1    0    0    0  501 -0.00000000000E+00 -0.00000000000E+00 -0.26321479159E+03  0.26321479159E+03  0.00000000000E+00 0.  1.
         25    2    1    2    0    0  0.27367648135E+02 -0.21220777741E+02 -0.11340514597E+03  0.17235068090E+03  0.12507885713E+03 0.  0.
          5    1    3    3  502    0  0.27734266919E+02  0.46878375893E+02 -0.78703957771E+02  0.95804786189E+02  0.41800000000E+01 0.  1.
         -5    1    3    3    0  502 -0.36661878316E+00 -0.68099153634E+02 -0.34701188202E+02  0.76545894714E+02  0.41800000000E+01 0.  1.
        -11    1    1    2    0    0  0.28126143244E+02  0.18349127824E+02 -0.68634704773E+02  0.76410032881E+02  0.00000000000E+00 0.  1.
         11    1    1    2    0    0 -0.55493791379E+02  0.28716499169E+01 -0.31669790393E+02  0.63959228251E+02  0.00000000000E+00 0. -1.
</event>
<event>
 7    1  0.2556591E-009  0.1911600E+03  0.7561462E-02  0.1157419E+00
         -2   -1    0    0    0  501 -0.00000000000E+00  0.00000000000E+00  0.22466745186E+02  0.22466745186E+02  0.00000000000E+00 0.  1.
          2   -1    0    0  501    0  0.00000000000E+00 -0.00000000000E+00 -0.20676754306E+04  0.20676754306E+04  0.00000000000E+00 0. -1.
         25    2    1    2    0    0 -0.14631959562E+03  0.10495621396E+03 -0.12679328769E+04  0.12867508496E+04  0.12509491448E+03 0.  0.
          5    1    3    3  502    0 -0.15007551736E+02  0.29460519274E+02 -0.63725281402E+03  0.63812363236E+03  0.41800000000E+01 0. -1.
         -5    1    3    3    0  502 -0.13131204388E+03  0.75495694687E+02 -0.63068006291E+03  0.64862721724E+03  0.41800000000E+01 0. -1.
        -11    1    1    2    0    0  0.34114840025E+02 -0.73353520844E+02 -0.22925883779E+03  0.24311350443E+03  0.00000000000E+00 0.  1.
         11    1    1    2    0    0  0.11220475559E+03 -0.31602693117E+02 -0.54801697069E+03  0.56027782176E+03  0.00000000000E+00 0. -1.
</event>
<event>
 7    1  0.2581488E-009  0.1158401E+03  0.7561462E-02  0.1250122E+00
         -1   -1    0    0    0  501 -0.00000000000E+00  0.00000000000E+00  0.32853977472E+02  0.32853977472E+02  0.00000000000E+00 0. -1.
          1   -1    0    0  501    0  0.00000000000E+00 -0.00000000000E+00 -0.70589656018E+03  0.70589656018E+03  0.00000000000E+00 0.  1.
         25    2    1    2    0    0  0.44891943094E+02 -0.76793816771E+02 -0.50541293728E+03  0.52820788963E+03  0.12509500651E+03 0.  0.
          5    1    3    3  502    0  0.80448316138E+02 -0.60085436182E+02 -0.44364705148E+03  0.45488720569E+03  0.41800000000E+01 0.  1.
         -5    1    3    3    0  502 -0.35556373044E+02 -0.16708380590E+02 -0.61765885801E+02  0.73320683949E+02  0.41800000000E+01 0.  1.
        -11    1    1    2    0    0 -0.38175230084E+02  0.44233259179E+02 -0.24084958191E+02  0.63198216910E+02  0.00000000000E+00 0. -1.
         11    1    1    2    0    0 -0.67167130102E+01  0.32560557592E+02 -0.14354468723E+03  0.14734443110E+03  0.00000000000E+00 0.  1.
</event>
<event>
 7    1  0.2556591E-009  0.9093918E+02  0.7561462E-02  0.1300593E+00
          1   -1    0    0  501    0  0.00000000000E+00  0.00000000000E+00  0.73606614925E+03  0.73606614925E+03  0.00000000000E+00 0. -1.
         -1   -1    0    0    0  501 -0.00000000000E+00 -0.00000000000E+00 -0.21395844525E+02  0.21395844525E+02  0.00000000000E+00 0.  1.
         25    2    1    2    0    0  0.89754029146E+00 -0.35816818523E+02  0.55982740798E+03  0.57475052279E+03  0.12509111340E+03 0.  0.
          5    1    3    3  502    0  0.52470136206E+02 -0.10134321926E+02  0.42079711140E+03  0.42419747882E+03  0.41800000000E+01 0. -1.
         -5    1    3    3    0  502 -0.51572595915E+02 -0.25682496597E+02  0.13903029658E+03  0.15055304397E+03  0.41800000000E+01 0. -1.
        -11    1    1    2    0    0  0.13051808625E+02 -0.13785432986E+02 -0.55684974703E+00  0.18992049722E+02  0.00000000000E+00 0. -1.
         11    1    1    2    0    0 -0.13949348916E+02  0.49602251509E+02  0.15539974649E+03  0.16371942126E+03  0.00000000000E+00 0.  1.
</event>
<event>
 7    1  0.2556591E-009  0.8948316E+02  0.7561462E-02  0.1304108E+00
         -2   -1    0    0    0  501 -0.00000000000E+00  0.00000000000E+00  0.87881301690E+02  0.87881301690E+02  0.00000000000E+00 0.  1.
          2   -1    0    0  501    0  0.00000000000E+00 -0.00000000000E+00 -0.15332700273E+03  0.15332700273E+03  0.00000000000E+00 0. -1.
         25    2    1    2    0    0 -0.14996050870E+01  0.27631639655E+02 -0.27616607955E+01  0.12814941776E+03  0.12509552421E+03 0.  0.
          5    1    3    3  502    0 -0.44601270671E+02  0.13216322947E+02  0.43023762537E+02  0.63501662029E+02  0.41800000000E+01 0.  1.
         -5    1    3    3    0  502  0.43101665584E+02  0.14415316708E+02 -0.45785423332E+02  0.64647755735E+02  0.41800000000E+01 0.  1.
        -11    1    1    2    0    0 -0.36017627826E+01 -0.56848058532E+02 -0.60839143293E+02  0.83343120955E+02  0.00000000000E+00 0. -1.
         11    1    1    2    0    0  0.51013678696E+01  0.29216418877E+02 -0.18448969471E+01  0.29715765696E+02  0.00000000000E+00 0.  1.
</event>
<event>
 7    1  0.2556591E-009  0.9777862E+02  0.7561462E-02  0.1285038E+00
         -3   -1    0    0    0  501 -0.00000000000E+00  0.00000000000E+00  0.43063652260E+03  0.43063652260E+03  0.00000000000E+00 0.  1.
          3   -1    0    0  501    0  0.00000000000E+00 -0.00000000000E+00 -0.37802205942E+02  0.37802205942E+02  0.00000000000E+00 0. -1.
         25    2    1    2    0    0  0.14431926488E+02 -0.23267938984E+02  0.32598880618E+03  0.35023737286E+03  0.12509131907E+03 0.  0.
          5    1    3    3  502    0  0.57965059357E+02  0.34017084523E+01  0.79809672990E+02  0.98785505159E+02  0.41800000000E+01 0. -1.
         -5    1    3    3    0  502 -0.43533132869E+02 -0.26669647436E+02  0.24617913319E+03  0.25145186770E+03  0.41800000000E+01 0. -1.
        -11    1    1    2    0    0 -0.43684418384E+02  0.33582255602E+02  0.13880333218E+02  0.56822178338E+02  0.00000000000E+00 0. -1.
         11    1    1    2    0    0  0.29252491896E+02 -0.10314316618E+02  0.52965177258E+02  0.61379177344E+02  0.00000000000E+00 0.  1.
</event>
<event>
 7    1  0.2556591E-009  0.2225556E+03  0.7561462E-02  0.1131992E+00
         -2   -1    0    0    0  501 -0.00000000000E+00  0.00000000000E+00  0.30756255788E+03  0.30756255788E+03  0.00000000000E+00 0.  1.
          2   -1    0    0  501    0  0.00000000000E+00 -0.00000000000E+00 -0.32418219528E+03  0.32418219528E+03  0.00000000000E+00 0. -1.
         25    2    1    2    0    0  0.19383065734E+03  0.81762754133E+02  0.19930063709E+03  0.31563287430E+03  0.12509154932E+03 0.  0.
          5    1    3    3  502    0  0.17153043582E+03  0.24764401300E+02  0.10359815127E+03  0.20195547859E+03  0.41800000000E+01 0.  1.
         -5    1    3    3    0  502  0.22300221516E+02  0.56998352833E+02  0.95702485816E+02  0.11367739572E+03  0.41800000000E+01 0.  1.
        -11    1    1    2    0    0 -0.81161608711E+02 -0.32212122035E+02 -0.28432797616E+02  0.91832736619E+02  0.00000000000E+00 0.  1.
         11    1    1    2    0    0 -0.11266904862E+03 -0.49550632098E+02 -0.18748747687E+03  0.22427914224E+03  0.00000000000E+00 0. -1.
</event>
<event>
 7    1  0.2556591E-009  0.7372230E+02  0.7561462E-02  0.1347874E+00
          2   -1    0    0  501    0  0.00000000000E+00  0.00000000000E+00  0.31378869897E+03  0.31378869897E+03  0.00000000000E+00 0. -1.
         -2   -1    0    0    0  501 -0.00000000000E+00 -0.00000000000E+00 -0.41294964536E+02  0.41294964536E+02  0.00000000000E+00 0.  1.
         25    2    1    2    0    0  0.11411239795E+02 -0.14841399066E+02  0.11517121981E+03  0.17106144802E+03  0.12508847111E+03 0.  0.
          5    1    3    3  502    0 -0.95370856881E+01 -0.28139540933E+02 -0.18362738772E+02  0.35177440818E+02  0.41800000000E+01 0. -1.
         -5    1    3    3    0  502  0.20948325483E+02  0.13298141867E+02  0.13353395858E+03  0.13588400720E+03  0.41800000000E+01 0. -1.
        -11    1    1    2    0    0  0.11718885136E+02  0.49356769699E+02  0.10944423024E+03  0.12062944299E+03  0.00000000000E+00 0.  1.
         11    1    1    2    0    0 -0.23130124931E+02 -0.34515370633E+02  0.47878284383E+02  0.63392772496E+02  0.00000000000E+00 0. -1.
</event>
<event>
 7    1  0.2556591E-009  0.1457021E+03  0.7561462E-02  0.1205856E+00
          2   -1    0    0  501    0  0.00000000000E+00  0.00000000000E+00  0.11055876073E+03  0.11055876073E+03  0.00000000000E+00 0. -1.
         -2   -1    0    0    0  501 -0.00000000000E+00 -0.00000000000E+00 -0.22648656979E+03  0.22648656979E+03  0.00000000000E+00 0.  1.
         25    2    1    2    0    0 -0.93139038169E+02 -0.50754278795E+02 -0.12838801729E+02  0.16450872630E+03  0.12508960370E+03 0.  0.
          5    1    3    3  502    0  0.27837140466E-02  0.32890105206E+02  0.14688728937E+02  0.36262793411E+02  0.41800000000E+01 0. -1.
         -5    1    3    3    0  502 -0.93141821883E+02 -0.83644384001E+02 -0.27527530665E+02  0.12824593289E+03  0.41800000000E+01 0. -1.
        -11    1    1    2    0    0 -0.47266506891E+01  0.33237291622E+02 -0.48876317767E+02  0.59295473854E+02  0.00000000000E+00 0.  1.
         11    1    1    2    0    0  0.97865688858E+02  0.17516987173E+02 -0.54212689566E+02  0.11324113036E+03  0.00000000000E+00 0. -1.
</event>
<event>
 7    1  0.2556591E-009  0.1091425E+03  0.7561462E-02  0.1262166E+00
          2   -1    0    0  501    0  0.00000000000E+00  0.00000000000E+00  0.35753900670E+02  0.35753900670E+02  0.00000000000E+00 0. -1.
         -2   -1    0    0    0  501 -0.00000000000E+00 -0.00000000000E+00 -0.65835011336E+03  0.65835011336E+03  0.00000000000E+00 0.  1.
         25    2    1    2    0    0 -0.63119364771E+02  0.60004571578E+02 -0.19047313896E+03  0.24395103938E+03  0.12508992818E+03 0.  0.
          5    1    3    3  502    0  0.19763713440E+02  0.32888728233E+02 -0.49522619656E+01  0.38913623736E+02  0.41800000000E+01 0.  1.
         -5    1    3    3    0  502 -0.82883078211E+02  0.27115843345E+02 -0.18552087699E+03  0.20503741564E+03  0.41800000000E+01 0.  1.
        -11    1    1    2    0    0  0.61891939841E+02 -0.43070784178E+02 -0.42517256441E+03  0.43180714931E+03  0.00000000000E+00 0.  1.
         11    1    1    2    0    0  0.12274249303E+01 -0.16933787400E+02 -0.69505093265E+01  0.18345825344E+02  0.00000000000E+00 0. -1.
</event>
<event>
 7    1  0.2556591E-009  0.9447648E+02  0.7561462E-02  0.1292360E+00
         -1   -1    0    0    0  501 -0.00000000000E+00  0.00000000000E+00  0.19888717715E+02  0.19888717715E+02  0.00000000000E+00 0.  1.
          1   -1    0    0  501    0  0.00000000000E+00 -0.00000000000E+00 -0.62905542169E+03  0.62905542169E+03  0.00000000000E+00 0. -1.
         25    2    1    2    0    0 -0.19675356748E+02 -0.25346927837E+02 -0.35361205516E+03  0.37645517906E+03  0.12508968730E+03 0.  0.
          5    1    3    3  502    0 -0.62609305988E+02 -0.27859537287E+02 -0.11478209270E+03  0.13374782323E+03  0.41800000000E+01 0. -1.
         -5    1    3    3    0  502  0.42933949241E+02  0.25126094496E+01 -0.23882996246E+03  0.24270735583E+03  0.41800000000E+01 0. -1.
        -11    1    1    2    0    0  0.46133494233E+02  0.13274397251E+02 -0.22593517687E+03  0.23097881518E+03  0.00000000000E+00 0.  1.
         11    1    1    2    0    0 -0.26458137485E+02  0.12072530586E+02 -0.29619471939E+02  0.41510145168E+02  0.00000000000E+00 0. -1.
</event>
<event>
 7    1  0.2556591E-009  0.1701159E+03  0.7561462E-02  0.1177727E+00
         -1   -1    0    0    0  501 -0.00000000000E+00  0.00000000000E+00  0.28233427935E+03  0.28233427935E+03  0.00000000000E+00 0.  1.
          1   -1    0    0  501    0  0.00000000000E+00 -0.00000000000E+00 -0.11903872529E+03  0.11903872529E+03  0.00000000000E+00 0. -1.
         25    2    1    2    0    0  0.18424910428E+02 -0.14259577067E+03  0.12437228090E+03  0.22756750550E+03  0.12508186985E+03 0.  0.
          5    1    3    3  502    0  0.23355378920E+02  0.17611175073E+02  0.12633820828E+02  0.32135852886E+02  0.41800000000E+01 0.  1.
         -5    1    3    3    0  502 -0.49304684925E+01 -0.16020694574E+03  0.11173846008E+03  0.19543165262E+03  0.41800000000E+01 0.  1.
        -11    1    1    2    0    0  0.13186117679E+02  0.21753902678E+02 -0.23086243526E+02  0.34352301543E+02  0.00000000000E+00 0. -1.
         11    1    1    2    0    0 -0.31611028107E+02  0.12084186799E+03  0.62009516681E+02  0.13945319759E+03  0.00000000000E+00 0.  1.
</event>
<event>
 7    1  0.2556591E-009  0.1594284E+03  0.7561462E-02  0.1189344E+00
         -1   -1    0    0    0  501 -0.00000000000E+00  0.00000000000E+00  0.21549652588E+03  0.21549652588E+03  0.00000000000E+00 0. -1.
          1   -1    0    0  501    0  0.00000000000E+00 -0.00000000000E+00 -0.12171312135E+03  0.12171312135E+03  0.00000000000E+00 0.  1.
         25    2    1    2    0    0 -0.62959989846E+02  0.10157478710E+03  0.55128072273E+02  0.18157036415E+03  0.12508914857E+03 0.  0.
          5    1    3    3  502    0 -0.87974738201E+02  0.11060155883E+03  0.61056341650E+02  0.15400522275E+03  0.41800000000E+01 0. -1.
         -5    1    3    3    0  502  0.25014748354E+02 -0.90267717254E+01 -0.59282693770E+01  0.27565141408E+02  0.41800000000E+01 0. -1.
        -11    1    1    2    0    0 -0.11045384644E+00 -0.85453181816E+02  0.17855205254E+02  0.87298721853E+02  0.00000000000E+00 0.  1.
         11    1    1    2    0    0  0.63070443693E+02 -0.16121605289E+02  0.20800127005E+02  0.68340561222E+02  0.00000000000E+00 0. -1.
</event>
<event>
 7    1  0.2556591E-009  0.1038331E+03  0.7561462E-02  0.1272436E+00
         -2   -1    0    0    0  501 -0.00000000000E+00  0.00000000000E+00  0.48353451257E+02  0.48353451257E+02  0.00000000000E+00 0.  1.
          2   -1    0    0  501    0  0.00000000000E+00 -0.00000000000E+00 -0.36705613426E+03  0.36705613426E+03  0.00000000000E+00 0. -1.
         25    2    1    2    0    0  0.34128710254E+02  0.67645787558E+02 -0.19985204806E+03  0.24764715717E+03  0.12509017508E+03 0.  0.
          5    1    3    3  502    0 -0.27982699787E+02  0.50893251343E+02 -0.16367295070E+03  0.17372236963E+03  0.41800000000E+01 0.  1.
         -5    1    3    3    0  502  0.62111410040E+02  0.16752536216E+02 -0.36179097362E+02  0.73924787540E+02  0.41800000000E+01 0.  1.
        -11    1    1    2    0    0 -0.38103375981E+02 -0.33928318484E+02 -0.12337817339E+03  0.13351094235E+03  0.00000000000E+00 0. -1.
         11    1    1    2    0    0  0.39746657271E+01 -0.33717469074E+02  0.45275384565E+01  0.34251485995E+02  0.00000000000E+00 0.  1.
</event>
<event>
 7    1  0.2556591E-009  0.7152652E+02  0.7561462E-02  0.1354978E+00
          1   -1    0    0  501    0  0.00000000000E+00  0.00000000000E+00  0.97541088292E+02  0.97541088292E+02  0.00000000000E+00 0. -1.
         -1   -1    0    0    0  501 -0.00000000000E+00 -0.00000000000E+00 -0.12625787505E+03  0.12625787505E+03  0.00000000000E+00 0.  1.
         25    2    1    2    0    0  0.11423337643E+02 -0.20096953554E+02 -0.34823938237E+01  0.12725670647E+03  0.12509101522E+03 0.  0.
          5    1    3    3  502    0  0.18913240995E+02 -0.39432713758E+02  0.51884785163E+02  0.67986417251E+02  0.41800000000E+01 0. -1.
         -5    1    3    3    0  502 -0.74899033521E+01  0.19335760204E+02 -0.55367178987E+02  0.59270289216E+02  0.41800000000E+01 0. -1.
        -11    1    1    2    0    0  0.27853572144E+02 -0.87940042453E+01 -0.36251799392E+02  0.46554795145E+02  0.00000000000E+00 0.  1.
         11    1    1    2    0    0 -0.39276909787E+02  0.28890957799E+02  0.11017406458E+02  0.49987461728E+02  0.00000000000E+00 0. -1.
</event>
<event>
 7    1  0.2556591E-009  0.8531080E+02  0.7561462E-02  0.1314622E+00
         -3   -1    0    0    0  501 -0.00000000000E+00  0.00000000000E+00  0.43924515298E+03  0.43924515298E+03  0.00000000000E+00 0.  1.
          3   -1    0    0  501    0  0.00000000000E+00 -0.00000000000E+00 -0.49706222765E+02  0.49706222765E+02  0.00000000000E+00 0. -1.
         25    2    1    2    0    0 -0.42223879828E+02  0.57415039576E+01  0.61711707689E+02  0.14584731040E+03  0.12508909701E+03 0.  0.
          5    1    3    3  502    0  0.19314129396E+02 -0.41586769315E+01  0.78585946347E+02  0.81139100016E+02  0.41800000000E+01 0.  1.
         -5    1    3    3    0  502 -0.61538009224E+02  0.99001808891E+01 -0.16874238657E+02  0.64708210385E+02  0.41800000000E+01 0.  1.
        -11    1    1    2    0    0  0.52467426582E+02  0.23117923628E+02  0.28342241176E+03  0.28916350519E+03  0.00000000000E+00 0. -1.
         11    1    1    2    0    0 -0.10243546755E+02 -0.28859427586E+02  0.44404810759E+02  0.53940560149E+02  0.00000000000E+00 0.  1.
</event>
<event>
 7    1  0.2556591E-009  0.1204872E+03  0.7561462E-02  0.1242295E+00
         -1   -1    0    0    0  501 -0.00000000000E+00  0.00000000000E+00  0.77713153134E+02  0.77713153134E+02  0.00000000000E+00 0.  1.
          1   -1    0    0  501    0  0.00000000000E+00 -0.00000000000E+00 -0.22405985278E+03  0.22405985278E+03  0.00000000000E+00 0. -1.
         25    2    1    2    0    0 -0.51746213076E+02 -0.13866947803E+02 -0.14033144731E+03  0.19547469126E+03  0.12508987572E+03 0.  0.
          5    1    3    3  502    0 -0.49173546487E+01  0.53271124601E+02 -0.63433534913E+02  0.83085972611E+02  0.41800000000E+01 0.  1.
         -5    1    3    3    0  502 -0.46828858427E+02 -0.67138072405E+02 -0.76897912401E+02  0.11238871865E+03  0.41800000000E+01 0.  1.
        -11    1    1    2    0    0 -0.24165023816E+02 -0.94381229819E+01  0.40424900167E+01  0.26255823487E+02  0.00000000000E+00 0.  1.
         11    1    1    2    0    0  0.75911236891E+02  0.23305070785E+02 -0.10057742344E+02  0.80042491164E+02  0.00000000000E+00 0. -1.
</event>
<event>
 7    1  0.2556591E-009  0.1490630E+03  0.7561462E-02  0.1201629E+00
          1   -1    0    0  501    0  0.00000000000E+00  0.00000000000E+00  0.82362978496E+03  0.82362978496E+03  0.00000000000E+00 0. -1.
         -1   -1    0    0    0  501 -0.00000000000E+00 -0.00000000000E+00 -0.29473390918E+02  0.29473390918E+02  0.00000000000E+00 0.  1.
         25    2    1    2    0    0 -0.10166382668E+03  0.19921756262E+02  0.53852367855E+03  0.56248413525E+03  0.12509292555E+03 0.  0.
          5    1    3    3  502    0 -0.10987542412E+03  0.55473396358E+02  0.45224321390E+03  0.46871238884E+03  0.41800000000E+01 0. -1.
         -5    1    3    3    0  502  0.82115974362E+01 -0.35551640096E+02  0.86280464646E+02  0.93771746414E+02  0.41800000000E+01 0. -1.
        -11    1    1    2    0    0  0.82862771317E+02 -0.54293655730E+02  0.18307756527E+03  0.20816203984E+03  0.00000000000E+00 0.  1.
         11    1    1    2    0    0  0.18801055365E+02  0.34371899469E+02  0.72555150221E+02  0.82457000792E+02  0.00000000000E+00 0. -1.
</event>
<event>
 7    1  0.2556591E-009  0.9601260E+02  0.7561462E-02  0.1288912E+00
         -2   -1    0    0    0  501 -0.00000000000E+00  0.00000000000E+00  0.42423073385E+02  0.42423073385E+02  0.00000000000E+00 0.  1.
          2   -1    0    0  501    0  0.00000000000E+00 -0.00000000000E+00 -0.46162114838E+03  0.46162114838E+03  0.00000000000E+00 0. -1.
         25    2    1    2    0    0 -0.40796847998E+02 -0.59400470508E+02 -0.32672943381E+03  0.35719956513E+03  0.12508640097E+03 0.  0.
          5    1    3    3  502    0 -0.27424178881E+02 -0.17966354770E+01 -0.28088730213E+03  0.28225956562E+03  0.41800000000E+01 0.  1.
         -5    1    3    3    0  502 -0.13372669117E+02 -0.57603835032E+02 -0.45842131686E+02  0.74939999514E+02  0.41800000000E+01 0.  1.
        -11    1    1    2    0    0  0.63491039941E+02  0.39624986018E+02 -0.89393342843E+02  0.11658654045E+03  0.00000000000E+00 0. -1.
         11    1    1    2    0    0 -0.22694191943E+02  0.19775484491E+02 -0.30752983342E+01  0.30258116178E+02  0.00000000000E+00 0.  1.
</event>
<event>
 7    1  0.2556591E-009  0.9832357E+02  0.7561462E-02  0.1283861E+00
         -2   -1    0    0    0  501 -0.00000000000E+00  0.00000000000E+00  0.91551216611E+02  0.91551216611E+02  0.00000000000E+00 0.  1.
          2   -1    0    0  501    0  0.00000000000E+00 -0.00000000000E+00 -0.13915775734E+03  0.13915775734E+03  0.00000000000E+00 0. -1.
         25    2    1    2    0    0 -0.21256636606E+02  0.18517730697E+02 -0.16282317068E+02  0.12925742934E+03  0.12509044024E+03 0.  0.
          5    1    3    3  502    0 -0.26080164628E+02 -0.38701676096E+02  0.29785126149E+02  0.55521354985E+02  0.41800000000E+01 0.  1.
         -5    1    3    3    0  502  0.48235280214E+01  0.57219406793E+02 -0.46067443217E+02  0.73736074353E+02  0.41800000000E+01 0.  1.
        -11    1    1    2    0    0  0.51488649468E+02 -0.30331779605E+02 -0.34222211429E+02  0.68864051820E+02  0.00000000000E+00 0. -1.
         11    1    1    2    0    0 -0.30232012862E+02  0.11814048908E+02  0.28979877697E+01  0.32587492790E+02  0.00000000000E+00 0.  1.
</event>
<event>
 7    1  0.2556591E-009  0.1155008E+03  0.7561462E-02  0.1250710E+00
         -1   -1    0    0    0  501 -0.00000000000E+00  0.00000000000E+00  0.73120652986E+02  0.73120652986E+02  0.00000000000E+00 0.  1.
          1   -1    0    0  501    0  0.00000000000E+00 -0.00000000000E+00 -0.18603365453E+03  0.18603365453E+03  0.00000000000E+00 0. -1.
         25    2    1    2    0    0  0.33132891529E+02 -0.21182977012E+02 -0.76868934282E+02  0.15199704054E+03  0.12509100791E+03 0.  0.
          5    1    3    3  502    0  0.76493889273E+02  0.89510906471E+01 -0.36121873182E+02  0.85168651757E+02  0.41800000000E+01 0.  1.
         -5    1    3    3    0  502 -0.43360997745E+02 -0.30134067660E+02 -0.40747061100E+02  0.66828388784E+02  0.41800000000E+01 0.  1.
        -11    1    1    2    0    0  0.18710280430E+02  0.41263368048E+02 -0.15434872544E+02  0.47864135079E+02  0.00000000000E+00 0. -1.
         11    1    1    2    0    0 -0.51843171959E+02 -0.20080391035E+02 -0.20609194714E+02  0.59293131893E+02  0.00000000000E+00 0.  1.
</event>
<event>
 7    1  0.2556591E-009  0.7704098E+02  0.7561462E-02  0.1337665E+00
          2   -1    0    0  501    0  0.00000000000E+00  0.00000000000E+00  0.46365711023E+03  0.46365711023E+03  0.00000000000E+00 0. -1.
         -2   -1    0    0    0  501 -0.00000000000E+00 -0.00000000000E+00 -0.28722213299E+02  0.28722213299E+02  0.00000000000E+00 0.  1.
         25    2    1    2    0    0  0.35395579344E+02  0.15512739045E+02  0.27572465069E+03  0.30522876487E+03  0.12508806416E+03 0.  0.
          5    1    3    3  502    0  0.12343470305E+02  0.37636753103E+02  0.15062040531E+02  0.42581966938E+02  0.41800000000E+01 0. -1.
         -5    1    3    3    0  502  0.23052109039E+02 -0.22124014059E+02  0.26066261016E+03  0.26264679793E+03  0.41800000000E+01 0. -1.
        -11    1    1    2    0    0 -0.40190549784E+02  0.20901646721E+02  0.13684490568E+03  0.14414814372E+03  0.00000000000E+00 0. -1.
         11    1    1    2    0    0  0.47949704404E+01 -0.36414385766E+02  0.22365340565E+02  0.43002414942E+02  0.00000000000E+00 0.  1.
</event>
<event>
 7    1  0.2556591E-009  0.2725948E+03  0.7561462E-02  0.1099804E+00
         -2   -1    0    0    0  501 -0.00000000000E+00  0.00000000000E+00  0.57103271106E+02  0.57103271106E+02  0.00000000000E+00 0. -1.
          2   -1    0    0  501    0  0.00000000000E+00 -0.00000000000E+00 -0.14670684495E+04  0.14670684495E+04  0.00000000000E+00 0.  1.
         25    2    1    2    0    0  0.12316288099E+02 -0.26541907597E+03 -0.81172764774E+03  0.86321907688E+03  0.12508566562E+03 0.  0.
          5    1    3    3  502    0  0.70946270104E+01 -0.15157266384E+03 -0.27119950467E+03  0.31079132853E+03  0.41800000000E+01 0. -1.
         -5    1    3    3    0  502  0.52216610887E+01 -0.11384641214E+03 -0.54052814307E+03  0.55242774835E+03  0.41800000000E+01 0. -1.
        -11    1    1    2    0    0  0.32279081761E+02  0.51102110478E+02 -0.16111942984E+03  0.17208380367E+03  0.00000000000E+00 0.  1.
         11    1    1    2    0    0 -0.44595369860E+02  0.21431696550E+03 -0.43711810080E+03  0.48886884004E+03  0.00000000000E+00 0. -1.
</event>
<event>
 7    1  0.2556591E-009  0.1428973E+03  0.7561462E-02  0.1209483E+00
         -4   -1    0    0    0  501 -0.00000000000E+00  0.00000000000E+00  0.40577566635E+02  0.40577566635E+02  0.00000000000E+00 0.  1.
          4   -1    0    0  501    0  0.00000000000E+00 -0.00000000000E+00 -0.73592397842E+03  0.73592397842E+03  0.00000000000E+00 0. -1.
         25    2    1    2    0    0 -0.27342798936E+01 -0.12808475614E+03 -0.29504741282E+03  0.34512975311E+03  0.12509352354E+03 0.  0.
          5    1    3    3  502    0  0.26834605373E+02 -0.12678662980E+02 -0.16901529257E+03  0.17165222417E+03  0.41800000000E+01 0. -1.
         -5    1    3    3    0  502 -0.29568885266E+02 -0.11540609316E+03 -0.12603212025E+03  0.17347752895E+03  0.41800000000E+01 0. -1.
        -11    1    1    2    0    0  0.25118304482E+02  0.69555863780E+02 -0.32549106741E+03  0.33378643227E+03  0.00000000000E+00 0. -1.
         11    1    1    2    0    0 -0.22384024588E+02  0.58528892359E+02 -0.74807931554E+02  0.97585359665E+02  0.00000000000E+00 0.  1.
</event>
<event>
 7    1  0.2556591E-009  0.1171363E+03  0.7561462E-02  0.1247897E+00
          2   -1    0    0  501    0  0.00000000000E+00  0.00000000000E+00  0.44243842939E+03  0.44243842939E+03  0.00000000000E+00 0.  1.
         -2   -1    0    0    0  501 -0.00000000000E+00 -0.00000000000E+00 -0.50768288710E+02  0.50768288710E+02  0.00000000000E+00 0. -1.
         25    2    1    2    0    0 -0.18690025323E+02 -0.58512519862E+02  0.34418697708E+03  0.37132999856E+03  0.12509300783E+03 0.  0.
          5    1    3    3  502    0 -0.57925720217E+02 -0.60773008775E+02  0.13955735038E+03  0.16291861190E+03  0.41800000000E+01 0.  1.
         -5    1    3    3    0  502  0.39235694895E+02  0.22604889126E+01  0.20462962670E+03  0.20841138666E+03  0.41800000000E+01 0.  1.
        -11    1    1    2    0    0 -0.23864723386E+02 -0.13221606833E+02  0.32751117324E+01  0.27478396358E+02  0.00000000000E+00 0.  1.
         11    1    1    2    0    0  0.42554748709E+02  0.71734126695E+02  0.44208051863E+02  0.94398323184E+02  0.00000000000E+00 0. -1.
</event>
<event>
 7    1  0.2556591E-009  0.1054219E+03  0.7561462E-02  0.1269291E+00
         -4   -1    0    0    0  501 -0.00000000000E+00  0.00000000000E+00  0.55681661031E+03  0.55681661031E+03  0.00000000000E+00 0.  1.
          4   -1    0    0  501    0  0.00000000000E+00 -0.00000000000E+00 -0.34313047084E+02  0.34313047084E+02  0.00000000000E+00 0. -1.
         25    2    1    2    0    0 -0.39982244041E+02 -0.42504753119E+02  0.42176686632E+03  0.44377954227E+03  0.12509100184E+03 0.  0.
          5    1    3    3  502    0 -0.71814522576E+02 -0.27969869382E+01  0.14002027441E+03  0.15744300059E+03  0.41800000000E+01 0. -1.
         -5    1    3    3    0  502  0.31832278535E+02 -0.39707766181E+02  0.28174659191E+03  0.28633654169E+03  0.41800000000E+01 0. -1.
        -11    1    1    2    0    0  0.57210781642E+02  0.22724678637E+02  0.10406454368E+03  0.12090870029E+03  0.00000000000E+00 0.  1.
         11    1    1    2    0    0 -0.17228537601E+02  0.19780074482E+02 -0.33278467630E+01  0.26441414835E+02  0.00000000000E+00 0. -1.
</event>
<event>
 7    1  0.2556591E-009  0.1038434E+03  0.7561462E-02  0.1272415E+00
          2   -1    0    0  501    0  0.00000000000E+00  0.00000000000E+00  0.26375397152E+03  0.26375397152E+03  0.00000000000E+00 0. -1.
         -2   -1    0    0    0  501 -0.00000000000E+00 -0.00000000000E+00 -0.62482644341E+02  0.62482644341E+02  0.00000000000E+00 0.  1.
         25    2    1    2    0    0  0.17495366941E+01 -0.34027401400E+01  0.24488923151E+02  0.12752146218E+03  0.12508947373E+03 0.  0.
          5    1    3    3  502    0 -0.56438320899E+02  0.11954245182E+02 -0.89786431808E+01  0.58534404218E+02  0.41800000000E+01 0.  1.
         -5    1    3    3    0  502  0.58187857593E+02 -0.15356985322E+02  0.33467566332E+02  0.68987057958E+02  0.41800000000E+01 0.  1.
        -11    1    1    2    0    0 -0.44944703332E+02 -0.59115974198E+01  0.73182490709E+02  0.86085133955E+02  0.00000000000E+00 0.  1.
         11    1    1    2    0    0  0.43195166638E+02  0.93143375598E+01  0.10359991332E+03  0.11263001973E+03  0.00000000000E+00 0. -1.
</event>
<event>
 7    1  0.2556591E-009  0.3051756E+03  0.7561462E-02  0.1082682E+00
          1   -1    0    0  501    0  0.00000000000E+00  0.00000000000E+00  0.80733770156E+03  0.80733770156E+03  0.00000000000E+00 0. -1.
         -1   -1    0    0    0  501 -0.00000000000E+00 -0.00000000000E+00 -0.13401902147E+03  0.13401902147E+03  0.00000000000E+00 0.  1.
         25    2    1    2    0    0 -0.22171613212E+03 -0.18694121149E+03  0.49983778573E+03  0.59126312483E+03  0.12509680625E+03 0.  0.
          5    1    3    3  502    0 -0.22814211668E+03 -0.19815045366E+03  0.48042183912E+03  0.56756941742E+03  0.41800000000E+01 0.  1.
         -5    1    3    3    0  502  0.64259845576E+01  0.11209242172E+02  0.19415946613E+02  0.23693707403E+02  0.41800000000E+01 0.  1.
        -11    1    1    2    0    0  0.15481843948E+03  0.15942442256E+03  0.90335082434E+02  0.23988606218E+03  0.00000000000E+00 0.  1.
         11    1    1    2    0    0  0.66897692643E+02  0.27516788929E+02  0.83145811924E+02  0.11020753601E+03  0.00000000000E+00 0. -1.
</event>
<event>
 7    1  0.2556591E-009  0.8172063E+02  0.7561462E-02  0.1324238E+00
         -2   -1    0    0    0  501 -0.00000000000E+00  0.00000000000E+00  0.10649876440E+03  0.10649876440E+03  0.00000000000E+00 0. -1.
          2   -1    0    0  501    0  0.00000000000E+00 -0.00000000000E+00 -0.13333773237E+03  0.13333773237E+03  0.00000000000E+00 0.  1.
         25    2    1    2    0    0 -0.45194136482E+02  0.20364823675E+02 -0.89933914308E+01  0.13485744632E+03  0.12509361983E+03 0.  0.
          5    1    3    3  502    0 -0.97757161466E+01  0.46415237998E+02 -0.53866541144E+02  0.71895866358E+02  0.41800000000E+01 0.  1.
         -5    1    3    3    0  502 -0.35418420335E+02 -0.26050414323E+02  0.44873149713E+02  0.62961579957E+02  0.41800000000E+01 0.  1.
        -11    1    1    2    0    0  0.16635243502E+02 -0.35596592002E+02 -0.47109303868E+02  0.61344398273E+02  0.00000000000E+00 0.  1.
         11    1    1    2    0    0  0.28558892980E+02  0.15231768328E+02  0.29263727327E+02  0.43634652189E+02  0.00000000000E+00 0. -1.
</event>
<event>
 7    1  0.2556591E-009  0.8507971E+02  0.7561462E-02  0.1315224E+00
          1   -1    0    0  501    0  0.00000000000E+00  0.00000000000E+00  0.20486448613E+03  0.20486448613E+03  0.00000000000E+00 0. -1.
         -1   -1    0    0    0  501 -0.00000000000E+00 -0.00000000000E+00 -0.79885222559E+02  0.79885222559E+02  0.00000000000E+00 0.  1.
         25    2    1    2    0    0 -0.40938060539E+01 -0.37830041746E+02  0.10820066528E+02  0.13119654596E+03  0.12509032147E+03 0.  0.
          5    1    3    3  502    0 -0.42428071533E+02 -0.14290159815E+02  0.52919805190E+02  0.69442984548E+02  0.41800000000E+01 0.  1.
         -5    1    3    3    0  502  0.38334265479E+02 -0.23539881931E+02 -0.42099738663E+02  0.61753561408E+02  0.41800000000E+01 0.  1.
        -11    1    1    2    0    0  0.25605030803E+02 -0.10064884619E+02  0.92934831755E+02  0.96921630497E+02  0.00000000000E+00 0. -1.
         11    1    1    2    0    0 -0.21511224749E+02  0.47894926365E+02  0.21224365290E+02  0.56631532238E+02  0.00000000000E+00 0.  1.
</event>
<event>
 7    1  0.2556591E-009  0.1542372E+03  0.7561462E-02  0.1195361E+00
          1   -1    0    0  501    0  0.00000000000E+00  0.00000000000E+00  0.19246574907E+03  0.19246574907E+03  0.00000000000E+00 0. -1.
         -1   -1    0    0    0  501 -0.00000000000E+00 -0.00000000000E+00 -0.14407429785E+03  0.14407429785E+03  0.00000000000E+00 0.  1.
         25    2    1    2    0    0 -0.35527243026E+02 -0.11760935657E+03 -0.28439685114E+01  0.17535393729E+03  0.12508704736E+03 0.  0.
          5    1    3    3  502    0 -0.80684707990E+02 -0.85394355520E+02 -0.14711479344E+02  0.11847412411E+03  0.41800000000E+01 0. -1.
         -5    1    3    3    0  502  0.45157464963E+02 -0.32215001053E+02  0.11867510832E+02  0.56879813186E+02  0.41800000000E+01 0. -1.
        -11    1    1    2    0    0  0.32809007615E+02  0.21688170201E+02  0.52031213649E+02  0.65223116310E+02  0.00000000000E+00 0. -1.
         11    1    1    2    0    0  0.27182354112E+01  0.95921186372E+02 -0.79579391678E+00  0.95962993319E+02  0.00000000000E+00 0.  1.
</event>
<event>
 7    1  0.2556591E-009  0.1042892E+03  0.7561462E-02  0.1271527E+00
          2   -1    0    0  501    0  0.00000000000E+00  0.00000000000E+00  0.78255099612E+03  0.78255099612E+03  0.00000000000E+00 0. -1.
         -2   -1    0    0    0  501 -0.00000000000E+00 -0.00000000000E+00 -0.16630515480E+02  0.16630515480E+02  0.00000000000E+00 0.  1.
         25    2    1    2    0    0 -0.13073726210E+02  0.12051420717E+02  0.32409679670E+03  0.34784900674E+03  0.12507613201E+03 0.  0.
          5    1    3    3  502    0  0.14278704914E+02 -0.48802348583E+02  0.20520379138E+03  0.21145122141E+03  0.41800000000E+01 0.  1.
         -5    1    3    3    0  502 -0.27352431124E+02  0.60853769301E+02  0.11889300533E+03  0.13639778533E+03  0.41800000000E+01 0.  1.
        -11    1    1    2    0    0  0.14094964888E+02 -0.50406805224E+02  0.21449957158E+03  0.22079307112E+03  0.00000000000E+00 0.  1.
         11    1    1    2    0    0 -0.10212386773E+01  0.38355384507E+02  0.22732411236E+03  0.23053943374E+03  0.00000000000E+00 0. -1.
</event>
<event>
 7    1  0.2556591E-009  0.7149482E+02  0.7561462E-02  0.1355082E+00
         -3   -1    0    0    0  501 -0.00000000000E+00  0.00000000000E+00  0.17285783624E+04  0.17285783624E+04  0.00000000000E+00 0.  1.
          3   -1    0    0  501    0  0.00000000000E+00 -0.00000000000E+00 -0.16332066345E+02  0.16332066345E+02  0.00000000000E+00 0. -1.
         25    2    1    2    0    0 -0.30297132723E+02 -0.56816392885E+02  0.14303079349E+04  0.14372112019E+04  0.12509688904E+03 0.  0.
          5    1    3    3  502    0 -0.13018415432E+02 -0.41446354724E+02  0.13890067467E+04  0.13896922301E+04  0.41800000000E+01 0. -1.
         -5    1    3    3    0  502 -0.17278717292E+02 -0.15370038161E+02  0.41301188115E+02  0.47518971832E+02  0.41800000000E+01 0. -1.
        -11    1    1    2    0    0  0.39752371210E+02  0.39070880566E+02  0.28213781229E+03  0.28759090711E+03  0.00000000000E+00 0.  1.
         11    1    1    2    0    0 -0.94552384865E+01  0.17745512320E+02 -0.19945106976E+00  0.20108319747E+02  0.00000000000E+00 0. -1.
</event>
<event>
 7    1  0.2761518E-009  0.1841414E+03  0.7561462E-02  0.1163854E+00
         -2   -1    0    0    0  501 -0.00000000000E+00  0.00000000000E+00  0.30135477123E+02  0.30135477123E+02  0.00000000000E+00 0.  1.
          2   -1    0    0  501    0  0.00000000000E+00 -0.00000000000E+00 -0.12017550400E+04  0.12017550400E+04  0.00000000000E+00 0. -1.
         25    2    1    2    0    0  0.10410113003E+03  0.10633865339E+03 -0.76624750776E+03  0.79052369539E+03  0.12509002897E+03 0.  0.
          5    1    3    3  502    0  0.11918374811E+03  0.12277591890E+03 -0.65580133584E+03  0.67776954532E+03  0.41800000000E+01 0.  1.
         -5    1    3    3    0  502 -0.15082618080E+02 -0.16437265517E+02 -0.11044617192E+03  0.11275415007E+03  0.41800000000E+01 0.  1.
        -11    1    1    2    0    0 -0.69004220819E+02 -0.73452639839E+01 -0.15224583255E+03  0.16731505887E+03  0.00000000000E+00 0. -1.
         11    1    1    2    0    0 -0.35096909207E+02 -0.98993389403E+02 -0.25312622257E+03  0.27405176288E+03  0.00000000000E+00 0.  1.
</event>
<event>
 7    1  0.2556591E-009  0.1656173E+03  0.7561462E-02  0.1182497E+00
         -2   -1    0    0    0  501 -0.00000000000E+00  0.00000000000E+00  0.77139798317E+02  0.77139798317E+02  0.00000000000E+00 0.  1.
          2   -1    0    0  501    0  0.00000000000E+00 -0.00000000000E+00 -0.51025717612E+03  0.51025717612E+03  0.00000000000E+00 0. -1.
         25    2    1    2    0    0 -0.11069116014E+03  0.65822818579E+02 -0.38110418280E+03  0.42127524439E+03  0.12508899637E+03 0.  0.
          5    1    3    3  502    0  0.99904307190E+01  0.57386213171E+02 -0.11796377190E+03  0.13162792276E+03  0.41800000000E+01 0.  1.
         -5    1    3    3    0  502 -0.12068159086E+03  0.84366054088E+01 -0.26314041090E+03  0.28964732163E+03  0.41800000000E+01 0.  1.
        -11    1    1    2    0    0  0.53298359584E+02 -0.76672717438E+02 -0.53643569996E+02  0.10768961573E+03  0.00000000000E+00 0.  1.
         11    1    1    2    0    0  0.57392800559E+02  0.10849898859E+02  0.16303749883E+01  0.58432114320E+02  0.00000000000E+00 0. -1.
</event>
<event>
 7    1  0.2556591E-009  0.9403206E+02  0.7561462E-02  0.1293371E+00
          2   -1    0    0  501    0  0.00000000000E+00  0.00000000000E+00  0.15902721706E+03  0.15902721706E+03  0.00000000000E+00 0. -1.
         -2   -1    0    0    0  501 -0.00000000000E+00 -0.00000000000E+00 -0.10385895887E+03  0.10385895887E+03  0.00000000000E+00 0.  1.
         25    2    1    2    0    0 -0.16424258247E+02  0.99054522033E+01 -0.34789697472E+02  0.13124643498E+03  0.12508968543E+03 0.  0.
          5    1    3    3  502    0 -0.43785274211E+02 -0.22458359419E+02  0.26937236848E+02  0.56254913337E+02  0.41800000000E+01 0. -1.
         -5    1    3    3    0  502  0.27361015964E+02  0.32363811622E+02 -0.61726934320E+02  0.74991521640E+02  0.41800000000E+01 0. -1.
        -11    1    1    2    0    0 -0.13630492377E+02  0.37534879678E+02  0.36253453256E+02  0.53934871724E+02  0.00000000000E+00 0.  1.
         11    1    1    2    0    0  0.30054750625E+02 -0.47440331881E+02  0.53704502406E+02  0.77704869234E+02  0.00000000000E+00 0. -1.
</event>
<event>
 7    1  0.2556591E-009  0.1422583E+03  0.7561462E-02  0.1210322E+00
          2   -1    0    0  501    0  0.00000000000E+00  0.00000000000E+00  0.43686327795E+03  0.43686327795E+03  0.00000000000E+00 0. -1.
         -2   -1    0    0    0  501 -0.00000000000E+00 -0.00000000000E+00 -0.68999407319E+02  0.68999407319E+02  0.00000000000E+00 0.  1.
         25    2    1    2    0    0 -0.11121013358E+03  0.31673412697E+02  0.28036265943E+03  0.32805803795E+03  0.12509179261E+03 0.  0.
          5    1    3    3  502    0  0.13569221379E+02  0.41281767944E+02  0.54731636825E+02  0.70009517946E+02  0.41800000000E+01 0. -1.
         -5    1    3    3    0  502 -0.12477935496E+03 -0.96083552477E+01  0.22563102260E+03  0.25804852000E+03  0.41800000000E+01 0. -1.
        -11    1    1    2    0    0  0.96172368746E+02 -0.26839227269E+02  0.11880162959E+02  0.10055151368E+03  0.00000000000E+00 0.  1.
         11    1    1    2    0    0  0.15037764838E+02 -0.48341854271E+01  0.75621048249E+02  0.77253133647E+02  0.00000000000E+00 0. -1.
</event>
<event>
 7    1  0.2556591E-009  0.1006382E+03  0.7561462E-02  0.1278960E+00
         -2   -1    0    0    0  501 -0.00000000000E+00  0.00000000000E+00  0.24259537275E+02  0.24259537275E+02  0.00000000000E+00 0.  1.
          2   -1    0    0  501    0  0.00000000000E+00 -0.00000000000E+00 -0.51886510790E+03  0.51886510790E+03  0.00000000000E+00 0. -1.
         25    2    1    2    0    0  0.57559407433E+01 -0.41055331740E+01 -0.35265551884E+03  0.37424981278E+03  0.12508805354E+03 0.  0.
          5    1    3    3  502    0 -0.68325551046E+01 -0.63416001649E+02 -0.16256442195E+03  0.17467952587E+03  0.41800000000E+01 0.  1.
         -5    1    3    3    0  502  0.12588495848E+02  0.59310468475E+02 -0.19009109689E+03  0.19957028691E+03  0.41800000000E+01 0.  1.
        -11    1    1    2    0    0  0.31850501247E+02 -0.14061492630E+02 -0.11251795487E+03  0.11778145089E+03  0.00000000000E+00 0.  1.
         11    1    1    2    0    0 -0.37606441990E+02  0.18167025804E+02 -0.29432096915E+02  0.51093381513E+02  0.00000000000E+00 0. -1.
</event>
<event>
 7    1  0.2556591E-009  0.1312902E+03  0.7561462E-02  0.1225554E+00
         -4   -1    0    0    0  501 -0.00000000000E+00  0.00000000000E+00  0.12219605341E+02  0.12219605341E+02  0.00000000000E+00 0.  1.
          4   -1    0    0  501    0  0.00000000000E+00 -0.00000000000E+00 -0.23077018896E+04  0.23077018896E+04  0.00000000000E+00 0. -1.
         25    2    1    2    0    0 -0.23726818684E+02 -0.84357642477E+02 -0.18685471887E+04  0.18747789243E+04  0.12509294381E+03 0.  0.
          5    1    3    3  502    0 -0.16430376813E+02 -0.11691347121E+03 -0.15359194484E+04  0.15404560173E+04  0.41800000000E+01 0. -1.
         -5    1    3    3    0  502 -0.72964418712E+01  0.32555828729E+02 -0.33262774033E+03  0.33432290691E+03  0.41800000000E+01 0. -1.
        -11    1    1    2    0    0  0.36942203440E+01 -0.11920427592E+02 -0.80083250232E+01  0.14828254368E+02  0.00000000000E+00 0.  1.
         11    1    1    2    0    0  0.20032598340E+02  0.96278070069E+02 -0.41892677048E+03  0.43031431628E+03  0.00000000000E+00 0. -1.
</event>
<event>
 7    1  0.2556591E-009  0.1090639E+03  0.7561462E-02  0.1262313E+00
          1   -1    0    0  501    0  0.00000000000E+00  0.00000000000E+00  0.69047161052E+03  0.69047161052E+03  0.00000000000E+00 0. -1.
         -1   -1    0    0    0  501 -0.00000000000E+00 -0.00000000000E+00 -0.18335256850E+02  0.18335256850E+02  0.00000000000E+00 0.  1.
         25    2    1    2    0    0 -0.18119030937E+02 -0.27447288481E+00  0.43325402758E+03  0.45131435748E+03  0.12508885736E+03 0.  0.
          5    1    3    3  502    0 -0.69955411154E+02 -0.14148178295E+02  0.21754647918E+03  0.22899317349E+03  0.41800000000E+01 0.  1.
         -5    1    3    3    0  502  0.51836380217E+02  0.13873705410E+02  0.21570754840E+03  0.22232118400E+03  0.41800000000E+01 0.  1.
        -11    1    1    2    0    0  0.38507541522E+02  0.35328326144E+02  0.16669850025E+03  0.17469777150E+03  0.00000000000E+00 0. -1.
         11    1    1    2    0    0 -0.20388510585E+02 -0.35053853259E+02  0.72183825841E+02  0.82794738391E+02  0.00000000000E+00 0.  1.
</event>
<event>
 7    1  0.3057274E-009  0.1426270E+03  0.7561462E-02  0.1209837E+00
          2   -1    0    0  501    0  0.00000000000E+00  0.00000000000E+00  0.27782728935E+03  0.27782728935E+03  0.00000000000E+00 0. -1.
         -2   -1    0    0    0  501 -0.00000000000E+00 -0.00000000000E+00 -0.10214633571E+03  0.10214633571E+03  0.00000000000E+00 0.  1.
         25    2    1    2    0    0  0.72290275125E+02 -0.10596559160E+03  0.80932072623E+02  0.19660148516E+03  0.12509017990E+03 0.  0.
          5    1    3    3  502    0  0.51303755173E+02 -0.85372569425E+02  0.11447700560E+03  0.15179923622E+03  0.41800000000E+01 0.  1.
         -5    1    3    3    0  502  0.20986519953E+02 -0.20593022178E+02 -0.33544932977E+02  0.44802248945E+02  0.41800000000E+01 0.  1.
        -11    1    1    2    0    0 -0.82098561867E+02  0.44032468263E+02  0.67272983456E+02  0.11491164617E+03  0.00000000000E+00 0.  1.
         11    1    1    2    0    0  0.98082867420E+01  0.61933123340E+02  0.27475897552E+02  0.68460493730E+02  0.00000000000E+00 0. -1.
</event>
<event>
 7    1  0.2625523E-009  0.1140446E+03  0.7561462E-02  0.1253258E+00
         -1   -1    0    0    0  501 -0.00000000000E+00  0.00000000000E+00  0.16126096854E+03  0.16126096854E+03  0.00000000000E+00 0.  1.
          1   -1    0    0  501    0  0.00000000000E+00 -0.00000000000E+00 -0.13723821599E+03  0.13723821599E+03  0.00000000000E+00 0. -1.
         25    2    1    2    0    0  0.82672100127E+02 -0.49370958866E+02  0.43803415521E+02  0.16382340620E+03  0.12508877443E+03 0.  0.
          5    1    3    3  502    0  0.50063219539E+02 -0.57629160293E+01 -0.39533493387E+02  0.64186498979E+02  0.41800000000E+01 0. -1.
         -5    1    3    3    0  502  0.32608880588E+02 -0.43608042837E+02  0.83336908908E+02  0.99636907216E+02  0.41800000000E+01 0. -1.
        -11    1    1    2    0    0  0.59006396327E+01  0.32139790587E+02  0.17472365951E+02  0.37054922197E+02  0.00000000000E+00 0.  1.
         11    1    1    2    0    0 -0.88572739760E+02  0.17231168279E+02 -0.37253028923E+02  0.97620856136E+02  0.00000000000E+00 0. -1.
</event>
<event>
 7    1  0.2556591E-009  0.8956671E+02  0.7561462E-02  0.1303904E+00
          1   -1    0    0  501    0  0.00000000000E+00  0.00000000000E+00  0.15630745210E+03  0.15630745210E+03  0.00000000000E+00 0. -1.
         -1   -1    0    0    0  501 -0.00000000000E+00 -0.00000000000E+00 -0.72676838895E+02  0.72676838895E+02  0.00000000000E+00 0.  1.
         25    2    1    2    0    0 -0.33125031557E+01  0.22445944288E+02  0.47059788946E+02  0.13556000395E+03  0.12508836014E+03 0.  0.
          5    1    3    3  502    0 -0.27197624434E+02  0.49753067963E+02 -0.19110364887E+02  0.59981305360E+02  0.41800000000E+01 0. -1.
         -5    1    3    3    0  502  0.23885121278E+02 -0.27307123676E+02  0.66170153833E+02  0.75578698587E+02  0.41800000000E+01 0. -1.
        -11    1    1    2    0    0  0.62630598982E+01 -0.53851693433E+02  0.19945861377E+02  0.57767362680E+02  0.00000000000E+00 0. -1.
         11    1    1    2    0    0 -0.29505567425E+01  0.31405749145E+02  0.16624962878E+02  0.35656924365E+02  0.00000000000E+00 0.  1.
</event>
<event>
 7    1  0.2556591E-009  0.1509146E+03  0.7561462E-02  0.1199354E+00
         -2   -1    0    0    0  501 -0.00000000000E+00  0.00000000000E+00  0.15433529480E+03  0.15433529480E+03  0.00000000000E+00 0.  1.
          2   -1    0    0  501    0  0.00000000000E+00 -0.00000000000E+00 -0.19495158766E+03  0.19495158766E+03  0.00000000000E+00 0. -1.
         25    2    1    2    0    0 -0.93012793177E+02  0.71807606962E+02 -0.88904393573E+02  0.19327863089E+03  0.12507967801E+03 0.  0.
          5    1    3    3  502    0 -0.20235811105E+02  0.77649400739E+02 -0.89324486506E+02  0.12014680094E+03  0.41800000000E+01 0.  1.
         -5    1    3    3    0  502 -0.72776982072E+02 -0.58417937768E+01  0.42009293318E+00  0.73131829952E+02  0.41800000000E+01 0.  1.
        -11    1    1    2    0    0 -0.12039016796E+02  0.96375594241E+01  0.50550511947E+01  0.16228802163E+02  0.00000000000E+00 0.  1.
         11    1    1    2    0    0  0.10505180997E+03 -0.81445166386E+02  0.43233049512E+02  0.13977944941E+03  0.00000000000E+00 0. -1.
</event>
<event>
 7    1  0.2556591E-009  0.1530248E+03  0.7561462E-02  0.1196805E+00
          1   -1    0    0  501    0  0.00000000000E+00  0.00000000000E+00  0.23008610079E+03  0.23008610079E+03  0.00000000000E+00 0. -1.
         -1   -1    0    0    0  501 -0.00000000000E+00 -0.00000000000E+00 -0.18237991080E+03  0.18237991080E+03  0.00000000000E+00 0.  1.
         25    2    1    2    0    0  0.64153976283E+02  0.12830553046E+03  0.12534976156E+03  0.22789963943E+03  0.12509053166E+03 0.  0.
          5    1    3    3  502    0 -0.12788535024E+02  0.13737334289E+02  0.80443810938E+02  0.82709975817E+02  0.41800000000E+01 0. -1.
         -5    1    3    3    0  502  0.76942511307E+02  0.11456819617E+03  0.44905950618E+02  0.14518966362E+03  0.41800000000E+01 0. -1.
        -11    1    1    2    0    0 -0.41442347200E+01 -0.49621236311E+02 -0.69196229019E+02  0.85249984662E+02  0.00000000000E+00 0.  1.
         11    1    1    2    0    0 -0.60009741563E+02 -0.78684294151E+02 -0.84473425548E+01  0.99316387494E+02  0.00000000000E+00 0. -1.
</event>
<event>
 7    1  0.2556591E-009  0.1320358E+03  0.7561462E-02  0.1224466E+00
         -1   -1    0    0    0  501 -0.00000000000E+00  0.00000000000E+00  0.42721548547E+02  0.42721548547E+02  0.00000000000E+00 0.  1.
          1   -1    0    0  501    0  0.00000000000E+00 -0.00000000000E+00 -0.43354385784E+03  0.43354385784E+03  0.00000000000E+00 0. -1.
         25    2    1    2    0    0  0.81638630462E+02  0.82472616681E+01 -0.20199765978E+03  0.25135572380E+03  0.12507502557E+03 0.  0.
          5    1    3    3  502    0  0.19681823110E+02 -0.55851048724E+02 -0.66896406474E+02  0.89438892008E+02  0.41800000000E+01 0. -1.
         -5    1    3    3    0  502  0.61956807351E+02  0.64098310392E+02 -0.13510125331E+03  0.16191683179E+03  0.41800000000E+01 0. -1.
        -11    1    1    2    0    0  0.16753062816E+02 -0.40812190395E+00 -0.61871730741E+02  0.64101035421E+02  0.00000000000E+00 0. -1.
         11    1    1    2    0    0 -0.98391693278E+02 -0.78391397642E+01 -0.12695291876E+03  0.16080864716E+03  0.00000000000E+00 0.  1.
</event>
<event>
 7    1  0.2556591E-009  0.1176881E+03  0.7561462E-02  0.1246960E+00
          1   -1    0    0  501    0  0.00000000000E+00  0.00000000000E+00  0.35969343805E+03  0.35969343805E+03  0.00000000000E+00 0.  1.
         -1   -1    0    0    0  501 -0.00000000000E+00 -0.00000000000E+00 -0.41312266622E+02  0.41312266622E+02  0.00000000000E+00 0. -1.
         25    2    1    2    0    0 -0.23223920987E+02 -0.49627626486E+02  0.18820265716E+03  0.23252885625E+03  0.12508867659E+03 0.  0.
          5    1    3    3  502    0 -0.71295087595E+02 -0.77395543762E+01  0.86764312526E+02  0.11264283619E+03  0.41800000000E+01 0. -1.
         -5    1    3    3    0  502  0.48071166608E+02 -0.41888072110E+02  0.10143834463E+03  0.11988602006E+03  0.41800000000E+01 0. -1.
        -11    1    1    2    0    0  0.53754532510E+02  0.41883690800E+02  0.11461732612E+03  0.13334513402E+03  0.00000000000E+00 0.  1.
         11    1    1    2    0    0 -0.30530611523E+02  0.77439356860E+01  0.15561188147E+02  0.35131714396E+02  0.00000000000E+00 0. -1.
</event>
<event>
 7    1  0.2556591E-009  0.7035063E+02  0.7561462E-02  0.1358905E+00
          1   -1    0    0  501    0  0.00000000000E+00  0.00000000000E+00  0.80884481156E+03  0.80884481156E+03  0.00000000000E+00 0. -1.
         -1   -1    0    0    0  501 -0.00000000000E+00 -0.00000000000E+00 -0.15308598273E+02  0.15308598273E+02  0.00000000000E+00 0.  1.
         25    2    1    2    0    0  0.24406564966E+02 -0.31908038628E+01  0.52807153343E+03  0.54324281858E+03  0.12508938358E+03 0.  0.
          5    1    3    3  502    0  0.53905434668E+01 -0.29805965745E+02  0.26134214906E+02  0.40223415340E+02  0.41800000000E+01 0.  1.
         -5    1    3    3    0  502  0.19016021499E+02  0.26615161882E+02  0.50193731852E+03  0.50301940324E+03  0.41800000000E+01 0.  1.
        -11    1    1    2    0    0  0.25375709660E+02  0.92273189682E+01  0.30854222630E+02  0.41000647680E+02  0.00000000000E+00 0.  1.
         11    1    1    2    0    0 -0.49782274626E+02 -0.60365151054E+01  0.23461045723E+03  0.23990994357E+03  0.00000000000E+00 0. -1.
</event>
<event>
 7    1  0.2556591E-009  0.9894360E+02  0.7561462E-02  0.1282533E+00
         -1   -1    0    0    0  501 -0.00000000000E+00  0.00000000000E+00  0.27391012247E+02  0.27391012247E+02  0.00000000000E+00 0.  1.
          1   -1    0    0  501    0  0.00000000000E+00 -0.00000000000E+00 -0.43191001576E+03  0.43191001576E+03  0.00000000000E+00 0. -1.
         25    2    1    2    0    0  0.12128242637E+02  0.85093515930E+01 -0.23071582141E+03  0.26285981515E+03  0.12508392718E+03 0.  0.
          5    1    3    3  502    0  0.45793319332E+02  0.39408219331E+02 -0.56927954590E+02  0.83116185307E+02  0.41800000000E+01 0.  1.
         -5    1    3    3    0  502 -0.33665076694E+02 -0.30898867738E+02 -0.17378786682E+03  0.17974362985E+03  0.41800000000E+01 0.  1.
        -11    1    1    2    0    0 -0.10615231985E+01 -0.49230943096E+02 -0.98381647794E+02  0.11001709509E+03  0.00000000000E+00 0.  1.
         11    1    1    2    0    0 -0.11066719439E+02  0.40721591503E+02 -0.75421534315E+02  0.86424117769E+02  0.00000000000E+00 0. -1.
</event>
<event>
 7    1  0.2556591E-009  0.1062682E+03  0.7561462E-02  0.1267641E+00
          2   -1    0    0  501    0  0.00000000000E+00  0.00000000000E+00  0.95332111171E+03  0.95332111171E+03  0.00000000000E+00 0. -1.
         -2   -1    0    0    0  501 -0.00000000000E+00 -0.00000000000E+00 -0.14985858302E+02  0.14985858302E+02  0.00000000000E+00 0.  1.
         25    2    1    2    0    0 -0.45022097820E+02  0.38753386392E+01  0.43681621281E+03  0.45661539365E+03  0.12508879408E+03 0.  0.
          5    1    3    3  502    0  0.31497229393E+02 -0.10050473034E+02  0.39239567690E+02  0.51481098863E+02  0.41800000000E+01 0.  1.
         -5    1    3    3    0  502 -0.76519327213E+02  0.13925811673E+02  0.39757664512E+03  0.40513429479E+03  0.41800000000E+01 0.  1.
        -11    1    1    2    0    0  0.35283473733E+02  0.41754197044E+02  0.28650733913E+03  0.29167583352E+03  0.00000000000E+00 0. -1.
         11    1    1    2    0    0  0.97386240865E+01 -0.45629535683E+02  0.21501170147E+03  0.22001574283E+03  0.00000000000E+00 0.  1.
</event>
<event>
 7    1  0.2556591E-009  0.9527860E+02  0.7561462E-02  0.1290550E+00
          1   -1    0    0  501    0  0.00000000000E+00  0.00000000000E+00  0.86820852080E+02  0.86820852080E+02  0.00000000000E+00 0. -1.
         -1   -1    0    0    0  501 -0.00000000000E+00 -0.00000000000E+00 -0.16658187388E+03  0.16658187388E+03  0.00000000000E+00 0.  1.
         25    2    1    2    0    0  0.35908462791E+02 -0.35028634627E+02 -0.51381801371E+02  0.14423607528E+03  0.12509009936E+03 0.  0.
          5    1    3    3  502    0  0.62713537796E+02 -0.29217519297E+01 -0.73487457236E+02  0.96744008746E+02  0.41800000000E+01 0.  1.
         -5    1    3    3    0  502 -0.26805075005E+02 -0.32106882698E+02  0.22105655866E+02  0.47492066536E+02  0.41800000000E+01 0.  1.
        -11    1    1    2    0    0  0.30695106118E+01 -0.18852811876E+02  0.19442641961E+02  0.27255581766E+02  0.00000000000E+00 0. -1.
         11    1    1    2    0    0 -0.38977973403E+02  0.53881446503E+02 -0.47821862393E+02  0.81911068914E+02  0.00000000000E+00 0.  1.
</event>
<event>
 7    1  0.2556591E-009  0.1281090E+03  0.7561462E-02  0.1230289E+00
         -1   -1    0    0    0  501 -0.00000000000E+00  0.00000000000E+00  0.71733618102E+02  0.71733618102E+02  0.00000000000E+00 0.  1.
          1   -1    0    0  501    0  0.00000000000E+00 -0.00000000000E+00 -0.32157354896E+03  0.32157354896E+03  0.00000000000E+00 0. -1.
         25    2    1    2    0    0 -0.88252165243E+02  0.36695278732E+01 -0.21191169116E+03  0.26145140730E+03  0.12509341880E+03 0.  0.
          5    1    3    3  502    0 -0.12020756034E+03 -0.22910415588E+01 -0.16352722649E+03  0.20301165641E+03  0.41800000000E+01 0. -1.
         -5    1    3    3    0  502  0.31955395094E+02  0.59605694320E+01 -0.48384464666E+02  0.58439750894E+02  0.41800000000E+01 0. -1.
        -11    1    1    2    0    0  0.90334755182E+02 -0.15043454923E+02 -0.58207406374E+02  0.10851163848E+03  0.00000000000E+00 0. -1.
         11    1    1    2    0    0 -0.20825899390E+01  0.11373927050E+02  0.20279166670E+02  0.23344121278E+02  0.00000000000E+00 0.  1.
</event>
<event>
 7    1  0.2556591E-009  0.1334924E+03  0.7561462E-02  0.1222364E+00
          2   -1    0    0  501    0  0.00000000000E+00  0.00000000000E+00  0.81339748443E+03  0.81339748443E+03  0.00000000000E+00 0. -1.
         -2   -1    0    0    0  501 -0.00000000000E+00 -0.00000000000E+00 -0.47414865912E+02  0.47414865912E+02  0.00000000000E+00 0.  1.
         25    2    1    2    0    0  0.32536412628E+02 -0.72695313101E+02  0.71195370825E+03  0.72723382709E+03  0.12509088650E+03 0.  0.
          5    1    3    3  502    0  0.70506185604E+02 -0.96730544985E+01  0.42670571326E+03  0.43261984272E+03  0.41800000000E+01 0.  1.
         -5    1    3    3    0  502 -0.37969772976E+02 -0.63022258602E+02  0.28524799499E+03  0.29461398437E+03  0.41800000000E+01 0.  1.
        -11    1    1    2    0    0  0.17626638390E+02  0.69538947831E+02  0.35160880288E+02  0.79891496099E+02  0.00000000000E+00 0.  1.
         11    1    1    2    0    0 -0.50163051017E+02  0.31563652696E+01  0.18868029984E+02  0.53687027153E+02  0.00000000000E+00 0. -1.
</event>
<event>
 7    1  0.2556591E-009  0.1210712E+03  0.7561462E-02  0.1241340E+00
         -1   -1    0    0    0  501 -0.00000000000E+00  0.00000000000E+00  0.47023083830E+03  0.47023083830E+03  0.00000000000E+00 0.  1.
          1   -1    0    0  501    0  0.00000000000E+00 -0.00000000000E+00 -0.40999348451E+02  0.40999348451E+02  0.00000000000E+00 0. -1.
         25    2    1    2    0    0  0.23684229383E+01  0.57465890909E+02  0.34634617780E+03  0.37270860575E+03  0.12509233343E+03 0.  0.
          5    1    3    3  502    0 -0.31685678978E+02 -0.29850075115E+02  0.11790002943E+03  0.12574934821E+03  0.41800000000E+01 0.  1.
         -5    1    3    3    0  502  0.34054101917E+02  0.87315966024E+02  0.22844614837E+03  0.24695925754E+03  0.41800000000E+01 0.  1.
        -11    1    1    2    0    0  0.42165221349E+02 -0.21375105058E+02  0.60977227359E+02  0.77155837524E+02  0.00000000000E+00 0.  1.
         11    1    1    2    0    0 -0.44533644287E+02 -0.36090785851E+02  0.21908084688E+02  0.61365743469E+02  0.00000000000E+00 0. -1.
</event>
<event>
 7    1  0.2556591E-009  0.1239214E+03  0.7561462E-02  0.1236765E+00
          1   -1    0    0  501    0  0.00000000000E+00  0.00000000000E+00  0.17990915629E+02  0.17990915629E+02  0.00000000000E+00 0. -1.
         -1   -1    0    0    0  501 -0.00000000000E+00 -0.00000000000E+00 -0.10528649605E+04  0.10528649605E+04  0.00000000000E+00 0.  1.
         25    2    1    2    0    0  0.19712981222E+02 -0.74366665248E+02 -0.72331555526E+03  0.73807199217E+03  0.12508345462E+03 0.  0.
          5    1    3    3  502    0  0.46101242265E+02  0.59430165455E+01 -0.11843446797E+03  0.12729823088E+03  0.41800000000E+01 0. -1.
         -5    1    3    3    0  502 -0.26388261044E+02 -0.80309681794E+02 -0.60488108729E+03  0.61077376129E+03  0.41800000000E+01 0. -1.
        -11    1    1    2    0    0 -0.46825182279E+02  0.76117022608E+02 -0.25014159122E+03  0.26562608020E+03  0.00000000000E+00 0.  1.
         11    1    1    2    0    0  0.27112201058E+02 -0.17503573594E+01 -0.61416898404E+02  0.67157803766E+02  0.00000000000E+00 0. -1.
</event>
<event>
 7    1  0.2556591E-009  0.1395624E+03  0.7561462E-02  0.1213919E+00
         -3   -1    0    0    0  501 -0.00000000000E+00  0.00000000000E+00  0.87524291455E+03  0.87524291455E+03  0.00000000000E+00 0.  1.
          3   -1    0    0  501    0  0.00000000000E+00 -0.00000000000E+00 -0.27309228678E+02  0.27309228678E+02  0.00000000000E+00 0. -1.
         25    2    1    2    0    0  0.61529296421E+02  0.81026603913E+02  0.33439376304E+03  0.37123759914E+03  0.12508797460E+03 0.  0.
          5    1    3    3  502    0  0.51690314311E+02 -0.10470586368E+02  0.20931131675E+03  0.21589400522E+03  0.41800000000E+01 0.  1.
         -5    1    3    3    0  502  0.98389821108E+01  0.91497190281E+02  0.12508244630E+03  0.15534359392E+03  0.41800000000E+01 0.  1.
        -11    1    1    2    0    0  0.21415644517E+02 -0.29497668104E+02  0.18558840591E+03  0.18913434025E+03  0.00000000000E+00 0.  1.
         11    1    1    2    0    0 -0.82944940939E+02 -0.51528935809E+02  0.32795151692E+03  0.34218020384E+03  0.00000000000E+00 0. -1.
</event>
<event>
 7    1  0.3051809E-009  0.9999985E+02  0.7561462E-02  0.1280296E+00
          2   -1    0    0  501    0  0.00000000000E+00  0.00000000000E+00  0.42743406953E+03  0.42743406953E+03  0.00000000000E+00 0. -1.
         -2   -1    0    0    0  501 -0.00000000000E+00 -0.00000000000E+00 -0.40387730759E+02  0.40387730759E+02  0.00000000000E+00 0.  1.
         25    2    1    2    0    0  0.50668225729E+02  0.20619426552E+02  0.30363518213E+03  0.33292033772E+03  0.12509675292E+03 0.  0.
          5    1    3    3  502    0  0.53003071859E+02  0.61337881063E+02  0.26281550429E+03  0.27506567029E+03  0.41800000000E+01 0. -1.
         -5    1    3    3    0  502 -0.23348461300E+01 -0.40718454511E+02  0.40819677847E+02  0.57854667432E+02  0.41800000000E+01 0. -1.
        -11    1    1    2    0    0 -0.50157007285E+02  0.66120560057E+01  0.93129141026E+02  0.10598340235E+03  0.00000000000E+00 0. -1.
         11    1    1    2    0    0 -0.51121844464E+00 -0.27231482558E+02 -0.97179843843E+01  0.28918060223E+02  0.00000000000E+00 0.  1.
</event>
<event>
 7    1  0.2556591E-009  0.1600101E+03  0.7561462E-02  0.1188685E+00
          1   -1    0    0  501    0  0.00000000000E+00  0.00000000000E+00  0.22156377993E+03  0.22156377993E+03  0.00000000000E+00 0. -1.
         -1   -1    0    0    0  501 -0.00000000000E+00 -0.00000000000E+00 -0.16605911270E+03  0.16605911270E+03  0.00000000000E+00 0.  1.
         25    2    1    2    0    0  0.15816800053E+02  0.14001825529E+03  0.10204997985E+03  0.21428236189E+03  0.12508976478E+03 0.  0.
          5    1    3    3  502    0 -0.32109435039E+02  0.12410918883E+03  0.10157034494E+03  0.16360963890E+03  0.41800000000E+01 0.  1.
         -5    1    3    3    0  502  0.47926235092E+02  0.15909066457E+02  0.47963491689E+00  0.50672722991E+02  0.41800000000E+01 0.  1.
        -11    1    1    2    0    0 -0.12262679243E+02 -0.77240729786E+02  0.21080487590E+02  0.80999324671E+02  0.00000000000E+00 0. -1.
         11    1    1    2    0    0 -0.35541208098E+01 -0.62777525505E+02 -0.67625800217E+02  0.92341206069E+02  0.00000000000E+00 0.  1.
</event>
<event>
 7    1  0.3735383E-009  0.1423537E+03  0.7561462E-02  0.1210196E+00
          1   -1    0    0  501    0  0.00000000000E+00  0.00000000000E+00  0.56046525706E+03  0.56046525706E+03  0.00000000000E+00 0.  1.
         -1   -1    0    0    0  501 -0.00000000000E+00 -0.00000000000E+00 -0.45248149805E+02  0.45248149805E+02  0.00000000000E+00 0. -1.
         25    2    1    2    0    0 -0.11079278507E+03 -0.14726795926E+02  0.21456085772E+03  0.27235511703E+03  0.12509607653E+03 0.  0.
          5    1    3    3  502    0 -0.89667968430E+02  0.39929720299E+02  0.17756006160E+03  0.20292800448E+03  0.41800000000E+01 0.  1.
         -5    1    3    3    0  502 -0.21124816644E+02 -0.54656516225E+02  0.37000796125E+02  0.69427112556E+02  0.41800000000E+01 0.  1.
        -11    1    1    2    0    0  0.88496849271E+02 -0.15818113795E+02  0.12679163906E+03  0.15542851988E+03  0.00000000000E+00 0. -1.
         11    1    1    2    0    0  0.22295935803E+02  0.30544909721E+02  0.17386461047E+03  0.17792976996E+03  0.00000000000E+00 0.  1.
</event>
<event>
 7    1  0.2556591E-009  0.1018121E+03  0.7561462E-02  0.1276531E+00
         -1   -1    0    0    0  501 -0.00000000000E+00  0.00000000000E+00  0.25937804687E+02  0.25937804687E+02  0.00000000000E+00 0.  1.
          1   -1    0    0  501    0  0.00000000000E+00 -0.00000000000E+00 -0.51542739593E+03  0.51542739593E+03  0.00000000000E+00 0. -1.
         25    2    1    2    0    0  0.77464628992E+01 -0.40095565575E+02 -0.25773270937E+03  0.28938084065E+03  0.12508980531E+03 0.  0.
          5    1    3    3  502    0 -0.47682552323E+02 -0.99475261585E+01 -0.41614831017E+02  0.64201601485E+02  0.41800000000E+01 0.  1.
         -5    1    3    3    0  502  0.55429015222E+02 -0.30148039416E+02 -0.21611787835E+03  0.22517923917E+03  0.41800000000E+01 0.  1.
        -11    1    1    2    0    0  0.35460904580E+02  0.31532074397E+02 -0.16740988795E+03  0.17400522421E+03  0.00000000000E+00 0. -1.
         11    1    1    2    0    0 -0.43207367479E+02  0.85634911779E+01 -0.64346993923E+02  0.77979135752E+02  0.00000000000E+00 0.  1.
</event>
<event>
 7    1  0.2556591E-009  0.1085667E+03  0.7561462E-02  0.1263247E+00
         -3   -1    0    0    0  501 -0.00000000000E+00  0.00000000000E+00  0.61917124513E+02  0.61917124513E+02  0.00000000000E+00 0.  1.
          3   -1    0    0  501    0  0.00000000000E+00 -0.00000000000E+00 -0.23643811727E+03  0.23643811727E+03  0.00000000000E+00 0. -1.
         25    2    1    2    0    0 -0.34119077962E+02  0.50591451115E+02 -0.59725874945E+02  0.15145572426E+03  0.12509216548E+03 0.  0.
          5    1    3    3  502    0  0.91940089530E+01  0.81050099537E+02 -0.17330063364E+02  0.83495221012E+02  0.41800000000E+01 0. -1.
         -5    1    3    3    0  502 -0.43313086915E+02 -0.30458648422E+02 -0.42395811581E+02  0.67960503245E+02  0.41800000000E+01 0. -1.
        -11    1    1    2    0    0  0.39559093123E+02 -0.59767786953E+02 -0.67633387002E+02  0.98546360883E+02  0.00000000000E+00 0.  1.
         11    1    1    2    0    0 -0.54400151611E+01  0.91763358374E+01 -0.47161730806E+02  0.48353156639E+02  0.00000000000E+00 0. -1.
</event>
<event>
 7    1  0.2556591E-009  0.1688685E+03  0.7561462E-02  0.1179033E+00
          1   -1    0    0  501    0  0.00000000000E+00  0.00000000000E+00  0.31751342285E+02  0.31751342285E+02  0.00000000000E+00 0. -1.
         -1   -1    0    0    0  501 -0.00000000000E+00 -0.00000000000E+00 -0.11225759219E+04  0.11225759219E+04  0.00000000000E+00 0.  1.
         25    2    1    2    0    0  0.13492272972E+03  0.14239862141E+02 -0.79629663035E+03  0.81740034092E+03  0.12509227456E+03 0.  0.
          5    1    3    3  502    0  0.11086902262E+03  0.62358945294E+02 -0.62420510784E+03  0.63704793171E+03  0.41800000000E+01 0.  1.
         -5    1    3    3    0  502  0.24053707106E+02 -0.48119083153E+02 -0.17209152251E+03  0.18035240921E+03  0.41800000000E+01 0.  1.
        -11    1    1    2    0    0 -0.53193993662E+02 -0.44503308858E+02 -0.83089278954E+02  0.10823111262E+03  0.00000000000E+00 0. -1.
         11    1    1    2    0    0 -0.81728736060E+02  0.30263446717E+02 -0.21143867027E+03  0.22869581061E+03  0.00000000000E+00 0.  1.
</event>
<event>
 7    1  0.2556591E-009  0.1492643E+03  0.7561462E-02  0.1201380E+00
         -2   -1    0    0    0  501 -0.00000000000E+00  0.00000000000E+00  0.50088340374E+02  0.50088340374E+02  0.00000000000E+00 0.  1.
          2   -1    0    0  501    0  0.00000000000E+00 -0.00000000000E+00 -0.52094482048E+03  0.52094482048E+03  0.00000000000E+00 0. -1.
         25    2    1    2    0    0  0.11636404489E+03 -0.73972095004E+01 -0.31475919747E+03  0.35821536642E+03  0.12509830812E+03 0.  0.
          5    1    3    3  502    0  0.98791672642E+02 -0.59640234888E+02 -0.20345166473E+03  0.23393760810E+03  0.41800000000E+01 0.  1.
         -5    1    3    3    0  502  0.17572372244E+02  0.52243025387E+02 -0.11130753274E+03  0.12427775832E+03  0.41800000000E+01 0.  1.
        -11    1    1    2    0    0 -0.80533864430E+01  0.17231896631E+02 -0.74403951264E+02  0.76796765937E+02  0.00000000000E+00 0. -1.
         11    1    1    2    0    0 -0.10831065844E+03 -0.98346871302E+01 -0.81693331363E+02  0.13602102849E+03  0.00000000000E+00 0.  1.
</event>
<event>
 7    1  0.2556591E-009  0.1219474E+03  0.7561462E-02  0.1239919E+00
         -1   -1    0    0    0  501 -0.00000000000E+00  0.00000000000E+00  0.52699417593E+02  0.52699417593E+02  0.00000000000E+00 0.  1.
          1   -1    0    0  501    0  0.00000000000E+00 -0.00000000000E+00 -0.30209350555E+03  0.30209350555E+03  0.00000000000E+00 0. -1.
         25    2    1    2    0    0 -0.56413413241E+02 -0.36189771086E+02 -0.13410833604E+03  0.19525478431E+03  0.12508881755E+03 0.  0.
          5    1    3    3  502    0  0.19173836271E+02  0.33621816071E+02 -0.37521560515E+02  0.54068497452E+02  0.41800000000E+01 0. -1.
         -5    1    3    3    0  502 -0.75587249511E+02 -0.69811587157E+02 -0.96586775524E+02  0.14118628686E+03  0.41800000000E+01 0. -1.
        -11    1    1    2    0    0 -0.99250439688E+01 -0.15143590593E+02 -0.14885141002E+01  0.18167292260E+02  0.00000000000E+00 0.  1.
         11    1    1    2    0    0  0.66338457209E+02  0.51333361680E+02 -0.11379723782E+03  0.14137084658E+03  0.00000000000E+00 0. -1.
</event>
<event>
 7    1  0.2556591E-009  0.8513600E+02  0.7561462E-02  0.1315077E+00
         -1   -1    0    0    0  501 -0.00000000000E+00  0.00000000000E+00  0.45484759030E+02  0.45484759030E+02  0.00000000000E+00 0.  1.
          1   -1    0    0  501    0  0.00000000000E+00 -0.00000000000E+00 -0.31550471128E+03  0.31550471128E+03  0.00000000000E+00 0. -1.
         25    2    1    2    0    0  0.25429683537E+02  0.37446795192E+01 -0.21780117675E+03  0.25247957836E+03  0.12509154035E+03 0.  0.
          5    1    3    3  502    0  0.37721489137E+02 -0.34055318739E+02 -0.27317445440E+02  0.57847996529E+02  0.41800000000E+01 0.  1.
         -5    1    3    3    0  502 -0.12291805600E+02  0.37799998258E+02 -0.19048373131E+03  0.19463158183E+03  0.41800000000E+01 0.  1.
        -11    1    1    2    0    0 -0.26052032660E+02 -0.37439839383E+02  0.87864040639E+00  0.45620411963E+02  0.00000000000E+00 0.  1.
         11    1    1    2    0    0  0.62234912303E+00  0.33695159864E+02 -0.53097415903E+02  0.62889479981E+02  0.00000000000E+00 0. -1.
</event>
<event>
 7    1  0.2556591E-009  0.1040682E+03  0.7561462E-02  0.1271967E+00
          2   -1    0    0  501    0  0.00000000000E+00  0.00000000000E+00  0.66065073607E+02  0.66065073607E+02  0.00000000000E+00 0. -1.
         -2   -1    0    0    0  501 -0.00000000000E+00 -0.00000000000E+00 -0.44510224193E+03  0.44510224193E+03  0.00000000000E+00 0.  1.
         25    2    1    2    0    0  0.64345088689E+02 -0.29020656808E+02 -0.36969813345E+03  0.39661888732E+03  0.12508933983E+03 0.  0.
          5    1    3    3  502    0  0.54277204009E+02  0.17474932171E+02 -0.58578659665E+02  0.81855481781E+02  0.41800000000E+01 0.  1.
         -5    1    3    3    0  502  0.10067884680E+02 -0.46495588979E+02 -0.31111947379E+03  0.31476340554E+03  0.41800000000E+01 0.  1.
        -11    1    1    2    0    0 -0.11609941304E+01  0.39191338772E+02 -0.27656501541E+02  0.47981152754E+02  0.00000000000E+00 0.  1.
         11    1    1    2    0    0 -0.63184094558E+02 -0.10170681964E+02  0.18317466675E+02  0.66567275460E+02  0.00000000000E+00 0. -1.
</event>
<event>
 7    1  0.2556591E-009  0.1327132E+03  0.7561462E-02  0.1223485E+00
          2   -1    0    0  501    0  0.00000000000E+00  0.00000000000E+00  0.42868595343E+03  0.42868595343E+03  0.00000000000E+00 0. -1.
         -2   -1    0    0    0  501 -0.00000000000E+00 -0.00000000000E+00 -0.58996862222E+02  0.58996862222E+02  0.00000000000E+00 0.  1.
         25    2    1    2    0    0  0.63506205600E+02  0.88488162285E+02  0.13785509312E+03  0.21567235309E+03  0.12508934476E+03 0.  0.
          5    1    3    3  502    0  0.22284370980E+02 -0.25399538364E+02  0.27210705578E+01  0.34155619802E+02  0.41800000000E+01 0. -1.
         -5    1    3    3    0  502  0.41221834620E+02  0.11388770065E+03  0.13513402256E+03  0.18151673329E+03  0.41800000000E+01 0. -1.
        -11    1    1    2    0    0 -0.29805303010E+02 -0.55680539434E+02  0.21157481033E+03  0.22079986170E+03  0.00000000000E+00 0. -1.
         11    1    1    2    0    0 -0.33700902590E+02 -0.32807622851E+02  0.20259187756E+02  0.51210600866E+02  0.00000000000E+00 0.  1.
</event>
<event>
 7    1  0.2556591E-009  0.1279489E+03  0.7561462E-02  0.1230531E+00
         -1   -1    0    0    0  501 -0.00000000000E+00  0.00000000000E+00  0.11956283436E+02  0.11956283436E+02  0.00000000000E+00 0.  1.
          1   -1    0    0  501    0  0.00000000000E+00 -0.00000000000E+00 -0.14078208304E+04  0.14078208304E+04  0.00000000000E+00 0. -1.
         25    2    1    2    0    0  0.71622476819E+02  0.67780806987E+00 -0.83194994256E+03  0.84434536691E+03  0.12509257809E+03 0.  0.
          5    1    3    3  502    0  0.61065271337E+02 -0.57416834396E+02 -0.53645703181E+03  0.54298184096E+03  0.41800000000E+01 0.  1.
         -5    1    3    3    0  502  0.10557205482E+02  0.58094642466E+02 -0.29549291075E+03  0.30136352595E+03  0.41800000000E+01 0.  1.
        -11    1    1    2    0    0  0.38038431423E+01  0.30811220189E+02 -0.11392580781E+03  0.11808001608E+03  0.00000000000E+00 0.  1.
         11    1    1    2    0    0 -0.75426319962E+02 -0.31489028259E+02 -0.44998879655E+03  0.45735173080E+03  0.00000000000E+00 0. -1.
</event>
<event>
 7    1  0.2556591E-009  0.9640979E+02  0.7561462E-02  0.1288032E+00
          2   -1    0    0  501    0  0.00000000000E+00  0.00000000000E+00  0.48465850241E+02  0.48465850241E+02  0.00000000000E+00 0.  1.
         -2   -1    0    0    0  501 -0.00000000000E+00 -0.00000000000E+00 -0.28427103022E+03  0.28427103022E+03  0.00000000000E+00 0. -1.
         25    2    1    2    0    0 -0.80577706758E+01 -0.42657689690E+02 -0.11254421935E+03  0.17377689851E+03  0.12509037927E+03 0.  0.
          5    1    3    3  502    0 -0.29172456923E+02 -0.64325719669E+02 -0.12265922368E+03  0.14160362993E+03  0.41800000000E+01 0.  1.
         -5    1    3    3    0  502  0.21114686247E+02  0.21668029979E+02  0.10115004331E+02  0.32173268580E+02  0.41800000000E+01 0.  1.
        -11    1    1    2    0    0 -0.33562373237E+02  0.24481308394E+01 -0.79742020400E+02  0.86551811416E+02  0.00000000000E+00 0. -1.
         11    1    1    2    0    0  0.41620143913E+02  0.40209558850E+02 -0.43518940226E+02  0.72408170538E+02  0.00000000000E+00 0.  1.
</event>
<event>
 7    1  0.2556591E-009  0.1062027E+03  0.7561462E-02  0.1267768E+00
         -3   -1    0    0    0  501 -0.00000000000E+00  0.00000000000E+00  0.26197820843E+03  0.26197820843E+03  0.00000000000E+00 0.  1.
          3   -1    0    0  501    0  0.00000000000E+00 -0.00000000000E+00 -0.90865338799E+02  0.90865338799E+02  0.00000000000E+00 0. -1.
         25    2    1    2    0    0  0.21768872178E+02  0.45055041371E+02  0.20416703048E+03  0.24461279595E+03  0.12508958013E+03 0.  0.
          5    1    3    3  502    0 -0.39388528886E+02 -0.20624934093E+00  0.13840101667E+03  0.14395767629E+03  0.41800000000E+01 0.  1.
         -5    1    3    3    0  502  0.61157401064E+02  0.45261290712E+02  0.65766013815E+02  0.10065511967E+03  0.41800000000E+01 0.  1.
        -11    1    1    2    0    0  0.56384653833E+01  0.22762152591E+02 -0.25582647672E+02  0.34704174740E+02  0.00000000000E+00 0. -1.
         11    1    1    2    0    0 -0.27407337561E+02 -0.67817193961E+02 -0.74715131773E+01  0.73526576543E+02  0.00000000000E+00 0.  1.
</event>
<event>
 7    1  0.2556591E-009  0.9490193E+02  0.7561462E-02  0.1291397E+00
         -1   -1    0    0    0  501 -0.00000000000E+00  0.00000000000E+00  0.18468784189E+02  0.18468784189E+02  0.00000000000E+00 0.  1.
          1   -1    0    0  501    0  0.00000000000E+00 -0.00000000000E+00 -0.10108649130E+04  0.10108649130E+04  0.00000000000E+00 0. -1.
         25    2    1    2    0    0  0.49408747035E+01 -0.54012225612E+02 -0.78548020132E+03  0.79722547320E+03  0.12509027018E+03 0.  0.
          5    1    3    3  502    0 -0.32274719944E+02 -0.53660499927E+02 -0.18072120114E+03  0.19130795002E+03  0.41800000000E+01 0. -1.
         -5    1    3    3    0  502  0.37215594647E+02 -0.35172568532E+00 -0.60475900018E+03  0.60591752318E+03  0.41800000000E+01 0. -1.
        -11    1    1    2    0    0  0.29102490989E+02  0.44116231449E+01 -0.13582932996E+03  0.13898210057E+03  0.00000000000E+00 0. -1.
         11    1    1    2    0    0 -0.34043365692E+02  0.49600602468E+02 -0.71086597481E+02  0.93126123371E+02  0.00000000000E+00 0.  1.
</event>
<event>
 7    1  0.2556591E-009  0.1656879E+03  0.7561462E-02  0.1182421E+00
         -1   -1    0    0    0  501 -0.00000000000E+00  0.00000000000E+00  0.70593639314E+02  0.70593639314E+02  0.00000000000E+00 0.  1.
          1   -1    0    0  501    0  0.00000000000E+00 -0.00000000000E+00 -0.57333686069E+03  0.57333686069E+03  0.00000000000E+00 0. -1.
         25    2    1    2    0    0 -0.13844224586E+03 -0.18562712789E+02 -0.10986290345E+03  0.21731955448E+03  0.12508837461E+03 0.  0.
          5    1    3    3  502    0 -0.15055175370E+03 -0.80414981206E+01 -0.12421685301E+03  0.19539138980E+03  0.41800000000E+01 0. -1.
         -5    1    3    3    0  502  0.12109507844E+02 -0.10521214668E+02  0.14353949563E+02  0.21928164684E+02  0.41800000000E+01 0. -1.
        -11    1    1    2    0    0  0.82129195723E+02  0.53206646191E+02 -0.26802011363E+03  0.28532601231E+03  0.00000000000E+00 0.  1.
         11    1    1    2    0    0  0.56313050134E+02 -0.34643933402E+02 -0.12486020430E+03  0.14128493322E+03  0.00000000000E+00 0. -1.
</event>
<event>
 7    1  0.2556591E-009  0.1868427E+03  0.7561462E-02  0.1161340E+00
          2   -1    0    0  501    0  0.00000000000E+00  0.00000000000E+00  0.53402591882E+03  0.53402591882E+03  0.00000000000E+00 0.  1.
         -2   -1    0    0    0  501 -0.00000000000E+00 -0.00000000000E+00 -0.97801710980E+02  0.97801710980E+02  0.00000000000E+00 0. -1.
         25    2    1    2    0    0 -0.14297831489E+02  0.15774221947E+03  0.54750768378E+02  0.20912369088E+03  0.12509210870E+03 0.  0.
          5    1    3    3  502    0  0.53438197415E+02  0.84928893904E+02  0.13317409451E+02  0.10130835976E+03  0.41800000000E+01 0.  1.
         -5    1    3    3    0  502 -0.67736028904E+02  0.72813325567E+02  0.41433358927E+02  0.10781533112E+03  0.41800000000E+01 0.  1.
        -11    1    1    2    0    0 -0.28436225418E+02 -0.81498248765E+02  0.12631160020E+03  0.15298759366E+03  0.00000000000E+00 0. -1.
         11    1    1    2    0    0  0.42734056907E+02 -0.76243970706E+02  0.25516183926E+03  0.26971634527E+03  0.00000000000E+00 0.  1.
</event>
<event>
 7    1  0.2556591E-009  0.1007378E+03  0.7561462E-02  0.1278752E+00
          2   -1    0    0  501    0  0.00000000000E+00  0.00000000000E+00  0.36260492485E+03  0.36260492485E+03  0.00000000000E+00 0. -1.
         -2   -1    0    0    0  501 -0.00000000000E+00 -0.00000000000E+00 -0.41256278987E+02  0.41256278987E+02  0.00000000000E+00 0.  1.
         25    2    1    2    0    0 -0.32321262419E+00  0.32845044719E+02  0.11858787896E+03  0.17546946998E+03  0.12509016121E+03 0.  0.
          5    1    3    3  502    0  0.45431838202E+02  0.13479524847E+02  0.11618966102E+03  0.12555181894E+03  0.41800000000E+01 0.  1.
         -5    1    3    3    0  502 -0.45755050826E+02  0.19365519872E+02  0.23982179382E+01  0.49917651039E+02  0.41800000000E+01 0.  1.
        -11    1    1    2    0    0  0.22873200122E+02 -0.62634534884E+02  0.11367955613E+03  0.13179267705E+03  0.00000000000E+00 0. -1.
         11    1    1    2    0    0 -0.22549987498E+02  0.29789490165E+02  0.89081210778E+02  0.96599056797E+02  0.00000000000E+00 0.  1.
</event>
<event>
 7    1  0.2556591E-009  0.7981988E+02  0.7561462E-02  0.1329563E+00
         -3   -1    0    0    0  501 -0.00000000000E+00  0.00000000000E+00  0.69473815238E+02  0.69473815238E+02  0.00000000000E+00 0.  1.
          3   -1    0    0  501    0  0.00000000000E+00 -0.00000000000E+00 -0.26372919847E+03  0.26372919847E+03  0.00000000000E+00 0. -1.
         25    2    1    2    0    0  0.12092417224E+02 -0.33391280110E+02 -0.19726611023E+03  0.23626784120E+03  0.12508944959E+03 0.  0.
          5    1    3    3  502    0  0.55824374919E+02 -0.43758565489E+02 -0.16817070737E+03  0.18256514483E+03  0.41800000000E+01 0.  1.
         -5    1    3    3    0  502 -0.43731957695E+02  0.10367285379E+02 -0.29095402860E+02  0.53702696371E+02  0.41800000000E+01 0.  1.
        -11    1    1    2    0    0  0.78069273439E+01  0.78663872015E+01  0.43620167447E+02  0.45006079259E+02  0.00000000000E+00 0.  1.
         11    1    1    2    0    0 -0.19899344568E+02  0.25524892908E+02 -0.40609440453E+02  0.51929093253E+02  0.00000000000E+00 0. -1.
</event>
<event>
 7    1  0.2603975E-009  0.1459251E+03  0.7561462E-02  0.1205572E+00
         -1   -1    0    0    0  501 -0.00000000000E+00  0.00000000000E+00  0.21713279664E+02  0.21713279664E+02  0.00000000000E+00 0.  1.
          1   -1    0    0  501    0  0.00000000000E+00 -0.00000000000E+00 -0.19696894685E+04  0.19696894685E+04  0.00000000000E+00 0. -1.
         25    2    1    2    0    0  0.13173139748E+03 -0.62339179687E+02 -0.14867825243E+04  0.14991358290E+04  0.12508646945E+03 0.  0.
          5    1    3    3  502    0  0.98918571439E+02 -0.44877689423E+02 -0.14050775728E+04  0.14092761790E+04  0.41800000000E+01 0.  1.
         -5    1    3    3    0  502  0.32812826037E+02 -0.17461490264E+02 -0.81704951486E+02  0.89859649967E+02  0.41800000000E+01 0.  1.
        -11    1    1    2    0    0 -0.79790117047E+02  0.37052322228E+02 -0.13594091534E+03  0.16192365431E+03  0.00000000000E+00 0.  1.
         11    1    1    2    0    0 -0.51941280430E+02  0.25286857459E+02 -0.32525274923E+03  0.33034326488E+03  0.00000000000E+00 0. -1.
</event>
<event>
 7    1  0.2556591E-009  0.1201591E+03  0.7561462E-02  0.1242835E+00
         -1   -1    0    0    0  501 -0.00000000000E+00  0.00000000000E+00  0.74760912599E+02  0.74760912599E+02  0.00000000000E+00 0.  1.
          1   -1    0    0  501    0  0.00000000000E+00 -0.00000000000E+00 -0.35954378109E+03  0.35954378109E+03  0.00000000000E+00 0. -1.
         25    2    1    2    0    0 -0.10073350787E+03 -0.53825732708E+02 -0.16401819476E+03  0.23578615088E+03  0.12509473060E+03 0.  0.
          5    1    3    3  502    0 -0.32538215231E+02 -0.24042060505E+02 -0.15554342909E+03  0.16077309121E+03  0.41800000000E+01 0.  1.
         -5    1    3    3    0  502 -0.68195292635E+02 -0.29783672203E+02 -0.84747656709E+01  0.75013059668E+02  0.41800000000E+01 0.  1.
        -11    1    1    2    0    0  0.26958643405E+02  0.42708571580E+02  0.65757197628E+01  0.50931627022E+02  0.00000000000E+00 0.  1.
         11    1    1    2    0    0  0.73774864461E+02  0.11117161127E+02 -0.12734039349E+03  0.14758691579E+03  0.00000000000E+00 0. -1.
</event>
<event>
 7    1  0.2556591E-009  0.8393066E+02  0.7561462E-02  0.1318253E+00
         -2   -1    0    0    0  501 -0.00000000000E+00  0.00000000000E+00  0.52018708614E+02  0.52018708614E+02  0.00000000000E+00 0.  1.
          2   -1    0    0  501    0  0.00000000000E+00 -0.00000000000E+00 -0.25440561053E+03  0.25440561053E+03  0.00000000000E+00 0. -1.
         25    2    1    2    0    0 -0.14448505289E+02  0.71297137982E+01 -0.16203438149E+03  0.20534493326E+03  0.12510718886E+03 0.  0.
          5    1    3    3  502    0  0.13823996056E+02 -0.33202555294E+02 -0.15021863343E+03  0.15452062249E+03  0.41800000000E+01 0.  1.
         -5    1    3    3    0  502 -0.28272501346E+02  0.40332269092E+02 -0.11815748059E+02  0.50824310764E+02  0.41800000000E+01 0.  1.
        -11    1    1    2    0    0  0.48179217607E+02 -0.45030888138E+01  0.40469551887E-01  0.48389218385E+02  0.00000000000E+00 0.  1.
         11    1    1    2    0    0 -0.33730712318E+02 -0.26266249844E+01 -0.40392989976E+02  0.52690167502E+02  0.00000000000E+00 0. -1.
</event>
<event>
 7    1  0.2556591E-009  0.1763343E+03  0.7561462E-02  0.1171399E+00
         -3   -1    0    0    0  501 -0.00000000000E+00  0.00000000000E+00  0.28508025959E+03  0.28508025959E+03  0.00000000000E+00 0.  1.
          3   -1    0    0  501    0  0.00000000000E+00 -0.00000000000E+00 -0.16402387386E+03  0.16402387386E+03  0.00000000000E+00 0. -1.
         25    2    1    2    0    0  0.12886173217E+03  0.11687711853E+03  0.13376900658E+03  0.25260117861E+03  0.12509037317E+03 0.  0.
          5    1    3    3  502    0  0.27608805147E+02  0.13223784217E+02  0.98749905674E+02  0.10347043472E+03  0.41800000000E+01 0.  1.
         -5    1    3    3    0  502  0.10125292702E+03  0.10365333431E+03  0.35019100903E+02  0.14913074388E+03  0.41800000000E+01 0.  1.
        -11    1    1    2    0    0 -0.23483216764E+02 -0.68517361615E+01  0.29587629421E+02  0.38390566195E+02  0.00000000000E+00 0.  1.
         11    1    1    2    0    0 -0.10537851540E+03 -0.11002538237E+03 -0.42300250267E+02  0.15811238865E+03  0.00000000000E+00 0. -1.
</event>
<event>
 7    1  0.2556591E-009  0.8792465E+02  0.7561462E-02  0.1307957E+00
          2   -1    0    0  501    0  0.00000000000E+00  0.00000000000E+00  0.26618091874E+03  0.26618091874E+03  0.00000000000E+00 0. -1.
         -2   -1    0    0    0  501 -0.00000000000E+00 -0.00000000000E+00 -0.49586466482E+02  0.49586466482E+02  0.00000000000E+00 0.  1.
         25    2    1    2    0    0 -0.81563519367E+01 -0.27066986895E+02  0.16303540826E+03  0.20743019499E+03  0.12509034173E+03 0.  0.
          5    1    3    3  502    0 -0.50909431786E+02 -0.46205820948E+02  0.50331133793E+02  0.85307933764E+02  0.41800000000E+01 0. -1.
         -5    1    3    3    0  502  0.42753079849E+02  0.19138834054E+02  0.11270427446E+03  0.12212226123E+03  0.41800000000E+01 0. -1.
        -11    1    1    2    0    0  0.67968002370E+01  0.43210990837E+02  0.71715757886E+02  0.84003191319E+02  0.00000000000E+00 0. -1.
         11    1    1    2    0    0  0.13595516996E+01 -0.16144003942E+02 -0.18156713881E+02  0.24333998912E+02  0.00000000000E+00 0.  1.
</event>
<event>
 7    1  0.2556591E-009  0.1001634E+03  0.7561462E-02  0.1279953E+00
         -2   -1    0    0    0  501 -0.00000000000E+00  0.00000000000E+00  0.58447896958E+02  0.58447896958E+02  0.00000000000E+00 0.  1.
          2   -1    0    0  501    0  0.00000000000E+00 -0.00000000000E+00 -0.28898218305E+03  0.28898218305E+03  0.00000000000E+00 0. -1.
         25    2    1    2    0    0 -0.74242146494E+02 -0.23629512734E+02 -0.13392517872E+03  0.19913636909E+03  0.12509632213E+03 0.  0.
          5    1    3    3  502    0 -0.47697717423E+02 -0.38325145573E+02  0.43311062641E+00  0.61331468395E+02  0.41800000000E+01 0.  1.
         -5    1    3    3    0  502 -0.26544429071E+02  0.14695632839E+02 -0.13435828934E+03  0.13780490069E+03  0.41800000000E+01 0.  1.
        -11    1    1    2    0    0 -0.10554806012E+02 -0.12358128715E+02 -0.22184027474E+01  0.16402700571E+02  0.00000000000E+00 0.  1.
         11    1    1    2    0    0  0.84796952506E+02  0.35987641449E+02 -0.94390704631E+02  0.13189101035E+03  0.00000000000E+00 0. -1.
</event>
<event>
 7    1  0.2556591E-009  0.8795784E+02  0.7561462E-02  0.1307874E+00
          2   -1    0    0  501    0  0.00000000000E+00  0.00000000000E+00  0.15820306950E+02  0.15820306950E+02  0.00000000000E+00 0. -1.
         -2   -1    0    0    0  501 -0.00000000000E+00 -0.00000000000E+00 -0.83985573888E+03  0.83985573888E+03  0.00000000000E+00 0.  1.
         25    2    1    2    0    0 -0.42541965586E+01  0.42256006310E+02 -0.45047632087E+03  0.46944636483E+03  0.12508919032E+03 0.  0.
          5    1    3    3  502    0 -0.26788106409E+02  0.50869498779E+02 -0.43835100655E+03  0.44212485329E+03  0.41800000000E+01 0. -1.
         -5    1    3    3    0  502  0.22533909851E+02 -0.86134924694E+01 -0.12125314312E+02  0.27321511540E+02  0.41800000000E+01 0. -1.
        -11    1    1    2    0    0 -0.15694690831E+02 -0.63049297422E+02 -0.30530848775E+03  0.31214549479E+03  0.00000000000E+00 0.  1.
         11    1    1    2    0    0  0.19948887390E+02  0.20793291112E+02 -0.68250623321E+02  0.74084186215E+02  0.00000000000E+00 0. -1.
</event>
<event>
 7    1  0.2556591E-009  0.1211801E+03  0.7561462E-02  0.1241163E+00
          2   -1    0    0  501    0  0.00000000000E+00  0.00000000000E+00  0.64259260407E+03  0.64259260407E+03  0.00000000000E+00 0. -1.
         -2   -1    0    0    0  501 -0.00000000000E+00 -0.00000000000E+00 -0.35245504310E+02  0.35245504310E+02  0.00000000000E+00 0.  1.
         25    2    1    2    0    0 -0.96050340712E+02  0.34243613336E+02  0.34196609233E+03  0.37813602599E+03  0.12509097825E+03 0.  0.
          5    1    3    3  502    0 -0.10153233156E+03  0.13925051394E+02  0.34161119680E+03  0.35667688962E+03  0.41800000000E+01 0.  1.
         -5    1    3    3    0  502  0.54819908514E+01  0.20318561942E+02  0.35489553657E+00  0.21459136374E+02  0.41800000000E+01 0.  1.
        -11    1    1    2    0    0  0.48052763945E+02 -0.48492131330E+02  0.22575275919E+03  0.23584923830E+03  0.00000000000E+00 0. -1.
         11    1    1    2    0    0  0.47997576767E+02  0.14248517993E+02  0.39628248235E+02  0.63852844092E+02  0.00000000000E+00 0.  1.
</event>
<event>
 7    1  0.2556591E-009  0.1198948E+03  0.7561462E-02  0.1243271E+00
          1   -1    0    0  501    0  0.00000000000E+00  0.00000000000E+00  0.75129889547E+03  0.75129889547E+03  0.00000000000E+00 0. -1.
         -1   -1    0    0    0  501 -0.00000000000E+00 -0.00000000000E+00 -0.36355020204E+02  0.36355020204E+02  0.00000000000E+00 0.  1.
         25    2    1    2    0    0  0.19886349980E+02 -0.90551074288E+02  0.57947940993E+03  0.60003058632E+03  0.12508138958E+03 0.  0.
          5    1    3    3  502    0 -0.18242200826E+01 -0.10096938419E+03  0.55923217738E+03  0.56829239388E+03  0.41800000000E+01 0.  1.
         -5    1    3    3    0  502  0.21710570062E+02  0.10418309902E+02  0.20247232547E+02  0.31738192442E+02  0.41800000000E+01 0.  1.
        -11    1    1    2    0    0 -0.44424769754E+02  0.66051118087E+02  0.46611514696E+02  0.92243935684E+02  0.00000000000E+00 0.  1.
         11    1    1    2    0    0  0.24538419775E+02  0.24499956201E+02  0.88852950640E+02  0.95379393667E+02  0.00000000000E+00 0. -1.
</event>
<event>
 7    1  0.2556591E-009  0.2392144E+03  0.7561462E-02  0.1120317E+00
         -1   -1    0    0    0  501 -0.00000000000E+00  0.00000000000E+00  0.10690859216E+04  0.10690859216E+04  0.00000000000E+00 0.  1.
          1   -1    0    0  501    0  0.00000000000E+00 -0.00000000000E+00 -0.69099838829E+02  0.69099838829E+02  0.00000000000E+00 0. -1.
         25    2    1    2    0    0 -0.22751570526E+03 -0.96543730336E+01  0.71101321044E+03  0.75699638478E+03  0.12508852104E+03 0.  0.
          5    1    3    3  502    0 -0.19278984559E+03 -0.29969260725E+02  0.67565260650E+03  0.70327092803E+03  0.41800000000E+01 0. -1.
         -5    1    3    3    0  502 -0.34725859669E+02  0.20314887692E+02  0.35360603941E+02  0.53725456747E+02  0.41800000000E+01 0. -1.
        -11    1    1    2    0    0  0.92893251032E+02  0.45614010849E+02  0.83747540062E+02  0.13312942777E+03  0.00000000000E+00 0. -1.
         11    1    1    2    0    0  0.13462245422E+03 -0.35959637815E+02  0.20522533226E+03  0.24805994787E+03  0.00000000000E+00 0.  1.
</event>
<event>
 7    1  0.2556591E-009  0.1103300E+03  0.7561462E-02  0.1259960E+00
          2   -1    0    0  501    0  0.00000000000E+00  0.00000000000E+00  0.17093221718E+03  0.17093221718E+03  0.00000000000E+00 0.  1.
         -2   -1    0    0    0  501 -0.00000000000E+00 -0.00000000000E+00 -0.89800363841E+02  0.89800363841E+02  0.00000000000E+00 0. -1.
         25    2    1    2    0    0 -0.23112606289E+02 -0.47102684388E+02  0.25628467007E+02  0.13804855406E+03  0.12509088501E+03 0.  0.
          5    1    3    3  502    0  0.48104962089E+02  0.20980226190E+01  0.27071436813E+01  0.48407541803E+02  0.41800000000E+01 0. -1.
         -5    1    3    3    0  502 -0.71217568378E+02 -0.49200707007E+02  0.22921323326E+02  0.89641012259E+02  0.41800000000E+01 0. -1.
        -11    1    1    2    0    0  0.19295538834E+02  0.64774760458E+02  0.71611306445E+02  0.98469622839E+02  0.00000000000E+00 0.  1.
         11    1    1    2    0    0  0.38170674547E+01 -0.17672076070E+02 -0.16107920112E+02  0.24214404120E+02  0.00000000000E+00 0. -1.
</event>
<event>
 7    1  0.2556591E-009  0.1072474E+03  0.7561462E-02  0.1265754E+00
          1   -1    0    0  501    0  0.00000000000E+00  0.00000000000E+00  0.83998270616E+03  0.83998270616E+03  0.00000000000E+00 0. -1.
         -1   -1    0    0    0  501 -0.00000000000E+00 -0.00000000000E+00 -0.20589864776E+02  0.20589864776E+02  0.00000000000E+00 0.  1.
         25    2    1    2    0    0 -0.26816931093E+02 -0.47220155645E+02  0.61172770871E+03  0.62674353221E+03  0.12509106550E+03 0.  0.
          5    1    3    3  502    0  0.34364335711E+02 -0.33973816531E+02  0.46009075409E+03  0.46264035943E+03  0.41800000000E+01 0.  1.
         -5    1    3    3    0  502 -0.61181266804E+02 -0.13246339114E+02  0.15163695462E+03  0.16410317277E+03  0.41800000000E+01 0.  1.
        -11    1    1    2    0    0 -0.22161927931E+02 -0.12950081252E+02  0.84063486340E+02  0.87894967943E+02  0.00000000000E+00 0. -1.
         11    1    1    2    0    0  0.48978859024E+02  0.60170236898E+02  0.12360164634E+03  0.14593407079E+03  0.00000000000E+00 0.  1.
</event>
<event>
 7    1  0.2556591E-009  0.1175746E+03  0.7561462E-02  0.1247153E+00
         -2   -1    0    0    0  501 -0.00000000000E+00  0.00000000000E+00  0.15189130964E+03  0.15189130964E+03  0.00000000000E+00 0.  1.
          2   -1    0    0  501    0  0.00000000000E+00 -0.00000000000E+00 -0.10383045675E+03  0.10383045675E+03  0.00000000000E+00 0. -1.
         25    2    1    2    0    0 -0.51120570952E+02  0.32190641077E+02  0.38726283096E+02  0.14420973502E+03  0.12508865866E+03 0.  0.
          5    1    3    3  502    0 -0.91075794334E+02  0.26411912644E+02  0.12147076372E+02  0.95694374482E+02  0.41800000000E+01 0. -1.
         -5    1    3    3    0  502  0.39955223382E+02  0.57787284334E+01  0.26579206725E+02  0.48515360536E+02  0.41800000000E+01 0. -1.
        -11    1    1    2    0    0 -0.20494430076E+02  0.13969925985E+01  0.23436370749E+02  0.31164671125E+02  0.00000000000E+00 0.  1.
         11    1    1    2    0    0  0.71615001028E+02 -0.33587633676E+02 -0.14101800964E+02  0.80347360247E+02  0.00000000000E+00 0. -1.
</event>
<event>
 7    1  0.2556591E-009  0.1655201E+03  0.7561462E-02  0.1182602E+00
          3   -1    0    0  501    0  0.00000000000E+00  0.00000000000E+00  0.40644745852E+03  0.40644745852E+03  0.00000000000E+00 0. -1.
         -3   -1    0    0    0  501 -0.00000000000E+00 -0.00000000000E+00 -0.76150155854E+02  0.76150155854E+02  0.00000000000E+00 0.  1.
         25    2    1    2    0    0 -0.10754742371E+03  0.72155140913E+02  0.10561656301E+03  0.20874622269E+03  0.12508922574E+03 0.  0.
          5    1    3    3  502    0 -0.11177562755E+03  0.98247373271E+02  0.70853843058E+02  0.16487594350E+03  0.41800000000E+01 0.  1.
         -5    1    3    3    0  502  0.42282038397E+01 -0.26092232359E+02  0.34762719956E+02  0.43870279186E+02  0.41800000000E+01 0.  1.
        -11    1    1    2    0    0  0.14368779813E+02  0.19818215813E+02  0.24315568640E+02  0.34503193905E+02  0.00000000000E+00 0.  1.
         11    1    1    2    0    0  0.93178643900E+02 -0.91973356726E+02  0.20036517101E+03  0.23934819778E+03  0.00000000000E+00 0. -1.
</event>
<event>
 7    1  0.2556591E-009  0.9916836E+02  0.7561462E-02  0.1282055E+00
          2   -1    0    0  501    0  0.00000000000E+00  0.00000000000E+00  0.39684372088E+03  0.39684372088E+03  0.00000000000E+00 0. -1.
         -2   -1    0    0    0  501 -0.00000000000E+00 -0.00000000000E+00 -0.41203165738E+02  0.41203165738E+02  0.00000000000E+00 0.  1.
         25    2    1    2    0    0  0.10617029712E+02 -0.34107811768E+02  0.99700504419E+02  0.16390042221E+03  0.12508834348E+03 0.  0.
          5    1    3    3  502    0  0.45591705744E+02 -0.66872146173E+02  0.71893556938E+02  0.10833579046E+03  0.41800000000E+01 0.  1.
         -5    1    3    3    0  502 -0.34974676032E+02  0.32764334405E+02  0.27806947481E+02  0.55564631743E+02  0.41800000000E+01 0.  1.
        -11    1    1    2    0    0 -0.30719507233E+02  0.13446690301E+01  0.23901987238E+02  0.38946132714E+02  0.00000000000E+00 0.  1.
         11    1    1    2    0    0  0.20102477521E+02  0.32763142738E+02  0.23203806349E+03  0.23520033170E+03  0.00000000000E+00 0. -1.
</event>
<event>
 7    1  0.2829047E-009  0.1246073E+03  0.7561462E-02  0.1235684E+00
         -2   -1    0    0    0  501 -0.00000000000E+00  0.00000000000E+00  0.69241624013E+02  0.69241624013E+02  0.00000000000E+00 0. -1.
          2   -1    0    0  501    0  0.00000000000E+00 -0.00000000000E+00 -0.35942887773E+03  0.35942887773E+03  0.00000000000E+00 0.  1.
         25    2    1    2    0    0  0.30004105326E+02  0.83180585477E+02 -0.57796897366E+02  0.16373117216E+03  0.12509260272E+03 0.  0.
          5    1    3    3  502    0  0.49410989239E+02  0.15465760829E+02  0.22697329705E+02  0.56685772389E+02  0.41800000000E+01 0. -1.
         -5    1    3    3    0  502 -0.19406883913E+02  0.67714824648E+02 -0.80494227070E+02  0.10704539977E+03  0.41800000000E+01 0. -1.
        -11    1    1    2    0    0 -0.62617178834E+02 -0.49457349515E+02 -0.13449876297E+03  0.15638688483E+03  0.00000000000E+00 0.  1.
         11    1    1    2    0    0  0.32613073508E+02 -0.33723235962E+02 -0.97891593390E+02  0.10855244476E+03  0.00000000000E+00 0. -1.
</event>
<event>
 7    1  0.2556591E-009  0.2658534E+03  0.7561462E-02  0.1103677E+00
          2   -1    0    0  501    0  0.00000000000E+00  0.00000000000E+00  0.14396064590E+04  0.14396064590E+04  0.00000000000E+00 0. -1.
         -2   -1    0    0    0  501 -0.00000000000E+00 -0.00000000000E+00 -0.73259981948E+02  0.73259981948E+02  0.00000000000E+00 0.  1.
         25    2    1    2    0    0 -0.11964407693E+03 -0.21844771318E+03  0.11041969530E+04  0.11388296242E+04  0.12509154001E+03 0.  0.
          5    1    3    3  502    0  0.81989258419E+01 -0.87410020497E+02  0.24373266339E+03  0.25909615527E+03  0.41800000000E+01 0.  1.
         -5    1    3    3    0  502 -0.12784300277E+03 -0.13103769268E+03  0.86046428957E+03  0.87973346889E+03  0.41800000000E+01 0.  1.
        -11    1    1    2    0    0  0.29628436694E+01  0.78203086685E+02  0.44451249278E+02  0.90002304260E+02  0.00000000000E+00 0.  1.
         11    1    1    2    0    0  0.11668123326E+03  0.14024462650E+03  0.21769827481E+03  0.28403451254E+03  0.00000000000E+00 0. -1.
</event>
<event>
 7    1  0.2556591E-009  0.1409896E+03  0.7561462E-02  0.1212004E+00
         -2   -1    0    0    0  501 -0.00000000000E+00  0.00000000000E+00  0.28159381425E+03  0.28159381425E+03  0.00000000000E+00 0.  1.
          2   -1    0    0  501    0  0.00000000000E+00 -0.00000000000E+00 -0.13910587887E+03  0.13910587887E+03  0.00000000000E+00 0. -1.
         25    2    1    2    0    0  0.54587038638E+02 -0.11488103109E+03  0.18621517149E+03  0.25787406922E+03  0.12508217056E+03 0.  0.
          5    1    3    3  502    0 -0.22802393417E+02 -0.42589538455E+02  0.12816966823E+03  0.13703559459E+03  0.41800000000E+01 0. -1.
         -5    1    3    3    0  502  0.77389432056E+02 -0.72291492636E+02  0.58045503259E+02  0.12083847463E+03  0.41800000000E+01 0. -1.
        -11    1    1    2    0    0 -0.47673526689E+02  0.10618205710E+03 -0.68936474539E+02  0.13527613211E+03  0.00000000000E+00 0. -1.
         11    1    1    2    0    0 -0.69135119490E+01  0.86989739947E+01  0.25209238431E+02  0.27549491798E+02  0.00000000000E+00 0.  1.
</event>
<event>
 7    1  0.2556591E-009  0.1250728E+03  0.7561462E-02  0.1234956E+00
          1   -1    0    0  501    0  0.00000000000E+00  0.00000000000E+00  0.67659460986E+03  0.67659460986E+03  0.00000000000E+00 0. -1.
         -1   -1    0    0    0  501 -0.00000000000E+00 -0.00000000000E+00 -0.33056430693E+02  0.33056430693E+02  0.00000000000E+00 0.  1.
         25    2    1    2    0    0 -0.29282675175E+02  0.83956687184E+02  0.22934745364E+03  0.27595935916E+03  0.12508842083E+03 0.  0.
          5    1    3    3  502    0  0.23733754639E+02  0.95926429858E+02  0.14438801995E+03  0.17501583859E+03  0.41800000000E+01 0. -1.
         -5    1    3    3    0  502 -0.53016429814E+02 -0.11969742674E+02  0.84959433697E+02  0.10094352056E+03  0.41800000000E+01 0. -1.
        -11    1    1    2    0    0  0.79837268450E+01 -0.71720383671E+02  0.39749220630E+03  0.40398961299E+03  0.00000000000E+00 0. -1.
         11    1    1    2    0    0  0.21298948330E+02 -0.12236303513E+02  0.16698519221E+02  0.29702068410E+02  0.00000000000E+00 0.  1.
</event>
<event>
 7    1  0.2556591E-009  0.1124725E+03  0.7561462E-02  0.1256059E+00
          1   -1    0    0  501    0  0.00000000000E+00  0.00000000000E+00  0.21010897415E+03  0.21010897415E+03  0.00000000000E+00 0. -1.
         -1   -1    0    0    0  501 -0.00000000000E+00 -0.00000000000E+00 -0.83092784944E+02  0.83092784944E+02  0.00000000000E+00 0.  1.
         25    2    1    2    0    0 -0.44385951816E+02  0.60526618349E+02  0.85629548584E+02  0.16915768655E+03  0.12509324155E+03 0.  0.
          5    1    3    3  502    0 -0.31139866657E+02 -0.15635538107E+02  0.84755900052E+02  0.91734379275E+02  0.41800000000E+01 0.  1.
         -5    1    3    3    0  502 -0.13246085159E+02  0.76162156455E+02  0.87364853202E+00  0.77423307277E+02  0.41800000000E+01 0.  1.
        -11    1    1    2    0    0  0.69550980550E+02 -0.45755182513E+02  0.45009501091E+02  0.94640006396E+02  0.00000000000E+00 0. -1.
         11    1    1    2    0    0 -0.25165028733E+02 -0.14771435836E+02 -0.36228604711E+01  0.29404066144E+02  0.00000000000E+00 0.  1.
</event>
<event>
 7    1  0.2556591E-009  0.1379096E+03  0.7561462E-02  0.1216170E+00
          2   -1    0    0  501    0  0.00000000000E+00  0.00000000000E+00  0.18275610042E+03  0.18275610042E+03  0.00000000000E+00 0. -1.
         -2   -1    0    0    0  501 -0.00000000000E+00 -0.00000000000E+00 -0.12831657709E+03  0.12831657709E+03  0.00000000000E+00 0.  1.
         25    2    1    2    0    0 -0.10665195329E+03 -0.68625948151E+01 -0.26831704097E+01  0.16455048362E+03  0.12509167802E+03 0.  0.
          5    1    3    3  502    0  0.23758851171E+02  0.49277229142E+01  0.19838084237E+02  0.31619415685E+02  0.41800000000E+01 0. -1.
         -5    1    3    3    0  502 -0.13041080446E+03 -0.11790317729E+02 -0.22521254647E+02  0.13293106794E+03  0.41800000000E+01 0. -1.
        -11    1    1    2    0    0  0.44035643944E+02  0.30164418158E+02 -0.71030226783E+01  0.53846847554E+02  0.00000000000E+00 0.  1.
         11    1    1    2    0    0  0.62616309346E+02 -0.23301823343E+02  0.64225716427E+02  0.92675346332E+02  0.00000000000E+00 0. -1.
</event>
<event>
 7    1  0.2556591E-009  0.1879469E+03  0.7561462E-02  0.1160326E+00
          2   -1    0    0  501    0  0.00000000000E+00  0.00000000000E+00  0.59807937670E+03  0.59807937670E+03  0.00000000000E+00 0. -1.
         -2   -1    0    0    0  501 -0.00000000000E+00 -0.00000000000E+00 -0.68055627617E+02  0.68055627617E+02  0.00000000000E+00 0.  1.
         25    2    1    2    0    0  0.55781013420E+02 -0.15218557052E+03  0.19068459859E+03  0.27978828475E+03  0.12509555873E+03 0.  0.
          5    1    3    3  502    0  0.65333175948E+02 -0.35257586047E+02  0.12452691779E+03  0.14503774304E+03  0.41800000000E+01 0. -1.
         -5    1    3    3    0  502 -0.95521625283E+01 -0.11692798447E+03  0.66157680799E+02  0.13475054171E+03  0.41800000000E+01 0. -1.
        -11    1    1    2    0    0 -0.32903684131E+01 -0.11650031780E+02  0.30649606747E+02  0.32953727536E+02  0.00000000000E+00 0. -1.
         11    1    1    2    0    0 -0.52490645006E+02  0.16383560230E+03  0.30868954375E+03  0.35339299203E+03  0.00000000000E+00 0.  1.
</event>
<event>
 7    1  0.2556591E-009  0.1809518E+03  0.7561462E-02  0.1166885E+00
         -2   -1    0    0    0  501 -0.00000000000E+00  0.00000000000E+00  0.39906032975E+02  0.39906032975E+02  0.00000000000E+00 0.  1.
          2   -1    0    0  501    0  0.00000000000E+00 -0.00000000000E+00 -0.13725422049E+04  0.13725422049E+04  0.00000000000E+00 0. -1.
         25    2    1    2    0    0  0.13109427578E+03  0.90838066113E+02 -0.10850323049E+04  0.11038023565E+04  0.12508907293E+03 0.  0.
          5    1    3    3  502    0  0.51746428063E+02  0.10663649152E+03 -0.54744842726E+03  0.56014845091E+03  0.41800000000E+01 0. -1.
         -5    1    3    3    0  502  0.79347847712E+02 -0.15798425411E+02 -0.53758387765E+03  0.54365390562E+03  0.41800000000E+01 0. -1.
        -11    1    1    2    0    0 -0.68494960121E+02 -0.29274825973E+02 -0.18882849144E+03  0.20298959130E+03  0.00000000000E+00 0.  1.
         11    1    1    2    0    0 -0.62599315654E+02 -0.61563240140E+02 -0.58775375613E+02  0.10565629009E+03  0.00000000000E+00 0. -1.
</event>
<event>
 7    1  0.2556591E-009  0.1874473E+03  0.7561462E-02  0.1160784E+00
          2   -1    0    0  501    0  0.00000000000E+00  0.00000000000E+00  0.35413826430E+03  0.35413826430E+03  0.00000000000E+00 0. -1.
         -2   -1    0    0    0  501 -0.00000000000E+00 -0.00000000000E+00 -0.14837995005E+03  0.14837995005E+03  0.00000000000E+00 0.  1.
         25    2    1    2    0    0 -0.32366674631E+02  0.16305895463E+03  0.22077338544E+03  0.30335312607E+03  0.12508559895E+03 0.  0.
          5    1    3    3  502    0  0.18498095387E+02  0.80262744077E+02  0.17980079877E+03  0.19781326360E+03  0.41800000000E+01 0.  1.
         -5    1    3    3    0  502 -0.50864770017E+02  0.82796210549E+02  0.40972586672E+02  0.10553986246E+03  0.41800000000E+01 0.  1.
        -11    1    1    2    0    0 -0.24913618749E+02 -0.12241579954E+03  0.81977410250E+01  0.12519392691E+03  0.00000000000E+00 0. -1.
         11    1    1    2    0    0  0.57280293380E+02 -0.40643155083E+02 -0.23212812219E+02  0.73971161380E+02  0.00000000000E+00 0.  1.
</event>
<event>
 7    1  0.2556591E-009  0.7861491E+02  0.7561462E-02  0.1333029E+00
         -1   -1    0    0    0  501 -0.00000000000E+00  0.00000000000E+00  0.59765726599E+02  0.59765726599E+02  0.00000000000E+00 0.  1.
          1   -1    0    0  501    0  0.00000000000E+00 -0.00000000000E+00 -0.21843451810E+03  0.21843451810E+03  0.00000000000E+00 0. -1.
         25    2    1    2    0    0  0.30129419495E+02 -0.88249246000E+01 -0.11524672578E+03  0.17295175600E+03  0.12507933837E+03 0.  0.
          5    1    3    3  502    0  0.47899698071E+02 -0.21351148445E+02  0.29573058319E+01  0.52692225925E+02  0.41800000000E+01 0.  1.
         -5    1    3    3    0  502 -0.17770278575E+02  0.12526223845E+02 -0.11820403161E+03  0.12025953007E+03  0.41800000000E+01 0.  1.
        -11    1    1    2    0    0  0.24892509944E+02 -0.57779412765E+01  0.97504568208E+01  0.27351290005E+02  0.00000000000E+00 0.  1.
         11    1    1    2    0    0 -0.55021929440E+02  0.14602865876E+02 -0.53172522548E+02  0.77897198699E+02  0.00000000000E+00 0. -1.
</event>
<event>
 7    1  0.2556591E-009  0.7268541E+02  0.7561462E-02  0.1351192E+00
          2   -1    0    0  501    0  0.00000000000E+00  0.00000000000E+00  0.21068099382E+03  0.21068099382E+03  0.00000000000E+00 0. -1.
         -2   -1    0    0    0  501 -0.00000000000E+00 -0.00000000000E+00 -0.83722993888E+02  0.83722993888E+02  0.00000000000E+00 0.  1.
         25    2    1    2    0    0  0.41753884682E+02  0.18583169733E+02  0.26714125239E+01  0.13320004191E+03  0.12508554527E+03 0.  0.
          5    1    3    3  502    0  0.49620552868E+02 -0.32093268261E+01 -0.52976464669E+02  0.72776900555E+02  0.41800000000E+01 0.  1.
         -5    1    3    3    0  502 -0.78666681861E+01  0.21792496559E+02  0.55647877192E+02  0.60423141350E+02  0.41800000000E+01 0.  1.
        -11    1    1    2    0    0 -0.48107297222E+02  0.41862233949E+01  0.16768278723E+02  0.51117625958E+02  0.00000000000E+00 0.  1.
         11    1    1    2    0    0  0.63534125394E+01 -0.22769393128E+02  0.10751830868E+03  0.11008631984E+03  0.00000000000E+00 0. -1.
</event>
<event>
 7    1  0.2556591E-009  0.1211907E+03  0.7561462E-02  0.1241146E+00
         -2   -1    0    0    0  501 -0.00000000000E+00  0.00000000000E+00  0.47662632256E+02  0.47662632256E+02  0.00000000000E+00 0.  1.
          2   -1    0    0  501    0  0.00000000000E+00 -0.00000000000E+00 -0.68924182502E+03  0.68924182502E+03  0.00000000000E+00 0. -1.
         25    2    1    2    0    0 -0.57474892976E+02 -0.96248997020E+02 -0.52417174740E+03  0.55042803156E+03  0.12509102448E+03 0.  0.
          5    1    3    3  502    0  0.79707542225E+01  0.41301282066E+01 -0.26146349260E+03  0.26165095308E+03  0.41800000000E+01 0. -1.
         -5    1    3    3    0  502 -0.65445647199E+02 -0.10037912523E+03 -0.26270825479E+03  0.28877707848E+03  0.41800000000E+01 0. -1.
        -11    1    1    2    0    0  0.98904819086E+01  0.25133255738E+02 -0.93945600420E+02  0.97751102371E+02  0.00000000000E+00 0. -1.
         11    1    1    2    0    0  0.47584411068E+02  0.71115741282E+02 -0.23461844946E+02  0.88725323347E+02  0.00000000000E+00 0.  1.
</event>
<event>
 7    1  0.2556591E-009  0.1297795E+03  0.7561462E-02  0.1227783E+00
          1   -1    0    0  501    0  0.00000000000E+00  0.00000000000E+00  0.67040680877E+02  0.67040680877E+02  0.00000000000E+00 0. -1.
         -1   -1    0    0    0  501 -0.00000000000E+00 -0.00000000000E+00 -0.33129387589E+03  0.33129387589E+03  0.00000000000E+00 0.  1.
         25    2    1    2    0    0 -0.66498891765E+02  0.29534974813E+02 -0.23704771462E+03  0.27773080547E+03  0.12509342092E+03 0.  0.
          5    1    3    3  502    0  0.15785135832E+02  0.55867911983E+02 -0.97305734479E+02  0.11338550377E+03  0.41800000000E+01 0.  1.
         -5    1    3    3    0  502 -0.82284027598E+02 -0.26332937170E+02 -0.13974198014E+03  0.16434530170E+03  0.41800000000E+01 0.  1.
        -11    1    1    2    0    0 -0.16156384286E+02  0.14053526101E+02 -0.15488345964E+02  0.26427622099E+02  0.00000000000E+00 0.  1.
         11    1    1    2    0    0  0.82655276051E+02 -0.43588500914E+02 -0.11717134427E+02  0.94176129195E+02  0.00000000000E+00 0. -1.
</event>
<event>
 7    1  0.2556591E-009  0.1413949E+03  0.7561462E-02  0.1211464E+00
         -2   -1    0    0    0  501 -0.00000000000E+00  0.00000000000E+00  0.36240494119E+02  0.36240494119E+02  0.00000000000E+00 0.  1.
          2   -1    0    0  501    0  0.00000000000E+00 -0.00000000000E+00 -0.84923886735E+03  0.84923886735E+03  0.00000000000E+00 0. -1.
         25    2    1    2    0    0 -0.31944156589E+02 -0.11642854969E+03 -0.58773130077E+03  0.61290538784E+03  0.12509554835E+03 0.  0.
          5    1    3    3  502    0 -0.38884369266E+02  0.30536100169E+01 -0.27928876175E+03  0.28203014652E+03  0.41800000000E+01 0.  1.
         -5    1    3    3    0  502  0.69402126767E+01 -0.11948215971E+03 -0.30844253902E+03  0.33087524132E+03  0.41800000000E+01 0.  1.
        -11    1    1    2    0    0  0.33701274313E+02  0.73684908484E+02 -0.21327092569E+03  0.22814409783E+03  0.00000000000E+00 0. -1.
         11    1    1    2    0    0 -0.17571177235E+01  0.42743641209E+02 -0.11996146773E+02  0.44429875804E+02  0.00000000000E+00 0.  1.
</event>
<event>
 7    1  0.2556591E-009  0.1909047E+03  0.7561462E-02  0.1157648E+00
         -1   -1    0    0    0  501 -0.00000000000E+00  0.00000000000E+00  0.44244834081E+02  0.44244834081E+02  0.00000000000E+00 0.  1.
          1   -1    0    0  501    0  0.00000000000E+00 -0.00000000000E+00 -0.14574622759E+04  0.14574622759E+04  0.00000000000E+00 0. -1.
         25    2    1    2    0    0 -0.60224280566E+02  0.17919465009E+03 -0.11116218120E+04  0.11344982140E+04  0.12508180519E+03 0.  0.
          5    1    3    3  502    0 -0.10009741904E+02  0.87064622886E+02 -0.22213542852E+03  0.23883480587E+03  0.41800000000E+01 0. -1.
         -5    1    3    3    0  502 -0.50214538662E+02  0.92130027202E+02 -0.88948638349E+03  0.89566340811E+03  0.41800000000E+01 0. -1.
        -11    1    1    2    0    0  0.38959781805E+02 -0.11191147190E+03 -0.25890965200E+03  0.28473891557E+03  0.00000000000E+00 0. -1.
         11    1    1    2    0    0  0.21264498761E+02 -0.67283178188E+02 -0.42685977850E+02  0.82469980476E+02  0.00000000000E+00 0.  1.
</event>
<event>
 7    1  0.2556591E-009  0.8737860E+02  0.7561462E-02  0.1309327E+00
          2   -1    0    0  501    0  0.00000000000E+00  0.00000000000E+00  0.34421129037E+03  0.34421129037E+03  0.00000000000E+00 0. -1.
         -2   -1    0    0    0  501 -0.00000000000E+00 -0.00000000000E+00 -0.44911378760E+02  0.44911378760E+02  0.00000000000E+00 0.  1.
         25    2    1    2    0    0 -0.19860603590E+02 -0.55380473728E+02  0.14335803050E+03  0.19914856730E+03  0.12508871454E+03 0.  0.
          5    1    3    3  502    0 -0.33913732018E+02 -0.14861242568E+02  0.15087436324E+03  0.15540766916E+03  0.41800000000E+01 0. -1.
         -5    1    3    3    0  502  0.14053128428E+02 -0.40519231161E+02 -0.75163327421E+01  0.43740898143E+02  0.41800000000E+01 0. -1.
        -11    1    1    2    0    0  0.29720770666E+02  0.70412145109E+02  0.15396243403E+03  0.17188840997E+03  0.00000000000E+00 0.  1.
         11    1    1    2    0    0 -0.98601670762E+01 -0.15031671381E+02  0.19794470774E+01  0.18085691859E+02  0.00000000000E+00 0. -1.
</event>
<event>
 7    1  0.2556591E-009  0.1477097E+03  0.7561462E-02  0.1203316E+00
         -1   -1    0    0    0  501 -0.00000000000E+00  0.00000000000E+00  0.32834475689E+03  0.32834475689E+03  0.00000000000E+00 0.  1.
          1   -1    0    0  501    0  0.00000000000E+00 -0.00000000000E+00 -0.85115294500E+02  0.85115294500E+02  0.00000000000E+00 0. -1.
         25    2    1    2    0    0  0.35103263664E+02 -0.97663538108E+02  0.42566353314E+02  0.16801944007E+03  0.12509289352E+03 0.  0.
          5    1    3    3  502    0  0.68802728539E+02 -0.11445976872E+02  0.18039632977E+02  0.72164579946E+02  0.41800000000E+01 0.  1.
         -5    1    3    3    0  502 -0.33699464875E+02 -0.86217561235E+02  0.24526720337E+02  0.95854860121E+02  0.41800000000E+01 0.  1.
        -11    1    1    2    0    0 -0.59753115647E+02  0.88078527703E+02  0.11925332328E+03  0.15984247554E+03  0.00000000000E+00 0. -1.
         11    1    1    2    0    0  0.24649851983E+02  0.95850104049E+01  0.81409785796E+02  0.85598135789E+02  0.00000000000E+00 0.  1.
</event>
<event>
 7    1  0.2556591E-009  0.1053806E+03  0.7561462E-02  0.1269372E+00
         -1   -1    0    0    0  501 -0.00000000000E+00  0.00000000000E+00  0.19589217670E+03  0.19589217670E+03  0.00000000000E+00 0.  1.
          1   -1    0    0  501    0  0.00000000000E+00 -0.00000000000E+00 -0.97094484108E+02  0.97094484108E+02  0.00000000000E+00 0. -1.
         25    2    1    2    0    0 -0.61912892558E+02 -0.52251746286E+02  0.82209921123E+02  0.17020896525E+03  0.12509664050E+03 0.  0.
          5    1    3    3  502    0 -0.68052625298E+02 -0.39324938013E+02  0.11200334994E+03  0.13689351101E+03  0.41800000000E+01 0.  1.
         -5    1    3    3    0  502  0.61397327398E+01 -0.12926808273E+02 -0.29793428818E+02  0.33315454236E+02  0.41800000000E+01 0.  1.
        -11    1    1    2    0    0  0.39781785670E+02  0.75317211561E+02  0.26676917572E+02  0.89257664990E+02  0.00000000000E+00 0.  1.
         11    1    1    2    0    0  0.22131106889E+02 -0.23065465275E+02 -0.10089146100E+02  0.33520030571E+02  0.00000000000E+00 0. -1.
</event>
<event>
 7    1  0.2556591E-009  0.3031185E+03  0.7561462E-02  0.1083692E+00
          1   -1    0    0  501    0  0.00000000000E+00  0.00000000000E+00  0.36674513909E+03  0.36674513909E+03  0.00000000000E+00 0. -1.
         -1   -1    0    0    0  501 -0.00000000000E+00 -0.00000000000E+00 -0.27915719741E+03  0.27915719741E+03  0.00000000000E+00 0.  1.
         25    2    1    2    0    0  0.66990760085E+02  0.28244887599E+03 -0.35263072844E+02  0.31805071852E+03  0.12509055025E+03 0.  0.
          5    1    3    3  502    0 -0.20198307506E+02  0.41897990752E+02  0.27996442651E+02  0.54448934391E+02  0.41800000000E+01 0.  1.
         -5    1    3    3    0  502  0.87189067591E+02  0.24055088524E+03 -0.63259515495E+02  0.26360178413E+03  0.41800000000E+01 0.  1.
        -11    1    1    2    0    0 -0.81041639004E+02 -0.15040600801E+03  0.61578528469E+02  0.18160845153E+03  0.00000000000E+00 0.  1.
         11    1    1    2    0    0  0.14050878918E+02 -0.13204286798E+03  0.61272486056E+02  0.14624316644E+03  0.00000000000E+00 0. -1.
</event>
<event>
 7    1  0.2556591E-009  0.1283100E+03  0.7561462E-02  0.1229985E+00
          2   -1    0    0  501    0  0.00000000000E+00  0.00000000000E+00  0.27671558401E+03  0.27671558401E+03  0.00000000000E+00 0.  1.
         -2   -1    0    0    0  501 -0.00000000000E+00 -0.00000000000E+00 -0.10769316146E+03  0.10769316146E+03  0.00000000000E+00 0. -1.
         25    2    1    2    0    0 -0.16163420995E+02  0.10688993572E+03  0.17801991307E+03  0.24295174408E+03  0.12509095077E+03 0.  0.
          5    1    3    3  502    0  0.22269699696E+02  0.94935901751E+02  0.51991927646E+02  0.11058660817E+03  0.41800000000E+01 0.  1.
         -5    1    3    3    0  502 -0.38433120691E+02  0.11954033969E+02  0.12602798542E+03  0.13236513591E+03  0.41800000000E+01 0.  1.
        -11    1    1    2    0    0 -0.12720361483E+02 -0.72654636931E+02  0.32309597727E+02  0.80525859008E+02  0.00000000000E+00 0.  1.
         11    1    1    2    0    0  0.28883782478E+02 -0.34235298790E+02 -0.41307088247E+02  0.60931142390E+02  0.00000000000E+00 0. -1.
</event>
<event>
 7    1  0.2556591E-009  0.1253129E+03  0.7561462E-02  0.1234581E+00
         -2   -1    0    0    0  501 -0.00000000000E+00  0.00000000000E+00  0.17547075558E+03  0.17547075558E+03  0.00000000000E+00 0.  1.
          2   -1    0    0  501    0  0.00000000000E+00 -0.00000000000E+00 -0.10328673417E+03  0.10328673417E+03  0.00000000000E+00 0. -1.
         25    2    1    2    0    0 -0.36160912495E+02  0.70181050216E+02  0.54778756976E+02  0.15773990237E+03  0.12509265838E+03 0.  0.
          5    1    3    3  502    0 -0.25604205846E+02 -0.24436854726E+02 -0.15967444082E+02  0.39053385211E+02  0.41800000000E+01 0. -1.
         -5    1    3    3    0  502 -0.10556706648E+02  0.94617904942E+02  0.70746201058E+02  0.11868651716E+03  0.41800000000E+01 0. -1.
        -11    1    1    2    0    0 -0.23581928165E+02 -0.52231089994E+02  0.10406132506E+02  0.58245014308E+02  0.00000000000E+00 0. -1.
         11    1    1    2    0    0  0.59742840660E+02 -0.17949960221E+02  0.69991319289E+01  0.62772573070E+02  0.00000000000E+00 0.  1.
</event>
<event>
 7    1  0.2556591E-009  0.9726788E+02  0.7561462E-02  0.1286148E+00
         -2   -1    0    0    0  501 -0.00000000000E+00  0.00000000000E+00  0.75074263996E+02  0.75074263996E+02  0.00000000000E+00 0.  1.
          2   -1    0    0  501    0  0.00000000000E+00 -0.00000000000E+00 -0.17964293271E+03  0.17964293271E+03  0.00000000000E+00 0. -1.
         25    2    1    2    0    0 -0.37299892075E+02 -0.18298879235E+02 -0.58656057829E+02  0.14427466021E+03  0.12509401876E+03 0.  0.
          5    1    3    3  502    0 -0.77475880477E+02  0.15007530432E+02 -0.40962488971E+02  0.89011998787E+02  0.41800000000E+01 0. -1.
         -5    1    3    3    0  502  0.40175988402E+02 -0.33306409667E+02 -0.17693568858E+02  0.55262661426E+02  0.41800000000E+01 0. -1.
        -11    1    1    2    0    0  0.23787072602E+02 -0.14378041511E+02  0.20949574407E+02  0.34805711722E+02  0.00000000000E+00 0.  1.
         11    1    1    2    0    0  0.13512819473E+02  0.32676920746E+02 -0.66862185293E+02  0.75636824773E+02  0.00000000000E+00 0. -1.
</event>
<event>
 7    1  0.2556591E-009  0.1051624E+03  0.7561462E-02  0.1269800E+00
         -2   -1    0    0    0  501 -0.00000000000E+00  0.00000000000E+00  0.22385473522E+03  0.22385473522E+03  0.00000000000E+00 0.  1.
          2   -1    0    0  501    0  0.00000000000E+00 -0.00000000000E+00 -0.92913036945E+02  0.92913036945E+02  0.00000000000E+00 0. -1.
         25    2    1    2    0    0 -0.12111039568E+02  0.93528756034E+02  0.50392459629E+02  0.16456800595E+03  0.12509565583E+03 0.  0.
          5    1    3    3  502    0 -0.82529826313E+01  0.34461595177E+02 -0.41781571165E+02  0.54944384185E+02  0.41800000000E+01 0.  1.
         -5    1    3    3    0  502 -0.38580569364E+01  0.59067160857E+02  0.92174030794E+02  0.10962362176E+03  0.41800000000E+01 0.  1.
        -11    1    1    2    0    0  0.38535609809E+02 -0.39640431609E+02  0.73202900951E+02  0.91733427654E+02  0.00000000000E+00 0. -1.
         11    1    1    2    0    0 -0.26424570242E+02 -0.53888324425E+02  0.73463376930E+01  0.60466338564E+02  0.00000000000E+00 0.  1.
</event>
<event>
 7    1  0.2556591E-009  0.1519269E+03  0.7561462E-02  0.1198125E+00
         -1   -1    0    0    0  501 -0.00000000000E+00  0.00000000000E+00  0.15792914991E+03  0.15792914991E+03  0.00000000000E+00 0.  1.
          1   -1    0    0  501    0  0.00000000000E+00 -0.00000000000E+00 -0.19150943177E+03  0.19150943177E+03  0.00000000000E+00 0. -1.
         25    2    1    2    0    0  0.11103056614E+03 -0.52154407554E+02 -0.72367985809E+02  0.18956230234E+03  0.12509545257E+03 0.  0.
          5    1    3    3  502    0  0.10410123728E+03 -0.86835085173E+01 -0.93769725647E+02  0.14043754759E+03  0.41800000000E+01 0.  1.
         -5    1    3    3    0  502  0.69293288552E+01 -0.43470899037E+02  0.21401739839E+02  0.49124754754E+02  0.41800000000E+01 0.  1.
        -11    1    1    2    0    0 -0.12489711416E+03  0.60632736521E+02  0.34164378071E+02  0.14297839905E+03  0.00000000000E+00 0.  1.
         11    1    1    2    0    0  0.13866548026E+02 -0.84783289664E+01  0.46233258776E+01  0.16897880293E+02  0.00000000000E+00 0. -1.
</event>
<event>
 7    1  0.2556591E-009  0.9690328E+02  0.7561462E-02  0.1286946E+00
          1   -1    0    0  501    0  0.00000000000E+00  0.00000000000E+00  0.82977303436E+03  0.82977303436E+03  0.00000000000E+00 0. -1.
         -1   -1    0    0    0  501 -0.00000000000E+00 -0.00000000000E+00 -0.18006272672E+02  0.18006272672E+02  0.00000000000E+00 0.  1.
         25    2    1    2    0    0 -0.12763980147E+02 -0.49843576857E+02  0.53300651563E+03  0.54990085348E+03  0.12509077348E+03 0.  0.
          5    1    3    3  502    0 -0.67162474058E+01 -0.82366201428E+02  0.48140183286E+03  0.48846135589E+03  0.41800000000E+01 0.  1.
         -5    1    3    3    0  502 -0.60477327410E+01  0.32522624571E+02  0.51604682772E+02  0.61439497592E+02  0.41800000000E+01 0.  1.
        -11    1    1    2    0    0 -0.16690208678E+02  0.44835469615E+02  0.25570035664E+03  0.26013737676E+03  0.00000000000E+00 0.  1.
         11    1    1    2    0    0  0.29454188825E+02  0.50081072423E+01  0.23059889416E+02  0.37741076791E+02  0.00000000000E+00 0. -1.
</event>
<event>
 7    1  0.2556591E-009  0.2751615E+03  0.7561462E-02  0.1098361E+00
          2   -1    0    0  501    0  0.00000000000E+00  0.00000000000E+00  0.68792823483E+03  0.68792823483E+03  0.00000000000E+00 0.  1.
         -2   -1    0    0    0  501 -0.00000000000E+00 -0.00000000000E+00 -0.11226317308E+03  0.11226317308E+03  0.00000000000E+00 0. -1.
         25    2    1    2    0    0  0.52998794847E+02 -0.24983423377E+03  0.30033998017E+03  0.41361409101E+03  0.12508595436E+03 0.  0.
          5    1    3    3  502    0 -0.30010687204E+02 -0.14519543316E+03  0.13094128382E+03  0.19785208456E+03  0.41800000000E+01 0.  1.
         -5    1    3    3    0  502  0.83009482051E+02 -0.10463880061E+03  0.16939869635E+03  0.21576200645E+03  0.41800000000E+01 0.  1.
        -11    1    1    2    0    0 -0.68836480250E+02  0.12645654389E+03  0.11892566658E+03  0.18674322659E+03  0.00000000000E+00 0. -1.
         11    1    1    2    0    0  0.15837685402E+02  0.12337768988E+03  0.15639941500E+03  0.19983409031E+03  0.00000000000E+00 0.  1.
</event>
<event>
 7    1  0.2556591E-009  0.8716251E+02  0.7561462E-02  0.1309872E+00
          1   -1    0    0  501    0  0.00000000000E+00  0.00000000000E+00  0.30588090302E+02  0.30588090302E+02  0.00000000000E+00 0. -1.
         -1   -1    0    0    0  501 -0.00000000000E+00 -0.00000000000E+00 -0.40086451255E+03  0.40086451255E+03  0.00000000000E+00 0.  1.
         25    2    1    2    0    0 -0.19054700518E+02 -0.14312764421E+02 -0.22798556227E+03  0.26113482842E+03  0.12508415237E+03 0.  0.
          5    1    3    3  502    0 -0.60935830962E+02 -0.22794761951E+02 -0.63021929830E+02  0.90675314761E+02  0.41800000000E+01 0. -1.
         -5    1    3    3    0  502  0.41881130444E+02  0.84819975304E+01 -0.16496363244E+03  0.17045951366E+03  0.41800000000E+01 0. -1.
        -11    1    1    2    0    0 -0.14367739960E+01 -0.23310120620E+02 -0.11955994070E+03  0.12181956109E+03  0.00000000000E+00 0.  1.
         11    1    1    2    0    0  0.20491474514E+02  0.37622885041E+02 -0.22730919277E+02  0.48498213346E+02  0.00000000000E+00 0. -1.
</event>
<event>
 7    1  0.2556591E-009  0.9343560E+02  0.7561462E-02  0.1294739E+00
          2   -1    0    0  501    0  0.00000000000E+00  0.00000000000E+00  0.74525296137E+02  0.74525296137E+02  0.00000000000E+00 0.  1.
         -2   -1    0    0    0  501 -0.00000000000E+00 -0.00000000000E+00 -0.18557522285E+03  0.18557522285E+03  0.00000000000E+00 0. -1.
         25    2    1    2    0    0 -0.38107690342E+02  0.27267165812E+02 -0.75930173823E+02  0.15365116465E+03  0.12509034617E+03 0.  0.
          5    1    3    3  502    0 -0.75815982694E+00  0.44780491372E+02 -0.97161379325E+02  0.10706854462E+03  0.41800000000E+01 0.  1.
         -5    1    3    3    0  502 -0.37349530515E+02 -0.17513325559E+02  0.21231205502E+02  0.46582620031E+02  0.41800000000E+01 0.  1.
        -11    1    1    2    0    0  0.46467524243E+02  0.21320364035E+02 -0.19754183535E+02  0.54808908938E+02  0.00000000000E+00 0.  1.
         11    1    1    2    0    0 -0.83598339006E+01 -0.48587529847E+02 -0.15365569353E+02  0.51640445399E+02  0.00000000000E+00 0. -1.
</event>
<event>
 7    1  0.2556591E-009  0.1408870E+03  0.7561462E-02  0.1212140E+00
          2   -1    0    0  501    0  0.00000000000E+00  0.00000000000E+00  0.87070574686E+03  0.87070574686E+03  0.00000000000E+00 0. -1.
         -2   -1    0    0    0  501 -0.00000000000E+00 -0.00000000000E+00 -0.26975974733E+02  0.26975974733E+02  0.00000000000E+00 0.  1.
         25    2    1    2    0    0 -0.23627833291E+01  0.97878649856E+02  0.58690243873E+03  0.60801966093E+03  0.12509045783E+03 0.  0.
          5    1    3    3  502    0 -0.63055185717E+02  0.41031674515E+02  0.26209713560E+03  0.27271218463E+03  0.41800000000E+01 0.  1.
         -5    1    3    3    0  502  0.60692402388E+02  0.56846975342E+02  0.32480530313E+03  0.33530747629E+03  0.41800000000E+01 0.  1.
        -11    1    1    2    0    0 -0.36044833629E+02 -0.53004825278E+02  0.18975593306E+03  0.20028992902E+03  0.00000000000E+00 0. -1.
         11    1    1    2    0    0  0.38407616958E+02 -0.44873824579E+02  0.67071400333E+02  0.89372131648E+02  0.00000000000E+00 0.  1.
</event>
<event>
 7    1  0.2556591E-009  0.1258054E+03  0.7561462E-02  0.1233816E+00
         -2   -1    0    0    0  501 -0.00000000000E+00  0.00000000000E+00  0.54941738587E+02  0.54941738587E+02  0.00000000000E+00 0.  1.
          2   -1    0    0  501    0  0.00000000000E+00 -0.00000000000E+00 -0.37891670492E+03  0.37891670492E+03  0.00000000000E+00 0. -1.
         25    2    1    2    0    0 -0.89543814563E+02 -0.14814036543E+02 -0.13424454347E+03  0.20470615296E+03  0.12508181803E+03 0.  0.
          5    1    3    3  502    0  0.21037795402E+02 -0.73288184220E+01 -0.76245803989E+02  0.79543670023E+02  0.41800000000E+01 0.  1.
         -5    1    3    3    0  502 -0.11058160996E+03 -0.74852181210E+01 -0.57998739482E+02  0.12516248293E+03  0.41800000000E+01 0.  1.
        -11    1    1    2    0    0  0.85694579268E+02  0.38563237893E+02 -0.10425748028E+03  0.14035778007E+03  0.00000000000E+00 0.  1.
         11    1    1    2    0    0  0.38492352943E+01 -0.23749201350E+02 -0.85472942589E+02  0.88794510483E+02  0.00000000000E+00 0. -1.
</event>
<event>
 7    1  0.2556591E-009  0.9131798E+02  0.7561462E-02  0.1299691E+00
         -2   -1    0    0    0  501 -0.00000000000E+00  0.00000000000E+00  0.21608434741E+02  0.21608434741E+02  0.00000000000E+00 0. -1.
          2   -1    0    0  501    0  0.00000000000E+00 -0.00000000000E+00 -0.60947839353E+03  0.60947839353E+03  0.00000000000E+00 0.  1.
         25    2    1    2    0    0 -0.95287038515E+01  0.33990245526E+02 -0.31776921128E+03  0.34332851606E+03  0.12510421782E+03 0.  0.
          5    1    3    3  502    0 -0.30792753573E+02 -0.11403603524E+02 -0.14882257336E+02  0.36293109943E+02  0.41800000000E+01 0. -1.
         -5    1    3    3    0  502  0.21264049721E+02  0.45393849050E+02 -0.30288695394E+03  0.30703540612E+03  0.41800000000E+01 0. -1.
        -11    1    1    2    0    0 -0.14642196844E+02 -0.61148095668E+02 -0.16861841082E+03  0.17996014003E+03  0.00000000000E+00 0.  1.
         11    1    1    2    0    0  0.24170900695E+02  0.27157850142E+02 -0.10148233669E+03  0.10779817218E+03  0.00000000000E+00 0. -1.
</event>
<event>
 7    1  0.2556591E-009  0.1285504E+03  0.7561462E-02  0.1229623E+00
         -1   -1    0    0    0  501 -0.00000000000E+00  0.00000000000E+00  0.50285970351E+02  0.50285970351E+02  0.00000000000E+00 0.  1.
          1   -1    0    0  501    0  0.00000000000E+00 -0.00000000000E+00 -0.46812669165E+03  0.46812669165E+03  0.00000000000E+00 0. -1.
         25    2    1    2    0    0  0.97731508708E+02 -0.17784049181E+02 -0.29035566554E+03  0.33139328082E+03  0.12508946343E+03 0.  0.
          5    1    3    3  502    0  0.76012173965E+02  0.19586596304E+02 -0.27389689520E+03  0.28495344698E+03  0.41800000000E+01 0.  1.
         -5    1    3    3    0  502  0.21719334743E+02 -0.37370645486E+02 -0.16458770340E+02  0.46439833837E+02  0.41800000000E+01 0.  1.
        -11    1    1    2    0    0 -0.11557289168E+03  0.11458513173E+02 -0.97903227842E+02  0.15189941685E+03  0.00000000000E+00 0.  1.
         11    1    1    2    0    0  0.17841382974E+02  0.63255360083E+01 -0.29581827912E+02  0.35119964334E+02  0.00000000000E+00 0. -1.
</event>
<event>
 7    1  0.2556591E-009  0.8087481E+02  0.7561462E-02  0.1326587E+00
         -2   -1    0    0    0  501 -0.00000000000E+00  0.00000000000E+00  0.41944180073E+02  0.41944180073E+02  0.00000000000E+00 0.  1.
          2   -1    0    0  501    0  0.00000000000E+00 -0.00000000000E+00 -0.30958451622E+03  0.30958451622E+03  0.00000000000E+00 0. -1.
         25    2    1    2    0    0 -0.21587421404E+02  0.23013374522E+02 -0.13452412343E+03  0.18638592475E+03  0.12508933204E+03 0.  0.
          5    1    3    3  502    0  0.16933850147E+01 -0.17122021258E+02  0.18986906493E+02  0.25961629050E+02  0.41800000000E+01 0.  1.
         -5    1    3    3    0  502 -0.23280806419E+02  0.40135395779E+02 -0.15351102992E+03  0.16042429570E+03  0.41800000000E+01 0.  1.
        -11    1    1    2    0    0  0.53984865551E+02  0.55454424316E+01 -0.80271643215E+02  0.96895068733E+02  0.00000000000E+00 0. -1.
         11    1    1    2    0    0 -0.32397444147E+02 -0.28558816953E+02 -0.52844569496E+02  0.68247702806E+02  0.00000000000E+00 0.  1.
</event>
<event>
 7    1  0.3759834E-009  0.1032441E+03  0.7561462E-02  0.1273618E+00
          1   -1    0    0  501    0  0.00000000000E+00  0.00000000000E+00  0.27492090262E+03  0.27492090262E+03  0.00000000000E+00 0. -1.
         -1   -1    0    0    0  501 -0.00000000000E+00 -0.00000000000E+00 -0.61856644198E+02  0.61856644198E+02  0.00000000000E+00 0.  1.
         25    2    1    2    0    0 -0.16960966434E+02  0.39818839048E+02  0.43385969443E+02  0.13929794095E+03  0.12509340384E+03 0.  0.
          5    1    3    3  502    0  0.19071624186E+02 -0.39508610895E+02  0.63153602075E+01  0.44519808608E+02  0.41800000000E+01 0. -1.
         -5    1    3    3    0  502 -0.36032590620E+02  0.79327449943E+02  0.37070609236E+02  0.94778132343E+02  0.41800000000E+01 0. -1.
        -11    1    1    2    0    0 -0.13334952874E+02 -0.42723437589E+02  0.28504439778E+02  0.53062380032E+02  0.00000000000E+00 0.  1.
         11    1    1    2    0    0  0.30295919309E+02  0.29045985410E+01  0.14117384921E+03  0.14441722584E+03  0.00000000000E+00 0. -1.
</event>
<event>
 7    1  0.2556591E-009  0.8046185E+02  0.7561462E-02  0.1327746E+00
         -3   -1    0    0    0  501 -0.00000000000E+00  0.00000000000E+00  0.28687942246E+03  0.28687942246E+03  0.00000000000E+00 0.  1.
          3   -1    0    0  501    0  0.00000000000E+00 -0.00000000000E+00 -0.56075465700E+02  0.56075465700E+02  0.00000000000E+00 0. -1.
         25    2    1    2    0    0 -0.28617746052E+02 -0.40312736391E+02  0.18604939685E+03  0.22957737438E+03  0.12508917080E+03 0.  0.
          5    1    3    3  502    0 -0.55807594716E+02 -0.99646357812E+01  0.17926130423E+03  0.18805815374E+03  0.41800000000E+01 0.  1.
         -5    1    3    3    0  502  0.27189848664E+02 -0.30348100610E+02  0.67880926287E+01  0.41519220640E+02  0.41800000000E+01 0.  1.
        -11    1    1    2    0    0 -0.97343451903E+01  0.48141094854E+01 -0.24394250745E+02  0.26702295704E+02  0.00000000000E+00 0. -1.
         11    1    1    2    0    0  0.38352091242E+02  0.35498626906E+02  0.69148810652E+02  0.86675218081E+02  0.00000000000E+00 0.  1.
</event>
<event>
 7    1  0.2556591E-009  0.7967626E+02  0.7561462E-02  0.1329973E+00
         -2   -1    0    0    0  501 -0.00000000000E+00  0.00000000000E+00  0.37208197974E+02  0.37208197974E+02  0.00000000000E+00 0.  1.
          2   -1    0    0  501    0  0.00000000000E+00 -0.00000000000E+00 -0.38250548346E+03  0.38250548346E+03  0.00000000000E+00 0. -1.
         25    2    1    2    0    0  0.42940547420E+02  0.25687172006E+02 -0.19175427144E+03  0.23435157187E+03  0.12508891719E+03 0.  0.
          5    1    3    3  502    0  0.57595350208E+01  0.17599641711E+02 -0.19501200728E+03  0.19593385367E+03  0.41800000000E+01 0.  1.
         -5    1    3    3    0  502  0.37181012399E+02  0.80875302946E+01  0.32577358321E+01  0.38417718204E+02  0.41800000000E+01 0.  1.
        -11    1    1    2    0    0 -0.12247486268E+02  0.33362209225E+02 -0.38039091899E+02  0.52057760581E+02  0.00000000000E+00 0. -1.
         11    1    1    2    0    0 -0.30693061151E+02 -0.59049381230E+02 -0.11550392215E+03  0.13330434898E+03  0.00000000000E+00 0.  1.
</event>
<event>
 7    1  0.2556591E-009  0.2184347E+03  0.7561462E-02  0.1135055E+00
         -1   -1    0    0    0  501 -0.00000000000E+00  0.00000000000E+00  0.22552761241E+03  0.22552761241E+03  0.00000000000E+00 0.  1.
          1   -1    0    0  501    0  0.00000000000E+00 -0.00000000000E+00 -0.79022892952E+03  0.79022892952E+03  0.00000000000E+00 0. -1.
         25    2    1    2    0    0  0.13369612169E+03  0.15729535536E+03  0.13777691268E+03  0.27793264290E+03  0.12509034555E+03 0.  0.
          5    1    3    3  502    0  0.13268838178E+03  0.13749022976E+03  0.64200143699E+02  0.20161572555E+03  0.41800000000E+01 0.  1.
         -5    1    3    3    0  502  0.10077399050E+01  0.19805125597E+02  0.73576768979E+02  0.76316917345E+02  0.41800000000E+01 0.  1.
        -11    1    1    2    0    0 -0.14700856244E+03 -0.13542563501E+03 -0.61389941171E+03  0.64561916619E+03  0.00000000000E+00 0.  1.
         11    1    1    2    0    0  0.13312440754E+02 -0.21869720345E+02 -0.88578818075E+02  0.92204732841E+02  0.00000000000E+00 0. -1.
</event>
<event>
 7    1  0.2556591E-009  0.9026030E+02  0.7561462E-02  0.1302223E+00
          2   -1    0    0  501    0  0.00000000000E+00  0.00000000000E+00  0.69896226928E+02  0.69896226928E+02  0.00000000000E+00 0. -1.
         -2   -1    0    0    0  501 -0.00000000000E+00 -0.00000000000E+00 -0.18533533296E+03  0.18533533296E+03  0.00000000000E+00 0.  1.
         25    2    1    2    0    0  0.87743619334E+01 -0.34062560201E+02 -0.62903837398E+02  0.14435862253E+03  0.12508106053E+03 0.  0.
          5    1    3    3  502    0 -0.27205574630E+02  0.96057236556E+01 -0.79964784583E+02  0.85113174018E+02  0.41800000000E+01 0.  1.
         -5    1    3    3    0  502  0.35979936563E+02 -0.43668283856E+02  0.17060947185E+02  0.59245448508E+02  0.41800000000E+01 0.  1.
        -11    1    1    2    0    0  0.37391601447E+02  0.22329504166E+00 -0.34453443749E+02  0.50845073563E+02  0.00000000000E+00 0.  1.
         11    1    1    2    0    0 -0.46165963381E+02  0.33839265159E+02 -0.18081824887E+02  0.60027863802E+02  0.00000000000E+00 0. -1.
</event>
<event>
 7    1  0.2556591E-009  0.1080436E+03  0.7561462E-02  0.1264236E+00
         -1   -1    0    0    0  501 -0.00000000000E+00  0.00000000000E+00  0.94785756054E+02  0.94785756054E+02  0.00000000000E+00 0.  1.
          1   -1    0    0  501    0  0.00000000000E+00 -0.00000000000E+00 -0.15939024364E+03  0.15939024364E+03  0.00000000000E+00 0. -1.
         25    2    1    2    0    0 -0.19554532930E+02 -0.33073484529E+02 -0.91649436589E+01  0.13117848655E+03  0.12509022346E+03 0.  0.
          5    1    3    3  502    0 -0.55113482052E+02 -0.63227291781E+02 -0.79099944770E+01  0.84351803434E+02  0.41800000000E+01 0. -1.
         -5    1    3    3    0  502  0.35558949122E+02  0.30153807252E+02 -0.12549491818E+01  0.46826683118E+02  0.41800000000E+01 0. -1.
        -11    1    1    2    0    0  0.17032885623E+02 -0.23303048577E+02 -0.59794538145E+02  0.66396822647E+02  0.00000000000E+00 0. -1.
         11    1    1    2    0    0  0.25216473071E+01  0.56376533107E+02  0.43549942152E+01  0.56600690498E+02  0.00000000000E+00 0.  1.
</event>
<event>
 7    1  0.2556591E-009  0.1671377E+03  0.7561462E-02  0.1180866E+00
          3   -1    0    0  501    0  0.00000000000E+00  0.00000000000E+00  0.86931231185E+02  0.86931231185E+02  0.00000000000E+00 0. -1.
         -3   -1    0    0    0  501 -0.00000000000E+00 -0.00000000000E+00 -0.72292652117E+03  0.72292652117E+03  0.00000000000E+00 0.  1.
         25    2    1    2    0    0 -0.13595558137E+03  0.45369121674E+02 -0.60714230388E+03  0.63624839554E+03  0.12509183170E+03 0.  0.
          5    1    3    3  502    0 -0.10457509846E+03 -0.10183826489E+02 -0.21972627468E+03  0.24359139912E+03  0.41800000000E+01 0. -1.
         -5    1    3    3    0  502 -0.31380482913E+02  0.55552948163E+02 -0.38741602920E+03  0.39265699642E+03  0.41800000000E+01 0. -1.
        -11    1    1    2    0    0  0.29528685508E+02 -0.50645144397E+02 -0.32420118001E+02  0.66992073934E+02  0.00000000000E+00 0.  1.
         11    1    1    2    0    0  0.10642689586E+03  0.52760227228E+01  0.35671318983E+01  0.10661728288E+03  0.00000000000E+00 0. -1.
</event>
<event>
 7    1  0.2556591E-009  0.1130568E+03  0.7561462E-02  0.1255012E+00
          2   -1    0    0  501    0  0.00000000000E+00  0.00000000000E+00  0.22351158234E+03  0.22351158234E+03  0.00000000000E+00 0. -1.
         -2   -1    0    0    0  501 -0.00000000000E+00 -0.00000000000E+00 -0.10117093658E+03  0.10117093658E+03  0.00000000000E+00 0.  1.
         25    2    1    2    0    0 -0.13153102854E+02  0.87481175185E+02  0.25565481093E+01  0.15323128509E+03  0.12508929077E+03 0.  0.
          5    1    3    3  502    0  0.26444216842E+02  0.18610472183E+02 -0.48691847059E+02  0.58600466289E+02  0.41800000000E+01 0.  1.
         -5    1    3    3    0  502 -0.39597319696E+02  0.68870703002E+02  0.51248395169E+02  0.94630818798E+02  0.41800000000E+01 0.  1.
        -11    1    1    2    0    0 -0.23325430691E+02 -0.69453088254E+02  0.44076781202E+02  0.85501870308E+02  0.00000000000E+00 0.  1.
         11    1    1    2    0    0  0.36478533545E+02 -0.18028086931E+02  0.75707316446E+02  0.85949363532E+02  0.00000000000E+00 0. -1.
</event>
<event>
 7    1  0.2556591E-009  0.8879976E+02  0.7561462E-02  0.1305785E+00
         -1   -1    0    0    0  501 -0.00000000000E+00  0.00000000000E+00  0.21883327753E+03  0.21883327753E+03  0.00000000000E+00 0.  1.
          1   -1    0    0  501    0  0.00000000000E+00 -0.00000000000E+00 -0.90556048014E+02  0.90556048014E+02  0.00000000000E+00 0. -1.
         25    2    1    2    0    0 -0.25169846379E+02 -0.83951440441E+02  0.99300733968E+02  0.18218077558E+03  0.12509130148E+03 0.  0.
          5    1    3    3  502    0 -0.19349917906E+02 -0.47579177697E+02 -0.21486156416E+02  0.55833008076E+02  0.41800000000E+01 0. -1.
         -5    1    3    3    0  502 -0.58199284726E+01 -0.36372262744E+02  0.12078689038E+03  0.12634776750E+03  0.41800000000E+01 0. -1.
        -11    1    1    2    0    0  0.22324188875E+02  0.48070293383E+02 -0.27902761123E+02  0.59897300383E+02  0.00000000000E+00 0. -1.
         11    1    1    2    0    0  0.28456575035E+01  0.35881147058E+02  0.56879256672E+02  0.67311249583E+02  0.00000000000E+00 0.  1.
</event>
<event>
 7    1  0.2556591E-009  0.1041621E+03  0.7561462E-02  0.1271779E+00
         -1   -1    0    0    0  501 -0.00000000000E+00  0.00000000000E+00  0.83221349532E+01  0.83221349532E+01  0.00000000000E+00 0.  1.
          1   -1    0    0  501    0  0.00000000000E+00 -0.00000000000E+00 -0.25010027302E+04  0.25010027302E+04  0.00000000000E+00 0. -1.
         25    2    1    2    0    0  0.60541838889E+02  0.82876597420E+01 -0.19752971778E+04  0.19801967600E+04  0.12508504362E+03 0.  0.
          5    1    3    3  502    0  0.87970110798E+01  0.39492561824E+02 -0.15575774176E+04  0.15581084475E+04  0.41800000000E+01 0. -1.
         -5    1    3    3    0  502  0.51744827809E+02 -0.31204902082E+02 -0.41771976019E+03  0.42208831253E+03  0.41800000000E+01 0. -1.
        -11    1    1    2    0    0  0.21575553540E+02 -0.12350405355E+02 -0.70760046976E+02  0.75000141807E+02  0.00000000000E+00 0.  1.
         11    1    1    2    0    0 -0.82117392428E+02  0.40627456128E+01 -0.44662337049E+03  0.45412796336E+03  0.00000000000E+00 0. -1.
</event>
<event>
 7    1  0.2556591E-009  0.7122969E+02  0.7561462E-02  0.1355961E+00
          1   -1    0    0  501    0  0.00000000000E+00  0.00000000000E+00  0.12190652092E+03  0.12190652092E+03  0.00000000000E+00 0. -1.
         -1   -1    0    0    0  501 -0.00000000000E+00 -0.00000000000E+00 -0.16548356249E+03  0.16548356249E+03  0.00000000000E+00 0.  1.
         25    2    1    2    0    0  0.52936914558E+02  0.61763051100E+01 -0.92254654574E+02  0.16431174595E+03  0.12508782874E+03 0.  0.
          5    1    3    3  502    0 -0.23551957525E+01  0.63650160583E+01  0.29482423036E+02  0.30540891351E+02  0.41800000000E+01 0.  1.
         -5    1    3    3    0  502  0.55292110311E+02 -0.18871094824E+00 -0.12173707761E+03  0.13377085460E+03  0.41800000000E+01 0.  1.
        -11    1    1    2    0    0 -0.38467515888E+02  0.24161961878E+02 -0.17638457996E+02  0.48730538483E+02  0.00000000000E+00 0.  1.
         11    1    1    2    0    0 -0.14469398670E+02 -0.30338266988E+02  0.66316070992E+02  0.74347798982E+02  0.00000000000E+00 0. -1.
</event>
<event>
 7    1  0.2556591E-009  0.1404374E+03  0.7561462E-02  0.1212742E+00
         -2   -1    0    0    0  501 -0.00000000000E+00  0.00000000000E+00  0.10633812710E+03  0.10633812710E+03  0.00000000000E+00 0.  1.
          2   -1    0    0  501    0  0.00000000000E+00 -0.00000000000E+00 -0.25398664702E+03  0.25398664702E+03  0.00000000000E+00 0. -1.
         25    2    1    2    0    0 -0.71788428626E+02  0.98374228238E+02 -0.57078130998E+02  0.18367458361E+03  0.12508945744E+03 0.  0.
          5    1    3    3  502    0 -0.77968893732E+02  0.62054246390E+02  0.16679576040E+02  0.10112150385E+03  0.41800000000E+01 0. -1.
         -5    1    3    3    0  502  0.61804651052E+01  0.36319981848E+02 -0.73757707038E+02  0.82553079760E+02  0.41800000000E+01 0. -1.
        -11    1    1    2    0    0 -0.15748217597E+02 -0.61494544476E+01 -0.32983549645E+02  0.37063954115E+02  0.00000000000E+00 0. -1.
         11    1    1    2    0    0  0.87536646224E+02 -0.92224773790E+02 -0.57586839280E+02  0.13958623640E+03  0.00000000000E+00 0.  1.
</event>
<event>
 7    1  0.2556591E-009  0.9897596E+02  0.7561462E-02  0.1282464E+00
          1   -1    0    0  501    0  0.00000000000E+00  0.00000000000E+00  0.60734468322E+02  0.60734468322E+02  0.00000000000E+00 0. -1.
         -1   -1    0    0    0  501 -0.00000000000E+00 -0.00000000000E+00 -0.29303522746E+03  0.29303522746E+03  0.00000000000E+00 0.  1.
         25    2    1    2    0    0 -0.60107467168E+02  0.48951956672E+02 -0.13050622223E+03  0.19668905933E+03  0.12508201450E+03 0.  0.
          5    1    3    3  502    0 -0.16345221649E+02 -0.47341892190E+01  0.22597346079E+02  0.28595301505E+02  0.41800000000E+01 0.  1.
         -5    1    3    3    0  502 -0.43762245519E+02  0.53686145891E+02 -0.15310356831E+03  0.16809375783E+03  0.41800000000E+01 0.  1.
        -11    1    1    2    0    0  0.13803902858E+02 -0.61529425576E+02 -0.85847483866E+02  0.10651858257E+03  0.00000000000E+00 0.  1.
         11    1    1    2    0    0  0.46303564310E+02  0.12577468904E+02 -0.15947053045E+02  0.50562053881E+02  0.00000000000E+00 0. -1.
</event>
<event>
 7    1  0.2581685E-009  0.1811249E+03  0.7561462E-02  0.1166719E+00
          2   -1    0    0  501    0  0.00000000000E+00  0.00000000000E+00  0.52981186395E+03  0.52981186395E+03  0.00000000000E+00 0. -1.
         -2   -1    0    0    0  501 -0.00000000000E+00 -0.00000000000E+00 -0.83053412062E+02  0.83053412062E+02  0.00000000000E+00 0.  1.
         25    2    1    2    0    0  0.17028845848E+03  0.52600115530E+01  0.15108997558E+03  0.25981038484E+03  0.12508968198E+03 0.  0.
          5    1    3    3  502    0  0.10603694345E+02 -0.17755358522E+02  0.81273337917E+02  0.83967368341E+02  0.41800000000E+01 0.  1.
         -5    1    3    3    0  502  0.15968476414E+03  0.23015370075E+02  0.69816637664E+02  0.17584301650E+03  0.41800000000E+01 0.  1.
        -11    1    1    2    0    0 -0.92900107093E+02  0.25732902970E+02  0.22112438769E+03  0.24122314778E+03  0.00000000000E+00 0.  1.
         11    1    1    2    0    0 -0.77388351391E+02 -0.30992914523E+02  0.74544088616E+02  0.11183174339E+03  0.00000000000E+00 0. -1.
</event>
<event>
 7    1  0.2556591E-009  0.1913011E+03  0.7561462E-02  0.1157293E+00
          1   -1    0    0  501    0  0.00000000000E+00  0.00000000000E+00  0.87324177197E+03  0.87324177197E+03  0.00000000000E+00 0. -1.
         -1   -1    0    0    0  501 -0.00000000000E+00 -0.00000000000E+00 -0.47816024823E+02  0.47816024823E+02  0.00000000000E+00 0.  1.
         25    2    1    2    0    0  0.10528199527E+03 -0.11703636401E+03  0.27832958874E+03  0.34336141651E+03  0.12509153988E+03 0.  0.
          5    1    3    3  502    0  0.12499396920E+03 -0.64274752046E+02  0.16537609152E+03  0.21707478005E+03  0.41800000000E+01 0. -1.
         -5    1    3    3    0  502 -0.19711973937E+02 -0.52761611962E+02  0.11295349722E+03  0.12628663645E+03  0.41800000000E+01 0. -1.
        -11    1    1    2    0    0 -0.11462510450E+03  0.63249382185E+02  0.38291902323E+03  0.40468058673E+03  0.00000000000E+00 0. -1.
         11    1    1    2    0    0  0.93431092318E+01  0.53786981823E+02  0.16417713517E+03  0.17301579355E+03  0.00000000000E+00 0.  1.
</event>
<event>
 7    1  0.2556591E-009  0.1078858E+03  0.7561462E-02  0.1264536E+00
          2   -1    0    0  501    0  0.00000000000E+00  0.00000000000E+00  0.35368274695E+03  0.35368274695E+03  0.00000000000E+00 0. -1.
         -2   -1    0    0    0  501 -0.00000000000E+00 -0.00000000000E+00 -0.65792681151E+02  0.65792681151E+02  0.00000000000E+00 0.  1.
         25    2    1    2    0    0  0.80236575377E+02  0.33983099996E+02  0.23802040889E+03  0.28265350449E+03  0.12508608811E+03 0.  0.
          5    1    3    3  502    0  0.10101469310E+03  0.19689596995E+02  0.10457782520E+03  0.14678433968E+03  0.41800000000E+01 0.  1.
         -5    1    3    3    0  502 -0.20778117724E+02  0.14293503001E+02  0.13344258369E+03  0.13586916481E+03  0.41800000000E+01 0.  1.
        -11    1    1    2    0    0 -0.46677140421E+02 -0.17881324092E+02 -0.22979557971E+02  0.55014155212E+02  0.00000000000E+00 0.  1.
         11    1    1    2    0    0 -0.33559434956E+02 -0.16101775904E+02  0.72849214879E+02  0.81807768398E+02  0.00000000000E+00 0. -1.
</event>
<event>
 7    1  0.2556591E-009  0.1540461E+03  0.7561462E-02  0.1195587E+00
         -1   -1    0    0    0  501 -0.00000000000E+00  0.00000000000E+00  0.96927858251E+02  0.96927858251E+02  0.00000000000E+00 0.  1.
          1   -1    0    0  501    0  0.00000000000E+00 -0.00000000000E+00 -0.51560134787E+03  0.51560134787E+03  0.00000000000E+00 0. -1.
         25    2    1    2    0    0  0.81131237288E+02 -0.78682010426E+02  0.89585934734E+00  0.16858991471E+03  0.12509444572E+03 0.  0.
          5    1    3    3  502    0 -0.30815075270E+02 -0.24409395205E+02 -0.16620516915E+02  0.42884745781E+02  0.41800000000E+01 0. -1.
         -5    1    3    3    0  502  0.11194631256E+03 -0.54272615221E+02  0.17516376262E+02  0.12570516893E+03  0.41800000000E+01 0. -1.
        -11    1    1    2    0    0 -0.91567350577E+02  0.33174465334E+02 -0.30679152125E+03  0.32187911140E+03  0.00000000000E+00 0.  1.
         11    1    1    2    0    0  0.10436113290E+02  0.45507545092E+02 -0.11277782771E+03  0.12206018001E+03  0.00000000000E+00 0. -1.
</event>
<event>
 7    1  0.2556591E-009  0.1110676E+03  0.7561462E-02  0.1258606E+00
          2   -1    0    0  501    0  0.00000000000E+00  0.00000000000E+00  0.26381316854E+03  0.26381316854E+03  0.00000000000E+00 0. -1.
         -2   -1    0    0    0  501 -0.00000000000E+00 -0.00000000000E+00 -0.66850309899E+02  0.66850309899E+02  0.00000000000E+00 0.  1.
         25    2    1    2    0    0  0.10737374407E+02  0.67058980242E+02  0.91687324909E+02  0.16931130308E+03  0.12509018251E+03 0.  0.
          5    1    3    3  502    0  0.58968888476E+02  0.60164946127E+02  0.85358245036E+02  0.12000272058E+03  0.41800000000E+01 0. -1.
         -5    1    3    3    0  502 -0.48231514070E+02  0.68940341143E+01  0.63290798731E+01  0.49308582497E+02  0.41800000000E+01 0. -1.
        -11    1    1    2    0    0 -0.27239840535E+02 -0.92494578193E+01 -0.10722469613E+02  0.30700696034E+02  0.00000000000E+00 0.  1.
         11    1    1    2    0    0  0.16502466129E+02 -0.57809522422E+02  0.11599800335E+03  0.13065147933E+03  0.00000000000E+00 0. -1.
</event>
<event>
 7    1  0.2556591E-009  0.1173826E+03  0.7561462E-02  0.1247478E+00
         -1   -1    0    0    0  501 -0.00000000000E+00  0.00000000000E+00  0.27295004925E+03  0.27295004925E+03  0.00000000000E+00 0.  1.
          1   -1    0    0  501    0  0.00000000000E+00 -0.00000000000E+00 -0.69405487643E+02  0.69405487643E+02  0.00000000000E+00 0. -1.
         25    2    1    2    0    0 -0.45258992578E+02  0.55016279042E+02  0.17450903881E+03  0.22621880965E+03  0.12508548215E+03 0.  0.
          5    1    3    3  502    0 -0.42591007373E+02  0.83333961943E+02  0.67631641759E+02  0.11554243588E+03  0.41800000000E+01 0. -1.
         -5    1    3    3    0  502 -0.26679852047E+01 -0.28317682901E+02  0.10687739705E+03  0.11067637377E+03  0.41800000000E+01 0. -1.
        -11    1    1    2    0    0 -0.19680559238E+02  0.85555493850E+01  0.35228464005E+01  0.21747006322E+02  0.00000000000E+00 0. -1.
         11    1    1    2    0    0  0.64939551816E+02 -0.63571828427E+02  0.25512676399E+02  0.94389720926E+02  0.00000000000E+00 0.  1.
</event>
<event>
 7    1  0.2556591E-009  0.1178034E+03  0.7561462E-02  0.1246765E+00
          4   -1    0    0  501    0  0.00000000000E+00  0.00000000000E+00  0.41337359031E+02  0.41337359031E+02  0.00000000000E+00 0. -1.
         -4   -1    0    0    0  501 -0.00000000000E+00 -0.00000000000E+00 -0.34897948319E+03  0.34897948319E+03  0.00000000000E+00 0.  1.
         25    2    1    2    0    0  0.95152225012E+01 -0.45825272595E+02 -0.19340597901E+03  0.23504039821E+03  0.12509045129E+03 0.  0.
          5    1    3    3  502    0  0.13434265636E+02  0.42617469728E+02 -0.68119932158E+02  0.81575276748E+02  0.41800000000E+01 0. -1.
         -5    1    3    3    0  502 -0.39190431345E+01 -0.88442742323E+02 -0.12528604685E+03  0.15346512146E+03  0.41800000000E+01 0. -1.
        -11    1    1    2    0    0  0.61773851845E+01 -0.26950987543E+02 -0.49125535832E+02  0.56372281203E+02  0.00000000000E+00 0.  1.
         11    1    1    2    0    0 -0.15692607686E+02  0.72776260138E+02 -0.65110609312E+02  0.98904162807E+02  0.00000000000E+00 0. -1.
</event>
<event>
 7    1  0.2556591E-009  0.1086455E+03  0.7561462E-02  0.1263099E+00
         -1   -1    0    0    0  501 -0.00000000000E+00  0.00000000000E+00  0.40886540485E+02  0.40886540485E+02  0.00000000000E+00 0.  1.
          1   -1    0    0  501    0  0.00000000000E+00 -0.00000000000E+00 -0.41292136612E+03  0.41292136612E+03  0.00000000000E+00 0. -1.
         25    2    1    2    0    0  0.12473872226E+02 -0.35081757938E+02 -0.97634866913E+02  0.16299446211E+03  0.12509316613E+03 0.  0.
          5    1    3    3  502    0 -0.14647718472E+02 -0.73103331515E+02 -0.87480700675E+02  0.11501738184E+03  0.41800000000E+01 0.  1.
         -5    1    3    3    0  502  0.27121590698E+02  0.38021573576E+02 -0.10154166239E+02  0.47977080270E+02  0.41800000000E+01 0.  1.
        -11    1    1    2    0    0 -0.33993498975E+02 -0.17988695251E+02 -0.12634149103E+03  0.13206560296E+03  0.00000000000E+00 0. -1.
         11    1    1    2    0    0  0.21519626749E+02  0.53070453189E+02 -0.14805846769E+03  0.15874784153E+03  0.00000000000E+00 0.  1.
</event>
<event>
 7    1  0.2556591E-009  0.9483451E+02  0.7561462E-02  0.1291549E+00
         -4   -1    0    0    0  501 -0.00000000000E+00  0.00000000000E+00  0.54825936110E+03  0.54825936110E+03  0.00000000000E+00 0.  1.
          4   -1    0    0  501    0  0.00000000000E+00 -0.00000000000E+00 -0.27365872278E+02  0.27365872278E+02  0.00000000000E+00 0. -1.
         25    2    1    2    0    0 -0.45928817835E+02 -0.27241132228E+02  0.23590563166E+03  0.27230613231E+03  0.12509047545E+03 0.  0.
          5    1    3    3  502    0  0.53028324082E+01  0.30725384117E+02  0.16271071899E+03  0.16572392626E+03  0.41800000000E+01 0. -1.
         -5    1    3    3    0  502 -0.51231650243E+02 -0.57966516345E+02  0.73194912670E+02  0.10658220604E+03  0.41800000000E+01 0. -1.
        -11    1    1    2    0    0  0.41262474294E+02  0.45772892811E+02  0.27487417534E+03  0.28169764247E+03  0.00000000000E+00 0.  1.
         11    1    1    2    0    0  0.46663435413E+01 -0.18531760584E+02  0.10113681815E+02  0.21621458605E+02  0.00000000000E+00 0. -1.
</event>
<event>
 7    1  0.2556591E-009  0.7643268E+02  0.7561462E-02  0.1339491E+00
          2   -1    0    0  501    0  0.00000000000E+00  0.00000000000E+00  0.12084409326E+03  0.12084409326E+03  0.00000000000E+00 0. -1.
         -2   -1    0    0    0  501 -0.00000000000E+00 -0.00000000000E+00 -0.12812263381E+03  0.12812263381E+03  0.00000000000E+00 0.  1.
         25    2    1    2    0    0  0.26500550903E+02 -0.44439581784E+02 -0.16574378212E+02  0.13638105836E+03  0.12509167614E+03 0.  0.
          5    1    3    3  502    0  0.31627691026E+02 -0.66774679722E+02 -0.54476474282E+02  0.91893021181E+02  0.41800000000E+01 0.  1.
         -5    1    3    3    0  502 -0.51271401226E+01  0.22335097939E+02  0.37902096070E+02  0.44488037181E+02  0.41800000000E+01 0.  1.
        -11    1    1    2    0    0 -0.26132926466E+02  0.25134857845E+02 -0.43347698503E+02  0.56512953294E+02  0.00000000000E+00 0.  1.
         11    1    1    2    0    0 -0.36762443758E+00  0.19304723939E+02  0.52643536162E+02  0.56072715412E+02  0.00000000000E+00 0. -1.
</event>
<event>
 7    1  0.2556591E-009  0.1320407E+03  0.7561462E-02  0.1224459E+00
          1   -1    0    0  501    0  0.00000000000E+00  0.00000000000E+00  0.65917363784E+03  0.65917363784E+03  0.00000000000E+00 0. -1.
         -1   -1    0    0    0  501 -0.00000000000E+00 -0.00000000000E+00 -0.31689507395E+02  0.31689507395E+02  0.00000000000E+00 0.  1.
         25    2    1    2    0    0  0.63111730568E+01  0.96745853869E+02  0.34298288501E+03  0.37773370189E+03  0.12508356802E+03 0.  0.
          5    1    3    3  502    0 -0.65613843474E+00  0.11894914442E+03  0.19943910332E+03  0.23225580253E+03  0.41800000000E+01 0. -1.
         -5    1    3    3    0  502  0.69673114915E+01 -0.22203290552E+02  0.14354378169E+03  0.14547789936E+03  0.41800000000E+01 0. -1.
        -11    1    1    2    0    0 -0.39126193932E+02 -0.64287074603E+02  0.22841200548E+03  0.24049060535E+03  0.00000000000E+00 0.  1.
         11    1    1    2    0    0  0.32815020876E+02 -0.32458779267E+02  0.56089239954E+02  0.72638837995E+02  0.00000000000E+00 0. -1.
</event>
<event>
 7    1  0.2556591E-009  0.1113258E+03  0.7561462E-02  0.1258134E+00
          2   -1    0    0  501    0  0.00000000000E+00  0.00000000000E+00  0.31257996494E+02  0.31257996494E+02  0.00000000000E+00 0. -1.
         -2   -1    0    0    0  501 -0.00000000000E+00 -0.00000000000E+00 -0.42786112393E+03  0.42786112393E+03  0.00000000000E+00 0.  1.
         25    2    1    2    0    0  0.40462216650E+00  0.31355074991E+02 -0.27501020402E+03  0.30374586603E+03  0.12509050469E+03 0.  0.
          5    1    3    3  502    0  0.35374769354E+02 -0.36951392963E+02 -0.94057443207E+02  0.10714968395E+03  0.41800000000E+01 0. -1.
         -5    1    3    3    0  502 -0.34970147187E+02  0.68306467954E+02 -0.18095276082E+03  0.19659618207E+03  0.41800000000E+01 0. -1.
        -11    1    1    2    0    0  0.81899633714E+01 -0.62055889582E+02 -0.95452585207E+02  0.11414554286E+03  0.00000000000E+00 0.  1.
         11    1    1    2    0    0 -0.85945855379E+01  0.30700814591E+02 -0.26140338203E+02  0.41227711536E+02  0.00000000000E+00 0. -1.
</event>
<event>
 7    1  0.2556591E-009  0.9377248E+02  0.7561462E-02  0.1293965E+00
          2   -1    0    0  501    0  0.00000000000E+00  0.00000000000E+00  0.79617933478E+02  0.79617933478E+02  0.00000000000E+00 0. -1.
         -2   -1    0    0    0  501 -0.00000000000E+00 -0.00000000000E+00 -0.17729012818E+03  0.17729012818E+03  0.00000000000E+00 0.  1.
         25    2    1    2    0    0  0.32585957622E+02 -0.22610222143E+02 -0.36604424322E+02  0.13623328906E+03  0.12508620383E+03 0.  0.
          5    1    3    3  502    0  0.61075899223E+02 -0.58656097867E+01  0.24851686714E+02  0.66330608143E+02  0.41800000000E+01 0. -1.
         -5    1    3    3    0  502 -0.28489941601E+02 -0.16744612356E+02 -0.61456111036E+02  0.69902680915E+02  0.41800000000E+01 0. -1.
        -11    1    1    2    0    0  0.22993979954E+02 -0.13301215007E+02 -0.45514514639E+02  0.52699302440E+02  0.00000000000E+00 0.  1.
         11    1    1    2    0    0 -0.55579937575E+02  0.35911437150E+02 -0.15553255736E+02  0.67975470157E+02  0.00000000000E+00 0. -1.
</event>
<event>
 7    1  0.2556591E-009  0.1301945E+03  0.7561462E-02  0.1227167E+00
         -2   -1    0    0    0  501 -0.00000000000E+00  0.00000000000E+00  0.22692920670E+02  0.22692920670E+02  0.00000000000E+00 0. -1.
          2   -1    0    0  501    0  0.00000000000E+00 -0.00000000000E+00 -0.15679456125E+04  0.15679456125E+04  0.00000000000E+00 0.  1.
         25    2    1    2    0    0  0.97788477433E+02  0.11162969442E+02 -0.13107320868E+04  0.13203610754E+04  0.12509023900E+03 0.  0.
          5    1    3    3  502    0  0.94098679297E+02 -0.19516847759E+02 -0.12309350177E+04  0.12346877982E+04  0.41800000000E+01 0. -1.
         -5    1    3    3    0  502  0.36897981358E+01  0.30679817200E+02 -0.79797069099E+02  0.85673277226E+02  0.41800000000E+01 0. -1.
        -11    1    1    2    0    0 -0.46668630105E+02 -0.50313441902E+02 -0.10192114692E+03  0.12287116692E+03  0.00000000000E+00 0. -1.
         11    1    1    2    0    0 -0.51119847328E+02  0.39150472461E+02 -0.13259945808E+03  0.14740629080E+03  0.00000000000E+00 0.  1.
</event>
<event>
 7    1  0.2689824E-009  0.1426418E+03  0.7561462E-02  0.1209818E+00
         -1   -1    0    0    0  501 -0.00000000000E+00  0.00000000000E+00  0.35759384954E+02  0.35759384954E+02  0.00000000000E+00 0.  1.
          1   -1    0    0  501    0  0.00000000000E+00 -0.00000000000E+00 -0.62353191866E+03  0.62353191866E+03  0.00000000000E+00 0. -1.
         25    2    1    2    0    0 -0.57404128943E+02  0.84969065810E+02 -0.33503243479E+03  0.37203445930E+03  0.12509168792E+03 0.  0.
          5    1    3    3  502    0  0.28855015513E+02 -0.30572281187E+01 -0.12576062213E+03  0.12913235475E+03  0.41800000000E+01 0.  1.
         -5    1    3    3    0  502 -0.86259144456E+02  0.88026293929E+02 -0.20927181266E+03  0.24290210456E+03  0.41800000000E+01 0.  1.
        -11    1    1    2    0    0  0.14104686634E+02 -0.88116486664E+02 -0.13558715643E+03  0.16231861999E+03  0.00000000000E+00 0.  1.
         11    1    1    2    0    0  0.43299442309E+02  0.31474208532E+01 -0.11715294248E+03  0.12493822432E+03  0.00000000000E+00 0. -1.
</event>
<event>
 7    1  0.2556591E-009  0.9271257E+02  0.7561462E-02  0.1296413E+00
          1   -1    0    0  501    0  0.00000000000E+00  0.00000000000E+00  0.24022594164E+03  0.24022594164E+03  0.00000000000E+00 0. -1.
         -1   -1    0    0    0  501 -0.00000000000E+00 -0.00000000000E+00 -0.63257115525E+02  0.63257115525E+02  0.00000000000E+00 0.  1.
         25    2    1    2    0    0 -0.53737428048E+02 -0.12841641223E+02  0.78587283412E+02  0.15772068394E+03  0.12508890481E+03 0.  0.
          5    1    3    3  502    0 -0.25727141060E+02  0.41393865937E+02  0.83037638109E+02  0.96374579984E+02  0.41800000000E+01 0. -1.
         -5    1    3    3    0  502 -0.28010286987E+02 -0.54235507160E+02 -0.44503546965E+01  0.61346103959E+02  0.41800000000E+01 0. -1.
        -11    1    1    2    0    0  0.11955845214E+02  0.28341713030E+02 -0.68235161603E+01  0.31508019694E+02  0.00000000000E+00 0.  1.
         11    1    1    2    0    0  0.41781582834E+02 -0.15500071807E+02  0.10520505887E+03  0.11425435353E+03  0.00000000000E+00 0. -1.
</event>
<event>
 7    1  0.2556591E-009  0.1804185E+03  0.7561462E-02  0.1167399E+00
         -1   -1    0    0    0  501 -0.00000000000E+00  0.00000000000E+00  0.30015613980E+02  0.30015613980E+02  0.00000000000E+00 0.  1.
          1   -1    0    0  501    0  0.00000000000E+00 -0.00000000000E+00 -0.20354360930E+04  0.20354360930E+04  0.00000000000E+00 0. -1.
         25    2    1    2    0    0  0.12224951609E+02 -0.16110674016E+03 -0.16682765122E+04  0.16807431828E+04  0.12508514680E+03 0.  0.
          5    1    3    3  502    0 -0.42475959490E+02 -0.12785146539E+03 -0.93494550514E+03  0.94461144093E+03  0.41800000000E+01 0.  1.
         -5    1    3    3    0  502  0.54700911099E+02 -0.33255274768E+02 -0.73333100710E+03  0.73613174185E+03  0.41800000000E+01 0.  1.
        -11    1    1    2    0    0  0.12384783229E+01  0.44187540119E+02 -0.24266131263E+02  0.50427350285E+02  0.00000000000E+00 0.  1.
         11    1    1    2    0    0 -0.13463429932E+02  0.11691920004E+03 -0.31287783547E+03  0.33428117389E+03  0.00000000000E+00 0. -1.
</event>
<event>
 7    1  0.2556591E-009  0.8643748E+02  0.7561462E-02  0.1311716E+00
         -1   -1    0    0    0  501 -0.00000000000E+00  0.00000000000E+00  0.56068701163E+02  0.56068701163E+02  0.00000000000E+00 0.  1.
          1   -1    0    0  501    0  0.00000000000E+00 -0.00000000000E+00 -0.30050059712E+03  0.30050059712E+03  0.00000000000E+00 0. -1.
         25    2    1    2    0    0  0.23190450511E+02 -0.27236630634E+02 -0.58149534961E+02  0.14250875550E+03  0.12509095066E+03 0.  0.
          5    1    3    3  502    0 -0.16097900040E+02 -0.52317326379E+02  0.13867674895E+02  0.56621814101E+02  0.41800000000E+01 0.  1.
         -5    1    3    3    0  502  0.39288350550E+02  0.25080695745E+02 -0.72017209857E+02  0.85886941403E+02  0.41800000000E+01 0.  1.
        -11    1    1    2    0    0  0.60775940998E+01 -0.17046792202E+02  0.22140428228E+01  0.18232724975E+02  0.00000000000E+00 0.  1.
         11    1    1    2    0    0 -0.29268044611E+02  0.44283422836E+02 -0.18849640381E+03  0.19582781780E+03  0.00000000000E+00 0. -1.
</event>
<event>
 7    1  0.2556591E-009  0.1634984E+03  0.7561462E-02  0.1184803E+00
          2   -1    0    0  501    0  0.00000000000E+00  0.00000000000E+00  0.15501510391E+04  0.15501510391E+04  0.00000000000E+00 0.  1.
         -2   -1    0    0    0  501 -0.00000000000E+00 -0.00000000000E+00 -0.18483105017E+02  0.18483105017E+02  0.00000000000E+00 0. -1.
         25    2    1    2    0    0  0.11069385797E+03  0.64589611620E+02  0.90757930916E+03  0.92507933523E+03  0.12508647375E+03 0.  0.
          5    1    3    3  502    0  0.57343336694E+02 -0.32460083132E+02  0.27117320861E+03  0.27909549751E+03  0.41800000000E+01 0.  1.
         -5    1    3    3    0  502  0.53350521277E+02  0.97049694752E+02  0.63640610055E+03  0.64598383772E+03  0.41800000000E+01 0.  1.
        -11    1    1    2    0    0 -0.11391694408E+03 -0.33291876706E+02  0.55631884068E+03  0.56883747389E+03  0.00000000000E+00 0.  1.
         11    1    1    2    0    0  0.32230861060E+01 -0.31297734914E+02  0.67769784257E+02  0.74717335024E+02  0.00000000000E+00 0. -1.
</event>
<event>
 7    1  0.2556591E-009  0.3566967E+03  0.7561462E-02  0.1059900E+00
          2   -1    0    0  501    0  0.00000000000E+00  0.00000000000E+00  0.98722121649E+03  0.98722121649E+03  0.00000000000E+00 0. -1.
         -2   -1    0    0    0  501 -0.00000000000E+00 -0.00000000000E+00 -0.17132320341E+03  0.17132320341E+03  0.00000000000E+00 0.  1.
         25    2    1    2    0    0  0.13903008054E+03  0.32493074701E+03  0.15959544633E+03  0.40746355923E+03  0.12508593833E+03 0.  0.
          5    1    3    3  502    0  0.11175280519E+03  0.30777599906E+03  0.17523537410E+03  0.37140229375E+03  0.41800000000E+01 0. -1.
         -5    1    3    3    0  502  0.27277275353E+02  0.17154747945E+02 -0.15639927769E+02  0.36061265484E+02  0.41800000000E+01 0. -1.
        -11    1    1    2    0    0 -0.17056334597E+02 -0.42323830192E+02  0.34303464693E+02  0.57087238871E+02  0.00000000000E+00 0.  1.
         11    1    1    2    0    0 -0.12197374594E+03 -0.28260691681E+03  0.62199910206E+03  0.69399362179E+03  0.00000000000E+00 0. -1.
</event>
<event>
 7    1  0.2556591E-009  0.8543324E+02  0.7561462E-02  0.1314303E+00
         -2   -1    0    0    0  501 -0.00000000000E+00  0.00000000000E+00  0.13944876278E+03  0.13944876278E+03  0.00000000000E+00 0.  1.
          2   -1    0    0  501    0  0.00000000000E+00 -0.00000000000E+00 -0.90997486492E+02  0.90997486492E+02  0.00000000000E+00 0. -1.
         25    2    1    2    0    0 -0.16091745292E+02  0.68970474912E+01  0.19259699950E+01  0.12632542232E+03  0.12509152422E+03 0.  0.
          5    1    3    3  502    0  0.28282807169E+02  0.15496339253E+02 -0.48553689624E+02  0.58437889145E+02  0.41800000000E+01 0.  1.
         -5    1    3    3    0  502 -0.44374552461E+02 -0.85992917620E+01  0.50479659619E+02  0.67887533172E+02  0.41800000000E+01 0.  1.
        -11    1    1    2    0    0  0.54111488235E+02  0.10086934864E+01  0.30386008665E+02  0.62067545015E+02  0.00000000000E+00 0.  1.
         11    1    1    2    0    0 -0.38019742943E+02 -0.79057409776E+01  0.16139297624E+02  0.42053281937E+02  0.00000000000E+00 0. -1.
</event>
<event>
 7    1  0.2556591E-009  0.1599694E+03  0.7561462E-02  0.1188731E+00
         -1   -1    0    0    0  501 -0.00000000000E+00  0.00000000000E+00  0.45004501908E+03  0.45004501908E+03  0.00000000000E+00 0.  1.
          1   -1    0    0  501    0  0.00000000000E+00 -0.00000000000E+00 -0.66971091302E+02  0.66971091302E+02  0.00000000000E+00 0. -1.
         25    2    1    2    0    0  0.12009768642E+03 -0.24029469790E+02  0.11879025413E+03  0.21156442439E+03  0.12509001356E+03 0.  0.
          5    1    3    3  502    0 -0.85934397427E+01  0.29711954055E+02  0.51843327049E+01  0.31638538619E+02  0.41800000000E+01 0.  1.
         -5    1    3    3    0  502  0.12869112616E+03 -0.53741423845E+02  0.11360592142E+03  0.17992588577E+03  0.41800000000E+01 0.  1.
        -11    1    1    2    0    0 -0.40990136075E+02 -0.32219316230E+02  0.12730462205E+03  0.13756722862E+03  0.00000000000E+00 0.  1.
         11    1    1    2    0    0 -0.79107550343E+02  0.56248786020E+02  0.13697905160E+03  0.16788445737E+03  0.00000000000E+00 0. -1.
</event>
<event>
 7    1  0.2556591E-009  0.2305667E+03  0.7561462E-02  0.1126242E+00
          2   -1    0    0  501    0  0.00000000000E+00  0.00000000000E+00  0.31370244075E+03  0.31370244075E+03  0.00000000000E+00 0. -1.
         -2   -1    0    0    0  501 -0.00000000000E+00 -0.00000000000E+00 -0.18997316113E+03  0.18997316113E+03  0.00000000000E+00 0.  1.
         25    2    1    2    0    0  0.15078637181E+03  0.15898139921E+03  0.65803034941E+02  0.26074694383E+03  0.12508922453E+03 0.  0.
          5    1    3    3  502    0  0.21458795144E+02  0.60576904196E+02  0.73848849878E+02  0.97985540971E+02  0.41800000000E+01 0.  1.
         -5    1    3    3    0  502  0.12932757666E+03  0.98404495013E+02 -0.80458149368E+01  0.16276140286E+03  0.41800000000E+01 0.  1.
        -11    1    1    2    0    0 -0.87117949194E+02 -0.33269514104E+02  0.37624059293E+02  0.10055827901E+03  0.00000000000E+00 0. -1.
         11    1    1    2    0    0 -0.63668422613E+02 -0.12571188511E+03  0.20302185378E+02  0.14237037903E+03  0.00000000000E+00 0.  1.
</event>
<event>
 7    1  0.2556591E-009  0.9539209E+02  0.7561462E-02  0.1290295E+00
          4   -1    0    0  501    0  0.00000000000E+00  0.00000000000E+00  0.54646496245E+03  0.54646496245E+03  0.00000000000E+00 0. -1.
         -4   -1    0    0    0  501 -0.00000000000E+00 -0.00000000000E+00 -0.32233638703E+02  0.32233638703E+02  0.00000000000E+00 0.  1.
         25    2    1    2    0    0 -0.37086978357E+01 -0.70915178975E+02  0.34150859390E+03  0.37056531159E+03  0.12509122031E+03 0.  0.
          5    1    3    3  502    0 -0.54907341102E+01  0.54702270377E+01 -0.85303181092E+01  0.12260108970E+02  0.41800000000E+01 0.  1.
         -5    1    3    3    0  502  0.17820362745E+01 -0.76385406012E+02  0.35003891200E+03  0.35830520262E+03  0.41800000000E+01 0.  1.
        -11    1    1    2    0    0  0.40833720202E+02  0.39738507897E+02  0.13556304191E+03  0.14705060370E+03  0.00000000000E+00 0.  1.
         11    1    1    2    0    0 -0.37125022367E+02  0.31176671077E+02  0.37159687942E+02  0.61082685871E+02  0.00000000000E+00 0. -1.
</event>
<event>
 7    1  0.2556591E-009  0.1264818E+03  0.7561462E-02  0.1232771E+00
         -2   -1    0    0    0  501 -0.00000000000E+00  0.00000000000E+00  0.29268895259E+02  0.29268895259E+02  0.00000000000E+00 0.  1.
          2   -1    0    0  501    0  0.00000000000E+00 -0.00000000000E+00 -0.83672329456E+03  0.83672329456E+03  0.00000000000E+00 0. -1.
         25    2    1    2    0    0 -0.45194450866E+02 -0.76113651659E+02 -0.63010565032E+03  0.64847170195E+03  0.12508633541E+03 0.  0.
          5    1    3    3  502    0 -0.41553826632E+02  0.12485385896E+02 -0.39093695783E+03  0.39335960998E+03  0.41800000000E+01 0. -1.
         -5    1    3    3    0  502 -0.36406242340E+01 -0.88599037555E+02 -0.23916869249E+03  0.25511209197E+03  0.41800000000E+01 0. -1.
        -11    1    1    2    0    0  0.21800596317E+02 -0.15045538311E+02 -0.16636444491E+02  0.31279474231E+02  0.00000000000E+00 0.  1.
         11    1    1    2    0    0  0.23393854550E+02  0.91159189970E+02 -0.16071230449E+03  0.18624101364E+03  0.00000000000E+00 0. -1.
</event>
<event>
 7    1  0.2758166E-009  0.1022207E+03  0.7561462E-02  0.1275694E+00
         -2   -1    0    0    0  501 -0.00000000000E+00  0.00000000000E+00  0.47598982254E+02  0.47598982254E+02  0.00000000000E+00 0. -1.
          2   -1    0    0  501    0  0.00000000000E+00 -0.00000000000E+00 -0.43259771880E+03  0.43259771880E+03  0.00000000000E+00 0.  1.
         25    2    1    2    0    0  0.35226499274E+02  0.17791167846E+01 -0.64109145305E+02  0.14491822879E+03  0.12508892444E+03 0.  0.
          5    1    3    3  502    0  0.77813842540E+02  0.20580843007E+02 -0.26238550262E+02  0.84761424654E+02  0.41800000000E+01 0.  1.
         -5    1    3    3    0  502 -0.42587343266E+02 -0.18801726222E+02 -0.37870595043E+02  0.60156804140E+02  0.41800000000E+01 0.  1.
        -11    1    1    2    0    0 -0.38557468323E+02 -0.29895830161E+02 -0.28700186849E+03  0.29111941114E+03  0.00000000000E+00 0.  1.
         11    1    1    2    0    0  0.33309690492E+01  0.28116713376E+02 -0.33887722748E+02  0.44159061119E+02  0.00000000000E+00 0. -1.
</event>
<event>
 7    1  0.2556591E-009  0.1584131E+03  0.7561462E-02  0.1190500E+00
          1   -1    0    0  501    0  0.00000000000E+00  0.00000000000E+00  0.17556333959E+04  0.17556333959E+04  0.00000000000E+00 0. -1.
         -1   -1    0    0    0  501 -0.00000000000E+00 -0.00000000000E+00 -0.19140182546E+02  0.19140182546E+02  0.00000000000E+00 0.  1.
         25    2    1    2    0    0 -0.83463303422E+02 -0.11109097675E+03  0.11463421852E+04  0.11614883290E+04  0.12508958626E+03 0.  0.
          5    1    3    3  502    0 -0.92126700072E+02 -0.86104260512E+02  0.11053463288E+04  0.11125238207E+04  0.41800000000E+01 0. -1.
         -5    1    3    3    0  502  0.86633966497E+01 -0.24986716242E+02  0.40995856377E+02  0.48964508270E+02  0.41800000000E+01 0. -1.
        -11    1    1    2    0    0  0.25868630171E+00  0.71916390549E+02  0.20304608283E+03  0.21540600247E+03  0.00000000000E+00 0. -1.
         11    1    1    2    0    0  0.83204617120E+02  0.39174586204E+02  0.38710494528E+03  0.39787924697E+03  0.00000000000E+00 0.  1.
</event>
<event>
 7    1  0.2894792E-009  0.1543703E+03  0.7561462E-02  0.1195203E+00
         -3   -1    0    0    0  501 -0.00000000000E+00  0.00000000000E+00  0.57425619507E+02  0.57425619507E+02  0.00000000000E+00 0.  1.
          3   -1    0    0  501    0  0.00000000000E+00 -0.00000000000E+00 -0.50523053431E+03  0.50523053431E+03  0.00000000000E+00 0. -1.
         25    2    1    2    0    0 -0.12613588140E+03  0.75241134714E+01 -0.17843434490E+03  0.25189816337E+03  0.12508795468E+03 0.  0.
          5    1    3    3  502    0  0.15803330218E+02 -0.26664384971E+01  0.71138970107E+01  0.18025955479E+02  0.41800000000E+01 0.  1.
         -5    1    3    3    0  502 -0.14193921162E+03  0.10190551968E+02 -0.18554824191E+03  0.23387220789E+03  0.41800000000E+01 0.  1.
        -11    1    1    2    0    0  0.52856907793E+02 -0.43241903820E+02 -0.16311080202E+03  0.17682999938E+03  0.00000000000E+00 0. -1.
         11    1    1    2    0    0  0.73278973611E+02  0.35717790349E+02 -0.10625976789E+03  0.13392799107E+03  0.00000000000E+00 0.  1.
</event>
<event>
 7    1  0.2556591E-009  0.1327255E+03  0.7561462E-02  0.1223467E+00
         -2   -1    0    0    0  501 -0.00000000000E+00  0.00000000000E+00  0.33534852176E+03  0.33534852176E+03  0.00000000000E+00 0.  1.
          2   -1    0    0  501    0  0.00000000000E+00 -0.00000000000E+00 -0.66713954705E+02  0.66713954705E+02  0.00000000000E+00 0. -1.
         25    2    1    2    0    0  0.99462053072E+02  0.20313916162E+02  0.16858858814E+03  0.23318020561E+03  0.12508213720E+03 0.  0.
          5    1    3    3  502    0  0.89089239110E+02 -0.21404045464E+02  0.44805994434E+02  0.10207876971E+03  0.41800000000E+01 0.  1.
         -5    1    3    3    0  502  0.10372813962E+02  0.41717961626E+02  0.12378259370E+03  0.13110143590E+03  0.41800000000E+01 0.  1.
        -11    1    1    2    0    0 -0.48594588591E+02  0.31515671555E+02  0.68502491332E+02  0.89706537736E+02  0.00000000000E+00 0. -1.
         11    1    1    2    0    0 -0.50867464480E+02 -0.51829587717E+02  0.31543487581E+02  0.79175733115E+02  0.00000000000E+00 0.  1.
</event>
<event>
 7    1  0.2556591E-009  0.8325448E+02  0.7561462E-02  0.1320061E+00
         -1   -1    0    0    0  501 -0.00000000000E+00  0.00000000000E+00  0.21794207353E+02  0.21794207353E+02  0.00000000000E+00 0.  1.
          1   -1    0    0  501    0  0.00000000000E+00 -0.00000000000E+00 -0.87033336655E+03  0.87033336655E+03  0.00000000000E+00 0. -1.
         25    2    1    2    0    0  0.66587677774E+02 -0.27838653818E+02 -0.61015713143E+03  0.62701489322E+03  0.12508813618E+03 0.  0.
          5    1    3    3  502    0  0.74928681236E+02 -0.26650989130E+02 -0.61222698400E+03  0.61738475429E+03  0.41800000000E+01 0.  1.
         -5    1    3    3    0  502 -0.83410034616E+01 -0.11876646882E+01  0.20698525727E+01  0.96301389310E+01  0.41800000000E+01 0.  1.
        -11    1    1    2    0    0 -0.53743599707E+02  0.33607848477E+02 -0.24233523707E+03  0.25048798198E+03  0.00000000000E+00 0. -1.
         11    1    1    2    0    0 -0.12844078067E+02 -0.57691946596E+01  0.39532093006E+01  0.14624698704E+02  0.00000000000E+00 0.  1.
</event>
<event>
 7    1  0.2556591E-009  0.1384837E+03  0.7561462E-02  0.1215384E+00
         -1   -1    0    0    0  501 -0.00000000000E+00  0.00000000000E+00  0.57730012504E+03  0.57730012504E+03  0.00000000000E+00 0.  1.
          1   -1    0    0  501    0  0.00000000000E+00 -0.00000000000E+00 -0.39089749591E+02  0.39089749591E+02  0.00000000000E+00 0. -1.
         25    2    1    2    0    0 -0.99369913052E+02 -0.23606584921E+02  0.24554360713E+03  0.29388926859E+03  0.12509032225E+03 0.  0.
          5    1    3    3  502    0  0.11040251401E+02 -0.40313283889E+02  0.11283199821E+03  0.12039759229E+03  0.41800000000E+01 0.  1.
         -5    1    3    3    0  502 -0.11041016445E+03  0.16706698968E+02  0.13271160892E+03  0.17349167630E+03  0.41800000000E+01 0.  1.
        -11    1    1    2    0    0  0.51279296842E+02  0.47159303485E+02  0.22871599280E+03  0.23909113650E+03  0.00000000000E+00 0.  1.
         11    1    1    2    0    0  0.48090616211E+02 -0.23552718564E+02  0.63950775522E+02  0.83409469541E+02  0.00000000000E+00 0. -1.
</event>
<event>
 7    1  0.2556591E-009  0.1476166E+03  0.7561462E-02  0.1203433E+00
          2   -1    0    0  501    0  0.00000000000E+00  0.00000000000E+00  0.82002496249E+02  0.82002496249E+02  0.00000000000E+00 0. -1.
         -2   -1    0    0    0  501 -0.00000000000E+00 -0.00000000000E+00 -0.31903844158E+03  0.31903844158E+03  0.00000000000E+00 0.  1.
         25    2    1    2    0    0 -0.99936155238E+02  0.22888687962E+02 -0.54235051765E+02  0.17058785765E+03  0.12509056390E+03 0.  0.
          5    1    3    3  502    0 -0.35336477466E+02 -0.51721851317E+02 -0.17189234649E+02  0.65090388930E+02  0.41800000000E+01 0.  1.
         -5    1    3    3    0  502 -0.64599677772E+02  0.74610539279E+02 -0.37045817116E+02  0.10549746872E+03  0.41800000000E+01 0.  1.
        -11    1    1    2    0    0 -0.65723413628E+01 -0.26302527999E+02 -0.71008650119E+02  0.76008203780E+02  0.00000000000E+00 0.  1.
         11    1    1    2    0    0  0.10650849660E+03  0.34138400369E+01 -0.11179224345E+03  0.15444487640E+03  0.00000000000E+00 0. -1.
</event>
<event>
 7    1  0.2556591E-009  0.1067930E+03  0.7561462E-02  0.1266627E+00
          3   -1    0    0  501    0  0.00000000000E+00  0.00000000000E+00  0.11226288293E+03  0.11226288293E+03  0.00000000000E+00 0. -1.
         -3   -1    0    0    0  501 -0.00000000000E+00 -0.00000000000E+00 -0.19841129482E+03  0.19841129482E+03  0.00000000000E+00 0.  1.
         25    2    1    2    0    0  0.48619327784E+02  0.34242363841E+02 -0.13474980335E+03  0.19323509751E+03  0.12508363159E+03 0.  0.
          5    1    3    3  502    0 -0.16120931858E+02  0.64639376084E+02 -0.61208781618E+02  0.90565560406E+02  0.41800000000E+01 0. -1.
         -5    1    3    3    0  502  0.64740259641E+02 -0.30397012243E+02 -0.73541021728E+02  0.10266953710E+03  0.41800000000E+01 0. -1.
        -11    1    1    2    0    0 -0.34040373553E+02  0.39911711038E+01  0.64899737585E+02  0.73393817294E+02  0.00000000000E+00 0. -1.
         11    1    1    2    0    0 -0.14578954231E+02 -0.38233534945E+02 -0.16298346130E+02  0.44045262940E+02  0.00000000000E+00 0.  1.
</event>
<event>
 7    1  0.2556591E-009  0.7278702E+02  0.7561462E-02  0.1350864E+00
         -4   -1    0    0    0  501 -0.00000000000E+00  0.00000000000E+00  0.10923584625E+03  0.10923584625E+03  0.00000000000E+00 0.  1.
          4   -1    0    0  501    0  0.00000000000E+00 -0.00000000000E+00 -0.10935984106E+03  0.10935984106E+03  0.00000000000E+00 0. -1.
         25    2    1    2    0    0 -0.55280019515E+01  0.38368382428E+01 -0.19407285137E+02  0.12676892246E+03  0.12509371228E+03 0.  0.
          5    1    3    3  502    0 -0.29740767396E+02  0.13990034294E+02  0.45697869562E+02  0.56444680771E+02  0.41800000000E+01 0.  1.
         -5    1    3    3    0  502  0.24212765445E+02 -0.10153196051E+02 -0.65105154699E+02  0.70324241687E+02  0.41800000000E+01 0.  1.
        -11    1    1    2    0    0  0.41977216824E+02  0.15312679853E+02 -0.34113686107E+01  0.44812970582E+02  0.00000000000E+00 0. -1.
         11    1    1    2    0    0 -0.36449214872E+02 -0.19149518095E+02  0.22694658934E+02  0.47013794276E+02  0.00000000000E+00 0.  1.
</event>
<event>
 7    1  0.2556591E-009  0.1078109E+03  0.7561462E-02  0.1264678E+00
         -2   -1    0    0    0  501 -0.00000000000E+00  0.00000000000E+00  0.20895990409E+03  0.20895990409E+03  0.00000000000E+00 0. -1.
          2   -1    0    0  501    0  0.00000000000E+00 -0.00000000000E+00 -0.71587043761E+02  0.71587043761E+02  0.00000000000E+00 0.  1.
         25    2    1    2    0    0 -0.12593825810E+02 -0.41769848855E+02  0.38647225772E+02  0.13799464478E+03  0.12508232971E+03 0.  0.
          5    1    3    3  502    0  0.43954084258E+02 -0.44231211848E+02  0.50095247656E+02  0.80095991549E+02  0.41800000000E+01 0. -1.
         -5    1    3    3    0  502 -0.56547910069E+02  0.24613629927E+01 -0.11448021883E+02  0.57898653231E+02  0.41800000000E+01 0. -1.
        -11    1    1    2    0    0 -0.34222033156E+02  0.35202046844E+02  0.25316591239E+02  0.55238224512E+02  0.00000000000E+00 0.  1.
         11    1    1    2    0    0  0.46815858966E+02  0.65678020112E+01  0.73409043322E+02  0.87314078564E+02  0.00000000000E+00 0. -1.
</event>
<event>
 7    1  0.2556591E-009  0.1069240E+03  0.7561462E-02  0.1266375E+00
          1   -1    0    0  501    0  0.00000000000E+00  0.00000000000E+00  0.30333137920E+03  0.30333137920E+03  0.00000000000E+00 0. -1.
         -1   -1    0    0    0  501 -0.00000000000E+00 -0.00000000000E+00 -0.48430180476E+02  0.48430180476E+02  0.00000000000E+00 0.  1.
         25    2    1    2    0    0 -0.40270444316E+02 -0.32020754016E+02  0.11862969566E+03  0.17991274833E+03  0.12509418430E+03 0.  0.
          5    1    3    3  502    0 -0.16529194088E+02 -0.65750149297E+02  0.16806610045E+02  0.69973072899E+02  0.41800000000E+01 0. -1.
         -5    1    3    3    0  502 -0.23741250228E+02  0.33729395281E+02  0.10182308562E+03  0.10993967543E+03  0.41800000000E+01 0. -1.
        -11    1    1    2    0    0  0.16794852606E+02  0.63224122056E+02  0.79687518318E+02  0.10309925926E+03  0.00000000000E+00 0.  1.
         11    1    1    2    0    0  0.23475591709E+02 -0.31203368040E+02  0.56583984738E+02  0.68749552086E+02  0.00000000000E+00 0. -1.
</event>
<event>
 7    1  0.2556591E-009  0.1094057E+03  0.7561462E-02  0.1261674E+00
          1   -1    0    0  501    0  0.00000000000E+00  0.00000000000E+00  0.46330326550E+03  0.46330326550E+03  0.00000000000E+00 0. -1.
         -1   -1    0    0    0  501 -0.00000000000E+00 -0.00000000000E+00 -0.43327021922E+02  0.43327021922E+02  0.00000000000E+00 0.  1.
         25    2    1    2    0    0  0.36228071429E+02  0.29896409882E+02  0.36671302056E+03  0.39029627021E+03  0.12508585293E+03 0.  0.
          5    1    3    3  502    0  0.55922652411E+00  0.69746411641E+02  0.13008128946E+03  0.14766004517E+03  0.41800000000E+01 0. -1.
         -5    1    3    3    0  502  0.35668844905E+02 -0.39850001758E+02  0.23663173110E+03  0.24263622504E+03  0.41800000000E+01 0. -1.
        -11    1    1    2    0    0  0.32885132765E+01 -0.50582525046E+02  0.55067011178E+01  0.50987546683E+02  0.00000000000E+00 0.  1.
         11    1    1    2    0    0 -0.39516584705E+02  0.20686115164E+02  0.47756521898E+02  0.65346470533E+02  0.00000000000E+00 0. -1.
</event>
<event>
 7    1  0.2556591E-009  0.5495777E+02  0.7561462E-02  0.1420299E+00
         -2   -1    0    0    0  501 -0.00000000000E+00  0.00000000000E+00  0.33546757222E+03  0.33546757222E+03  0.00000000000E+00 0.  1.
          2   -1    0    0  501    0  0.00000000000E+00 -0.00000000000E+00 -0.37148507655E+02  0.37148507655E+02  0.00000000000E+00 0. -1.
         25    2    1    2    0    0 -0.12507669271E+02  0.24801312920E+02  0.18764149834E+03  0.22722077267E+03  0.12509356787E+03 0.  0.
          5    1    3    3  502    0  0.46756472143E+00  0.18368030264E+02 -0.14959651350E+02  0.24059649230E+02  0.41800000000E+01 0.  1.
         -5    1    3    3    0  502 -0.12975233993E+02  0.64332826563E+01  0.20260114969E+03  0.20316112344E+03  0.41800000000E+01 0.  1.
        -11    1    1    2    0    0  0.17007716828E+02 -0.48749460125E+02  0.27045682587E+02  0.58285857982E+02  0.00000000000E+00 0. -1.
         11    1    1    2    0    0 -0.45000475572E+01  0.23948147204E+02  0.83631883637E+02  0.87109449219E+02  0.00000000000E+00 0.  1.
</event>
<event>
 7    1  0.2556591E-009  0.1516800E+03  0.7561462E-02  0.1198424E+00
         -2   -1    0    0    0  501 -0.00000000000E+00  0.00000000000E+00  0.27311888769E+02  0.27311888769E+02  0.00000000000E+00 0.  1.
          2   -1    0    0  501    0  0.00000000000E+00 -0.00000000000E+00 -0.87460592216E+03  0.87460592216E+03  0.00000000000E+00 0. -1.
         25    2    1    2    0    0  0.46127555240E+02  0.99818742048E+02 -0.47148660577E+03  0.50004077947E+03  0.12509847759E+03 0.  0.
          5    1    3    3  502    0  0.52836706018E+02  0.12698957345E+03 -0.37316444800E+03  0.39772760392E+03  0.41800000000E+01 0.  1.
         -5    1    3    3    0  502 -0.67091507785E+01 -0.27170831397E+02 -0.98322157775E+02  0.10231317556E+03  0.41800000000E+01 0.  1.
        -11    1    1    2    0    0  0.15614474045E+00  0.14304173804E+02 -0.15441953804E+02  0.21049648612E+02  0.00000000000E+00 0.  1.
         11    1    1    2    0    0 -0.46283699980E+02 -0.11412291585E+03 -0.36036547381E+03  0.38082738284E+03  0.00000000000E+00 0. -1.
</event>
<event>
 7    1  0.2556591E-009  0.9542863E+02  0.7561462E-02  0.1290214E+00
          2   -1    0    0  501    0  0.00000000000E+00  0.00000000000E+00  0.35017599184E+03  0.35017599184E+03  0.00000000000E+00 0. -1.
         -2   -1    0    0    0  501 -0.00000000000E+00 -0.00000000000E+00 -0.43716499358E+02  0.43716499358E+02  0.00000000000E+00 0.  1.
         25    2    1    2    0    0  0.19548241729E+02 -0.52663740293E+02  0.20619573718E+03  0.24762867605E+03  0.12509067062E+03 0.  0.
          5    1    3    3  502    0 -0.57317311126E+01 -0.86426592906E+02  0.94990357273E+02  0.12861978494E+03  0.41800000000E+01 0.  1.
         -5    1    3    3    0  502  0.25279972842E+02  0.33762852613E+02  0.11120537991E+03  0.11900889111E+03  0.41800000000E+01 0.  1.
        -11    1    1    2    0    0 -0.15811450840E+02  0.95332829440E+01 -0.14583508332E+02  0.23527944590E+02  0.00000000000E+00 0.  1.
         11    1    1    2    0    0 -0.37367908897E+01  0.43130457349E+02  0.11484726363E+03  0.12273587056E+03  0.00000000000E+00 0. -1.
</event>
<event>
 7    1  0.2556591E-009  0.9566093E+02  0.7561462E-02  0.1289694E+00
         -2   -1    0    0    0  501 -0.00000000000E+00  0.00000000000E+00  0.15376771850E+03  0.15376771850E+03  0.00000000000E+00 0. -1.
          2   -1    0    0  501    0  0.00000000000E+00 -0.00000000000E+00 -0.12231599069E+03  0.12231599069E+03  0.00000000000E+00 0.  1.
         25    2    1    2    0    0 -0.93366011568E+01  0.58137184103E+02  0.75998670948E+02  0.15776192746E+03  0.12508366590E+03 0.  0.
          5    1    3    3  502    0 -0.18088771575E+02 -0.12810699900E+02 -0.25180925647E+02  0.33806347118E+02  0.41800000000E+01 0.  1.
         -5    1    3    3    0  502  0.87521704177E+01  0.70947884003E+02  0.10117959660E+03  0.12395558035E+03  0.41800000000E+01 0.  1.
        -11    1    1    2    0    0 -0.27806709575E+02 -0.52743827105E+02 -0.53082864642E+02  0.79830538728E+02  0.00000000000E+00 0. -1.
         11    1    1    2    0    0  0.37143310732E+02 -0.53933569979E+01  0.85359214993E+01  0.38491243000E+02  0.00000000000E+00 0.  1.
</event>
<event>
 7    1  0.3105999E-009  0.1231901E+03  0.7561462E-02  0.1237925E+00
         -1   -1    0    0    0  501 -0.00000000000E+00  0.00000000000E+00  0.95663321571E+02  0.95663321571E+02  0.00000000000E+00 0.  1.
          1   -1    0    0  501    0  0.00000000000E+00 -0.00000000000E+00 -0.21122690872E+03  0.21122690872E+03  0.00000000000E+00 0. -1.
         25    2    1    2    0    0 -0.38052021370E+02 -0.78561822951E+02 -0.33425687010E+02  0.15615508597E+03  0.12508884030E+03 0.  0.
          5    1    3    3  502    0 -0.78722812144E+02 -0.57426465540E+02 -0.46865863656E+02  0.10820795568E+03  0.41800000000E+01 0.  1.
         -5    1    3    3    0  502  0.40670790774E+02 -0.21135357412E+02  0.13440176645E+02  0.47947130293E+02  0.41800000000E+01 0.  1.
        -11    1    1    2    0    0  0.44184458494E+02  0.28928440737E+02  0.20070487584E+01  0.52850253552E+02  0.00000000000E+00 0.  1.
         11    1    1    2    0    0 -0.61324371235E+01  0.49633382215E+02 -0.84144948895E+02  0.97884890763E+02  0.00000000000E+00 0. -1.
</event>
<event>
 7    1  0.2556591E-009  0.9055474E+02  0.7561462E-02  0.1301514E+00
          1   -1    0    0  501    0  0.00000000000E+00  0.00000000000E+00  0.14779285161E+03  0.14779285161E+03  0.00000000000E+00 0. -1.
         -1   -1    0    0    0  501 -0.00000000000E+00 -0.00000000000E+00 -0.11003370020E+03  0.11003370020E+03  0.00000000000E+00 0.  1.
         25    2    1    2    0    0 -0.82622703995E+01  0.41738559028E+02 -0.30514354644E+02  0.13561519695E+03  0.12509989362E+03 0.  0.
          5    1    3    3  502    0 -0.53208978296E+02  0.53158988199E+02  0.72299561706E+01  0.75675742903E+02  0.41800000000E+01 0. -1.
         -5    1    3    3    0  502  0.44946707896E+02 -0.11420429171E+02 -0.37744310815E+02  0.59939454052E+02  0.41800000000E+01 0. -1.
        -11    1    1    2    0    0  0.20283401105E+02 -0.54698353507E+01  0.79626661140E+02  0.82351324358E+02  0.00000000000E+00 0. -1.
         11    1    1    2    0    0 -0.12021130705E+02 -0.36268723678E+02 -0.11353155083E+02  0.39860030494E+02  0.00000000000E+00 0.  1.
</event>
<event>
 7    1  0.2556591E-009  0.1088562E+03  0.7561462E-02  0.1262703E+00
         -2   -1    0    0    0  501 -0.00000000000E+00  0.00000000000E+00  0.12214664441E+02  0.12214664441E+02  0.00000000000E+00 0.  1.
          2   -1    0    0  501    0  0.00000000000E+00 -0.00000000000E+00 -0.11900587562E+04  0.11900587562E+04  0.00000000000E+00 0. -1.
         25    2    1    2    0    0 -0.18160233618E+02 -0.52427178805E+02 -0.70238379931E+03  0.71559190629E+03  0.12510144546E+03 0.  0.
          5    1    3    3  502    0 -0.62791445730E+02 -0.32007823113E+02 -0.56972758127E+03  0.57408558218E+03  0.41800000000E+01 0. -1.
         -5    1    3    3    0  502  0.44631212112E+02 -0.20419355692E+02 -0.13265621803E+03  0.14150632411E+03  0.41800000000E+01 0. -1.
        -11    1    1    2    0    0  0.30695966330E+02 -0.11445476145E+02 -0.90282239159E+02  0.96042303079E+02  0.00000000000E+00 0.  1.
         11    1    1    2    0    0 -0.12535732713E+02  0.63872654950E+02 -0.38517805326E+03  0.39063921124E+03  0.00000000000E+00 0. -1.
</event>
<event>
 7    1  0.2556591E-009  0.2125272E+03  0.7561462E-02  0.1139580E+00
          2   -1    0    0  501    0  0.00000000000E+00  0.00000000000E+00  0.10440985783E+04  0.10440985783E+04  0.00000000000E+00 0. -1.
         -2   -1    0    0    0  501 -0.00000000000E+00 -0.00000000000E+00 -0.10266137928E+03  0.10266137928E+03  0.00000000000E+00 0.  1.
         25    2    1    2    0    0  0.17573436456E+03  0.63222323330E+02  0.47776754116E+02  0.22980518091E+03  0.12509266121E+03 0.  0.
          5    1    3    3  502    0  0.16300862720E+03  0.95925068296E+02  0.44243152190E+02  0.19428937229E+03  0.41800000000E+01 0. -1.
         -5    1    3    3    0  502  0.12725737353E+02 -0.32702744965E+02  0.35336019260E+01  0.35515808621E+02  0.41800000000E+01 0. -1.
        -11    1    1    2    0    0 -0.90329838571E+02 -0.70828370635E+02  0.60649559879E+03  0.61726254477E+03  0.00000000000E+00 0. -1.
         11    1    1    2    0    0 -0.85404525985E+02  0.76060473050E+01  0.28716484614E+03  0.29969223192E+03  0.00000000000E+00 0.  1.
</event>
<event>
 7    1  0.2556591E-009  0.1082752E+03  0.7561462E-02  0.1263798E+00
         -2   -1    0    0    0  501 -0.00000000000E+00  0.00000000000E+00  0.16208558093E+03  0.16208558093E+03  0.00000000000E+00 0.  1.
          2   -1    0    0  501    0  0.00000000000E+00 -0.00000000000E+00 -0.10413588056E+03  0.10413588056E+03  0.00000000000E+00 0. -1.
         25    2    1    2    0    0  0.47712248283E+02 -0.30097911617E+02 -0.14954505591E+02  0.13803166275E+03  0.12508700877E+03 0.  0.
          5    1    3    3  502    0  0.78718104573E+02 -0.55716862295E+02 -0.14330401986E+02  0.97589659046E+02  0.41800000000E+01 0. -1.
         -5    1    3    3    0  502 -0.31005856290E+02  0.25618950677E+02 -0.62410360492E+00  0.40442003702E+02  0.41800000000E+01 0. -1.
        -11    1    1    2    0    0 -0.55706809232E+02  0.82469892947E+01  0.51467114241E+01  0.56548652201E+02  0.00000000000E+00 0. -1.
         11    1    1    2    0    0  0.79945609484E+01  0.21850922323E+02  0.67757494540E+02  0.71641146539E+02  0.00000000000E+00 0.  1.
</event>
<event>
 7    1  0.2556591E-009  0.1457064E+03  0.7561462E-02  0.1205850E+00
          2   -1    0    0  501    0  0.00000000000E+00  0.00000000000E+00  0.89344883188E+03  0.89344883188E+03  0.00000000000E+00 0. -1.
         -2   -1    0    0    0  501 -0.00000000000E+00 -0.00000000000E+00 -0.30734998630E+02  0.30734998630E+02  0.00000000000E+00 0.  1.
         25    2    1    2    0    0 -0.12157146564E+03  0.92193891070E+01  0.64741830330E+03  0.67056744558E+03  0.12508245774E+03 0.  0.
          5    1    3    3  502    0  0.16814086200E+02  0.11146479518E+02  0.22556757336E+02  0.30548931273E+02  0.41800000000E+01 0. -1.
         -5    1    3    3    0  502 -0.13838555184E+03 -0.19270904114E+01  0.62486154597E+03  0.64001851431E+03  0.41800000000E+01 0. -1.
        -11    1    1    2    0    0  0.10829276845E+03  0.10256220084E+02  0.19074510032E+03  0.21958189143E+03  0.00000000000E+00 0. -1.
         11    1    1    2    0    0  0.13278697194E+02 -0.19475609191E+02  0.24550429637E+02  0.34034493501E+02  0.00000000000E+00 0.  1.
</event>
<event>
 7    1  0.2556591E-009  0.1129926E+03  0.7561462E-02  0.1255126E+00
          2   -1    0    0  501    0  0.00000000000E+00  0.00000000000E+00  0.28722609216E+03  0.28722609216E+03  0.00000000000E+00 0. -1.
         -2   -1    0    0    0  501 -0.00000000000E+00 -0.00000000000E+00 -0.60477014284E+02  0.60477014284E+02  0.00000000000E+00 0.  1.
         25    2    1    2    0    0  0.56498141041E+02 -0.11546772553E+02  0.58173575805E+02  0.14952778417E+03  0.12509606477E+03 0.  0.
          5    1    3    3  502    0  0.88689271926E+02 -0.26279215656E+02  0.15433373565E+02  0.93872496238E+02  0.41800000000E+01 0. -1.
         -5    1    3    3    0  502 -0.32191130885E+02  0.14732443103E+02  0.42740202241E+02  0.55655287934E+02  0.41800000000E+01 0. -1.
        -11    1    1    2    0    0 -0.12447713871E+02  0.42251064961E+02  0.42793230328E+02  0.61411388462E+02  0.00000000000E+00 0.  1.
         11    1    1    2    0    0 -0.44050427170E+02 -0.30704292408E+02  0.12578227174E+03  0.13676393381E+03  0.00000000000E+00 0. -1.
</event>
<event>
 7    1  0.2556591E-009  0.1168438E+03  0.7561462E-02  0.1248397E+00
          1   -1    0    0  501    0  0.00000000000E+00  0.00000000000E+00  0.46939136433E+02  0.46939136433E+02  0.00000000000E+00 0. -1.
         -1   -1    0    0    0  501 -0.00000000000E+00 -0.00000000000E+00 -0.30941904725E+03  0.30941904725E+03  0.00000000000E+00 0.  1.
         25    2    1    2    0    0 -0.47216977917E+02  0.47651516083E+01 -0.17487522693E+03  0.22018425678E+03  0.12509041637E+03 0.  0.
          5    1    3    3  502    0 -0.86136455949E+02 -0.16943974755E+02 -0.12897558691E+03  0.15607293726E+03  0.41800000000E+01 0. -1.
         -5    1    3    3    0  502  0.38919478032E+02  0.21709126363E+02 -0.45899640013E+02  0.64111319524E+02  0.41800000000E+01 0. -1.
        -11    1    1    2    0    0 -0.87071076911E+01 -0.35963682073E+02 -0.16594674522E+02  0.40553463170E+02  0.00000000000E+00 0. -1.
         11    1    1    2    0    0  0.55924085608E+02  0.31198530464E+02 -0.71010009369E+02  0.95620463735E+02  0.00000000000E+00 0.  1.
</event>
<event>
 7    1  0.4311882E-009  0.9761249E+02  0.7561462E-02  0.1285398E+00
         -2   -1    0    0    0  501 -0.00000000000E+00  0.00000000000E+00  0.36911741615E+02  0.36911741615E+02  0.00000000000E+00 0.  1.
          2   -1    0    0  501    0  0.00000000000E+00 -0.00000000000E+00 -0.53473977110E+03  0.53473977110E+03  0.00000000000E+00 0. -1.
         25    2    1    2    0    0 -0.73015666272E+02  0.47467290543E+02 -0.23507816368E+03  0.28016638179E+03  0.12508807798E+03 0.  0.
          5    1    3    3  502    0 -0.19454265302E+02  0.17745623560E+01  0.11942485785E+02  0.23274726137E+02  0.41800000000E+01 0. -1.
         -5    1    3    3    0  502 -0.53561400969E+02  0.45692728188E+02 -0.24702064946E+03  0.25689165565E+03  0.41800000000E+01 0. -1.
        -11    1    1    2    0    0  0.43280220112E+02  0.58479195272E+01 -0.19692486528E+03  0.20170963829E+03  0.00000000000E+00 0. -1.
         11    1    1    2    0    0  0.29735446160E+02 -0.53315210071E+02 -0.65825000538E+02  0.89775492642E+02  0.00000000000E+00 0.  1.
</event>
<event>
 7    1  0.2556591E-009  0.1035530E+03  0.7561462E-02  0.1272997E+00
         -1   -1    0    0    0  501 -0.00000000000E+00  0.00000000000E+00  0.13042465206E+03  0.13042465206E+03  0.00000000000E+00 0.  1.
          1   -1    0    0  501    0  0.00000000000E+00 -0.00000000000E+00 -0.19288933958E+03  0.19288933958E+03  0.00000000000E+00 0. -1.
         25    2    1    2    0    0 -0.73822506215E+02  0.23629268125E+02 -0.13469456121E+03  0.19949795248E+03  0.12509477803E+03 0.  0.
          5    1    3    3  502    0 -0.34121482251E+02  0.63462344562E+02 -0.12190934694E+03  0.14167253086E+03  0.41800000000E+01 0.  1.
         -5    1    3    3    0  502 -0.39701023964E+02 -0.39833076437E+02 -0.12785214270E+02  0.57825421626E+02  0.41800000000E+01 0.  1.
        -11    1    1    2    0    0  0.41572436337E+02 -0.66853945881E+01  0.76312005221E+02  0.87157811496E+02  0.00000000000E+00 0.  1.
         11    1    1    2    0    0  0.32250069878E+02 -0.16943873537E+02 -0.40821315277E+01  0.36658227663E+02  0.00000000000E+00 0. -1.
</event>
<event>
 7    1  0.2556591E-009  0.9114003E+02  0.7561462E-02  0.1300114E+00
          1   -1    0    0  501    0  0.00000000000E+00  0.00000000000E+00  0.93318875998E+02  0.93318875998E+02  0.00000000000E+00 0. -1.
         -1   -1    0    0    0  501 -0.00000000000E+00 -0.00000000000E+00 -0.13503270713E+03  0.13503270713E+03  0.00000000000E+00 0.  1.
         25    2    1    2    0    0  0.39536838031E+01 -0.20275612398E+02 -0.39220157914E+01  0.12684848183E+03  0.12509365716E+03 0.  0.
          5    1    3    3  502    0  0.43141557971E+02 -0.24776592023E+02 -0.46804065240E+02  0.68433664665E+02  0.41800000000E+01 0. -1.
         -5    1    3    3    0  502 -0.39187874168E+02  0.45009796259E+01  0.42882049449E+02  0.58414817164E+02  0.41800000000E+01 0. -1.
        -11    1    1    2    0    0  0.36215591486E+02 -0.15028282480E+02 -0.71131513126E+01  0.39849909192E+02  0.00000000000E+00 0. -1.
         11    1    1    2    0    0 -0.40169275289E+02  0.35303894877E+02 -0.30678664032E+02  0.61653192112E+02  0.00000000000E+00 0.  1.
</event>
<event>
 7    1  0.2556591E-009  0.1248687E+03  0.7561462E-02  0.1235275E+00
         -1   -1    0    0    0  501 -0.00000000000E+00  0.00000000000E+00  0.13062941881E+04  0.13062941881E+04  0.00000000000E+00 0.  1.
          1   -1    0    0  501    0  0.00000000000E+00 -0.00000000000E+00 -0.12514210358E+02  0.12514210358E+02  0.00000000000E+00 0. -1.
         25    2    1    2    0    0 -0.67742460142E+02  0.62652419267E+01  0.72927468958E+03  0.74304563958E+03  0.12508779108E+03 0.  0.
          5    1    3    3  502    0  0.34039339955E+02 -0.25364057787E+01  0.28981033567E+03  0.29184347359E+03  0.41800000000E+01 0.  1.
         -5    1    3    3    0  502 -0.10178180010E+03  0.88016477054E+01  0.43946435391E+03  0.45120216599E+03  0.41800000000E+01 0.  1.
        -11    1    1    2    0    0  0.89313377914E+02  0.35907903906E+01  0.45939291179E+03  0.46800814165E+03  0.00000000000E+00 0. -1.
         11    1    1    2    0    0 -0.21570917773E+02 -0.98560323173E+01  0.10511237637E+03  0.10775461722E+03  0.00000000000E+00 0.  1.
</event>
<event>
 7    1  0.2566304E-009  0.9614629E+02  0.7561462E-02  0.1288615E+00
          1   -1    0    0  501    0  0.00000000000E+00  0.00000000000E+00  0.14360380946E+04  0.14360380946E+04  0.00000000000E+00 0. -1.
         -1   -1    0    0    0  501 -0.00000000000E+00 -0.00000000000E+00 -0.14057131356E+02  0.14057131356E+02  0.00000000000E+00 0.  1.
         25    2    1    2    0    0 -0.67099730816E+02  0.53359912971E+01  0.10926464083E+04  0.11018415593E+04  0.12509117327E+03 0.  0.
          5    1    3    3  502    0 -0.36409310128E+02  0.25038214391E+02  0.10148409448E+04  0.10158110876E+04  0.41800000000E+01 0. -1.
         -5    1    3    3    0  502 -0.30690420688E+02 -0.19702223094E+02  0.77805463488E+02  0.86030471726E+02  0.41800000000E+01 0. -1.
        -11    1    1    2    0    0 -0.21505294124E+02  0.47432180526E+01  0.42356782524E+02  0.47739635720E+02  0.00000000000E+00 0. -1.
         11    1    1    2    0    0  0.88605024940E+02 -0.10079209350E+02  0.28697777246E+03  0.30051403094E+03  0.00000000000E+00 0.  1.
</event>
<event>
 7    1  0.2556591E-009  0.4245124E+02  0.7561462E-02  0.1490911E+00
          1   -1    0    0  501    0  0.00000000000E+00  0.00000000000E+00  0.75096185439E+02  0.75096185439E+02  0.00000000000E+00 0. -1.
         -1   -1    0    0    0  501 -0.00000000000E+00 -0.00000000000E+00 -0.13440292734E+03  0.13440292734E+03  0.00000000000E+00 0.  1.
         25    2    1    2    0    0 -0.16284548652E+02  0.10957377567E+02 -0.76761665337E+02  0.14807140047E+03  0.12509011042E+03 0.  0.
          5    1    3    3  502    0 -0.13769334678E+02 -0.71024848150E+01 -0.10933609822E+03  0.11050744157E+03  0.41800000000E+01 0. -1.
         -5    1    3    3    0  502 -0.25152139737E+01  0.18059862382E+02  0.32574432886E+02  0.37563958903E+02  0.41800000000E+01 0. -1.
        -11    1    1    2    0    0  0.15277988979E+02 -0.28627592219E+02 -0.50042478753E+01  0.32832887176E+02  0.00000000000E+00 0.  1.
         11    1    1    2    0    0  0.10065596728E+01  0.17670214653E+02  0.22459171311E+02  0.28594825130E+02  0.00000000000E+00 0. -1.
</event>
<event>
 7    1  0.2556591E-009  0.1041041E+03  0.7561462E-02  0.1271895E+00
         -1   -1    0    0    0  501 -0.00000000000E+00  0.00000000000E+00  0.39143850695E+02  0.39143850695E+02  0.00000000000E+00 0.  1.
          1   -1    0    0  501    0  0.00000000000E+00 -0.00000000000E+00 -0.37286826560E+03  0.37286826560E+03  0.00000000000E+00 0. -1.
         25    2    1    2    0    0 -0.92835164418E+01  0.39911844406E+02 -0.14635638607E+03  0.19684020923E+03  0.12508691868E+03 0.  0.
          5    1    3    3  502    0  0.16962896100E+02  0.71679959600E+02 -0.42767771938E+02  0.85277846882E+02  0.41800000000E+01 0. -1.
         -5    1    3    3    0  502 -0.26246412542E+02 -0.31768115194E+02 -0.10358861413E+03  0.11156236235E+03  0.41800000000E+01 0. -1.
        -11    1    1    2    0    0 -0.37337261267E+02 -0.16093747505E+02 -0.33629046185E+02  0.52763553093E+02  0.00000000000E+00 0.  1.
         11    1    1    2    0    0  0.46620777709E+02 -0.23818096901E+02 -0.15373898265E+03  0.16240835397E+03  0.00000000000E+00 0. -1.
</event>
<event>
 7    1  0.2556591E-009  0.1026979E+03  0.7561462E-02  0.1274723E+00
          1   -1    0    0  501    0  0.00000000000E+00  0.00000000000E+00  0.10468555862E+04  0.10468555862E+04  0.00000000000E+00 0. -1.
         -1   -1    0    0    0  501 -0.00000000000E+00 -0.00000000000E+00 -0.11820985741E+02  0.11820985741E+02  0.00000000000E+00 0.  1.
         25    2    1    2    0    0 -0.26133692171E+02  0.61384955199E+00  0.63981861994E+03  0.65245540695E+03  0.12508734929E+03 0.  0.
          5    1    3    3  502    0 -0.46783166412E+02  0.43875946006E+02  0.20148902781E+03  0.21149246801E+03  0.41800000000E+01 0. -1.
         -5    1    3    3    0  502  0.20649474242E+02 -0.43262096454E+02  0.43832959213E+03  0.44096293894E+03  0.41800000000E+01 0. -1.
        -11    1    1    2    0    0 -0.33281033517E+02 -0.38250144641E+01  0.11628021304E+03  0.12100969330E+03  0.00000000000E+00 0.  1.
         11    1    1    2    0    0  0.59414725688E+02  0.32111649122E+01  0.27893576749E+03  0.28521147171E+03  0.00000000000E+00 0. -1.
</event>
<event>
 7    1  0.2556591E-009  0.9719041E+02  0.7561462E-02  0.1286318E+00
         -2   -1    0    0    0  501 -0.00000000000E+00  0.00000000000E+00  0.23901677537E+02  0.23901677537E+02  0.00000000000E+00 0.  1.
          2   -1    0    0  501    0  0.00000000000E+00 -0.00000000000E+00 -0.57737564719E+03  0.57737564719E+03  0.00000000000E+00 0. -1.
         25    2    1    2    0    0 -0.31715609547E+02  0.33900218256E+02 -0.31653107705E+03  0.34350331287E+03  0.12508996173E+03 0.  0.
          5    1    3    3  502    0  0.53789873423E+01 -0.25597353221E+02 -0.88815183864E+01  0.27937640659E+02  0.41800000000E+01 0. -1.
         -5    1    3    3    0  502 -0.37094596889E+02  0.59497571477E+02 -0.30764955867E+03  0.31556567221E+03  0.41800000000E+01 0. -1.
        -11    1    1    2    0    0 -0.50232150472E+01 -0.55039073498E+02 -0.16786011753E+03  0.17672450695E+03  0.00000000000E+00 0. -1.
         11    1    1    2    0    0  0.36738824594E+02  0.21138855243E+02 -0.69082775071E+02  0.81049504903E+02  0.00000000000E+00 0.  1.
</event>
<event>
 7    1  0.2556591E-009  0.8854021E+02  0.7561462E-02  0.1306426E+00
          1   -1    0    0  501    0  0.00000000000E+00  0.00000000000E+00  0.80287579558E+03  0.80287579558E+03  0.00000000000E+00 0. -1.
         -1   -1    0    0    0  501 -0.00000000000E+00 -0.00000000000E+00 -0.19782976161E+02  0.19782976161E+02  0.00000000000E+00 0.  1.
         25    2    1    2    0    0  0.55266325377E+02 -0.40206102616E+01  0.38705703202E+03  0.41052323277E+03  0.12508255907E+03 0.  0.
          5    1    3    3  502    0  0.53708429786E+02  0.38724830296E+01  0.39487501163E+03  0.39855155095E+03  0.41800000000E+01 0.  1.
         -5    1    3    3    0  502  0.15578955911E+01 -0.78930932913E+01 -0.78179796134E+01  0.11971681821E+02  0.41800000000E+01 0.  1.
        -11    1    1    2    0    0 -0.67262022102E+02  0.38497547741E+02  0.26274523866E+03  0.27393667377E+03  0.00000000000E+00 0. -1.
         11    1    1    2    0    0  0.11995696725E+02 -0.34476937480E+02  0.13329054874E+03  0.13819886519E+03  0.00000000000E+00 0.  1.
</event>
<event>
 7    1  0.2556591E-009  0.1479978E+03  0.7561462E-02  0.1202955E+00
         -1   -1    0    0    0  501 -0.00000000000E+00  0.00000000000E+00  0.11724709279E+03  0.11724709279E+03  0.00000000000E+00 0.  1.
          1   -1    0    0  501    0  0.00000000000E+00 -0.00000000000E+00 -0.30881435826E+03  0.30881435826E+03  0.00000000000E+00 0. -1.
         25    2    1    2    0    0 -0.10273706311E+03 -0.34924628915E+02  0.24795924203E+02  0.16744457401E+03  0.12509282020E+03 0.  0.
          5    1    3    3  502    0 -0.12230467176E+03  0.90468821863E+00  0.30204898838E+02  0.12605181279E+03  0.41800000000E+01 0. -1.
         -5    1    3    3    0  502  0.19567608649E+02 -0.35829317133E+02 -0.54089746346E+01  0.41392761216E+02  0.41800000000E+01 0. -1.
        -11    1    1    2    0    0  0.66385389107E+02  0.59133481461E+02 -0.18368940233E+03  0.20407249948E+03  0.00000000000E+00 0. -1.
         11    1    1    2    0    0  0.36351674002E+02 -0.24208852546E+02 -0.32673787345E+02  0.54544377564E+02  0.00000000000E+00 0.  1.
</event>
<event>
 7    1  0.2556591E-009  0.1304629E+03  0.7561462E-02  0.1226770E+00
          2   -1    0    0  501    0  0.00000000000E+00  0.00000000000E+00  0.63342944887E+02  0.63342944887E+02  0.00000000000E+00 0. -1.
         -2   -1    0    0    0  501 -0.00000000000E+00 -0.00000000000E+00 -0.30064663711E+03  0.30064663711E+03  0.00000000000E+00 0.  1.
         25    2    1    2    0    0  0.75264339294E+02 -0.33439820977E+02 -0.11250231443E+03  0.18731554067E+03  0.12508956243E+03 0.  0.
          5    1    3    3  502    0  0.60357533758E+02  0.33506165207E+02 -0.92983927177E+02  0.11588433070E+03  0.41800000000E+01 0.  1.
         -5    1    3    3    0  502  0.14906805536E+02 -0.66945986184E+02 -0.19518387257E+02  0.71431209975E+02  0.41800000000E+01 0.  1.
        -11    1    1    2    0    0  0.15381534323E+02  0.28362227212E+02 -0.19756725634E+02  0.37832998008E+02  0.00000000000E+00 0.  1.
         11    1    1    2    0    0 -0.90645873617E+02  0.50775937651E+01 -0.10504465215E+03  0.13884104331E+03  0.00000000000E+00 0. -1.
</event>
<event>
 7    1  0.2556591E-009  0.9066033E+02  0.7561462E-02  0.1301260E+00
         -2   -1    0    0    0  501 -0.00000000000E+00  0.00000000000E+00  0.21515901247E+02  0.21515901247E+02  0.00000000000E+00 0.  1.
          2   -1    0    0  501    0  0.00000000000E+00 -0.00000000000E+00 -0.81862615670E+03  0.81862615670E+03  0.00000000000E+00 0. -1.
         25    2    1    2    0    0 -0.52529684275E+02  0.34841549162E+02 -0.62959271061E+03  0.64498707576E+03  0.12509214747E+03 0.  0.
          5    1    3    3  502    0 -0.63742688610E+02  0.28619446155E+02 -0.62743548646E+03  0.63132793786E+03  0.41800000000E+01 0. -1.
         -5    1    3    3    0  502  0.11213004334E+02  0.62221030068E+01 -0.21572241497E+01  0.13659137896E+02  0.41800000000E+01 0. -1.
        -11    1    1    2    0    0  0.12224209798E+01  0.21556471548E+02 -0.56430849354E+02  0.60420332153E+02  0.00000000000E+00 0. -1.
         11    1    1    2    0    0  0.51307263296E+02 -0.56398020710E+02 -0.11108669549E+03  0.13473465004E+03  0.00000000000E+00 0.  1.
</event>
<event>
 7    1  0.2556591E-009  0.7835690E+02  0.7561462E-02  0.1333780E+00
         -1   -1    0    0    0  501 -0.00000000000E+00  0.00000000000E+00  0.17338011291E+03  0.17338011291E+03  0.00000000000E+00 0.  1.
          1   -1    0    0  501    0  0.00000000000E+00 -0.00000000000E+00 -0.78076748968E+02  0.78076748968E+02  0.00000000000E+00 0. -1.
         25    2    1    2    0    0 -0.10476943785E+02  0.35458699028E+01  0.10120172331E+03  0.16128156261E+03  0.12509042366E+03 0.  0.
          5    1    3    3  502    0 -0.58733492773E+02  0.33647099261E+01  0.12607474444E+02  0.60310573353E+02  0.41800000000E+01 0.  1.
         -5    1    3    3    0  502  0.48256548989E+02  0.18115997679E+00  0.88594248869E+02  0.10097098926E+03  0.41800000000E+01 0.  1.
        -11    1    1    2    0    0  0.11468305116E+02  0.21428337285E+02  0.34780919584E+02  0.42431215257E+02  0.00000000000E+00 0.  1.
         11    1    1    2    0    0 -0.99136133101E+00 -0.24974207188E+02 -0.40679278953E+02  0.47744084012E+02  0.00000000000E+00 0. -1.
</event>
<event>
 7    1  0.2556591E-009  0.1189207E+03  0.7561462E-02  0.1244888E+00
          2   -1    0    0  501    0  0.00000000000E+00  0.00000000000E+00  0.53722626702E+03  0.53722626702E+03  0.00000000000E+00 0. -1.
         -2   -1    0    0    0  501 -0.00000000000E+00 -0.00000000000E+00 -0.46270329340E+02  0.46270329340E+02  0.00000000000E+00 0.  1.
         25    2    1    2    0    0  0.85583548035E+00 -0.50370346249E+02  0.44616073252E+03  0.46609471182E+03  0.12508787677E+03 0.  0.
          5    1    3    3  502    0 -0.55140928112E+02 -0.50753925912E+02  0.30674613271E+03  0.31579605013E+03  0.41800000000E+01 0.  1.
         -5    1    3    3    0  502  0.55996763592E+02  0.38357966302E+00  0.13941459981E+03  0.15029866169E+03  0.41800000000E+01 0.  1.
        -11    1    1    2    0    0  0.32157135122E+02  0.63437819446E+02  0.19311186825E+02  0.73697762598E+02  0.00000000000E+00 0. -1.
         11    1    1    2    0    0 -0.33012970603E+02 -0.13067473197E+02  0.25484018340E+02  0.43704121940E+02  0.00000000000E+00 0.  1.
</event>
<event>
 7    1  0.2556591E-009  0.1258249E+03  0.7561462E-02  0.1233786E+00
         -1   -1    0    0    0  501 -0.00000000000E+00  0.00000000000E+00  0.21645572055E+03  0.21645572055E+03  0.00000000000E+00 0.  1.
          1   -1    0    0  501    0  0.00000000000E+00 -0.00000000000E+00 -0.12528554640E+03  0.12528554640E+03  0.00000000000E+00 0. -1.
         25    2    1    2    0    0 -0.31097392134E+02  0.11266627196E+03  0.38073191130E+01  0.17123663045E+03  0.12508697492E+03 0.  0.
          5    1    3    3  502    0 -0.93523930166E+01  0.48225011054E+02  0.63677059414E+02  0.80531728169E+02  0.41800000000E+01 0. -1.
         -5    1    3    3    0  502 -0.21744999117E+02  0.64441260903E+02 -0.59869740301E+02  0.90704902277E+02  0.41800000000E+01 0. -1.
        -11    1    1    2    0    0 -0.19522522880E+02 -0.49843645416E+02  0.69753518244E+02  0.87926510196E+02  0.00000000000E+00 0.  1.
         11    1    1    2    0    0  0.50619915014E+02 -0.62822626541E+02  0.17609336800E+02  0.82578126305E+02  0.00000000000E+00 0. -1.
</event>
<event>
 7    1  0.2556591E-009  0.1184197E+03  0.7561462E-02  0.1245727E+00
          1   -1    0    0  501    0  0.00000000000E+00  0.00000000000E+00  0.20433249961E+03  0.20433249961E+03  0.00000000000E+00 0. -1.
         -1   -1    0    0    0  501 -0.00000000000E+00 -0.00000000000E+00 -0.98650574296E+02  0.98650574296E+02  0.00000000000E+00 0.  1.
         25    2    1    2    0    0 -0.44629822991E+02 -0.72935544155E+02  0.88918199888E+02  0.17568570773E+03  0.12509039503E+03 0.  0.
          5    1    3    3  502    0  0.13978680715E+02 -0.46669219983E+02  0.99116770082E+02  0.11052160929E+03  0.41800000000E+01 0.  1.
         -5    1    3    3    0  502 -0.58608503706E+02 -0.26266324172E+02 -0.10198570194E+02  0.65164098445E+02  0.41800000000E+01 0.  1.
        -11    1    1    2    0    0 -0.94585925065E+01  0.68677578460E+02 -0.34169218105E+01  0.69410014480E+02  0.00000000000E+00 0.  1.
         11    1    1    2    0    0  0.54088415498E+02  0.42579656942E+01  0.20180647233E+02  0.57887351690E+02  0.00000000000E+00 0. -1.
</event>
<event>
 7    1  0.2556591E-009  0.1092288E+03  0.7561462E-02  0.1262005E+00
         -2   -1    0    0    0  501 -0.00000000000E+00  0.00000000000E+00  0.28156975669E+02  0.28156975669E+02  0.00000000000E+00 0. -1.
          2   -1    0    0  501    0  0.00000000000E+00 -0.00000000000E+00 -0.57624614844E+03  0.57624614844E+03  0.00000000000E+00 0.  1.
         25    2    1    2    0    0 -0.18361393564E+02 -0.38724805372E+02 -0.18617231196E+03  0.22835398612E+03  0.12509461185E+03 0.  0.
          5    1    3    3  502    0 -0.23221239525E+02 -0.75458452413E+02 -0.67484192778E+02  0.10394610469E+03  0.41800000000E+01 0. -1.
         -5    1    3    3    0  502  0.48598459609E+01  0.36733647041E+02 -0.11868811918E+03  0.12440788143E+03  0.41800000000E+01 0. -1.
        -11    1    1    2    0    0  0.20198420109E+02  0.68939255676E+02 -0.25159863619E+03  0.26165334105E+03  0.00000000000E+00 0. -1.
         11    1    1    2    0    0 -0.18370265455E+01 -0.30214450304E+02 -0.11031822462E+03  0.11439579694E+03  0.00000000000E+00 0.  1.
</event>
<event>
 7    1  0.2556591E-009  0.1100154E+03  0.7561462E-02  0.1260541E+00
          2   -1    0    0  501    0  0.00000000000E+00  0.00000000000E+00  0.95822360025E+03  0.95822360025E+03  0.00000000000E+00 0. -1.
         -2   -1    0    0    0  501 -0.00000000000E+00 -0.00000000000E+00 -0.13781334892E+02  0.13781334892E+02  0.00000000000E+00 0.  1.
         25    2    1    2    0    0  0.26692533642E+02  0.27490200542E+02  0.50716200327E+03  0.52376415751E+03  0.12508953851E+03 0.  0.
          5    1    3    3  502    0  0.30999122246E+02 -0.42048807483E+02  0.31476192670E+03  0.31909495560E+03  0.41800000000E+01 0. -1.
         -5    1    3    3    0  502 -0.43065886042E+01  0.69539008024E+02  0.19240007658E+03  0.20466920191E+03  0.41800000000E+01 0. -1.
        -11    1    1    2    0    0  0.22984323820E+02 -0.40416510716E+02  0.18149926420E+03  0.18735996474E+03  0.00000000000E+00 0.  1.
         11    1    1    2    0    0 -0.49676857461E+02  0.12926310174E+02  0.25578099788E+03  0.26088081290E+03  0.00000000000E+00 0. -1.
</event>
<event>
 7    1  0.2556591E-009  0.1176345E+03  0.7561462E-02  0.1247051E+00
          2   -1    0    0  501    0  0.00000000000E+00  0.00000000000E+00  0.76091943485E+03  0.76091943485E+03  0.00000000000E+00 0.  1.
         -2   -1    0    0    0  501 -0.00000000000E+00 -0.00000000000E+00 -0.25208698794E+02  0.25208698794E+02  0.00000000000E+00 0. -1.
         25    2    1    2    0    0 -0.42591625855E+02 -0.67100252503E+02  0.51250864179E+03  0.53350537563E+03  0.12508552052E+03 0.  0.
          5    1    3    3  502    0 -0.72261118660E+02 -0.53032683881E+02  0.47533646053E+03  0.48373170037E+03  0.41800000000E+01 0.  1.
         -5    1    3    3    0  502  0.29669492805E+02 -0.14067568623E+02  0.37172181256E+02  0.49773675267E+02  0.41800000000E+01 0.  1.
        -11    1    1    2    0    0  0.45497177964E+02  0.22346935703E+00  0.13105448394E+03  0.13872750593E+03  0.00000000000E+00 0.  1.
         11    1    1    2    0    0 -0.29055521084E+01  0.66876783146E+02  0.92147610334E+02  0.11389525208E+03  0.00000000000E+00 0. -1.
</event>
<event>
 7    1  0.2556591E-009  0.1145077E+03  0.7561462E-02  0.1252443E+00
         -2   -1    0    0    0  501 -0.00000000000E+00  0.00000000000E+00  0.25875785243E+02  0.25875785243E+02  0.00000000000E+00 0.  1.
          2   -1    0    0  501    0  0.00000000000E+00 -0.00000000000E+00 -0.93167508585E+03  0.93167508585E+03  0.00000000000E+00 0. -1.
         25    2    1    2    0    0  0.78467571014E+02  0.29010370361E+01 -0.72084159796E+03  0.73581627358E+03  0.12508958152E+03 0.  0.
          5    1    3    3  502    0 -0.30196076136E+01 -0.33835574073E+02 -0.61094052374E+02  0.70027992535E+02  0.41800000000E+01 0. -1.
         -5    1    3    3    0  502  0.81487178628E+02  0.36736611109E+02 -0.65974754558E+03  0.66578828105E+03  0.41800000000E+01 0. -1.
        -11    1    1    2    0    0 -0.80386478930E+02 -0.24177246401E+02 -0.84789678802E+02  0.11931393410E+03  0.00000000000E+00 0. -1.
         11    1    1    2    0    0  0.19189079159E+01  0.21276209365E+02 -0.10016802385E+03  0.10242066342E+03  0.00000000000E+00 0.  1.
</event>
<event>
 7    1  0.2556591E-009  0.8131447E+02  0.7561462E-02  0.1325362E+00
          4   -1    0    0  501    0  0.00000000000E+00  0.00000000000E+00  0.57849023370E+02  0.57849023370E+02  0.00000000000E+00 0. -1.
         -4   -1    0    0    0  501 -0.00000000000E+00 -0.00000000000E+00 -0.23739218277E+03  0.23739218277E+03  0.00000000000E+00 0.  1.
         25    2    1    2    0    0 -0.28232737550E+02 -0.11377121853E+02 -0.13763205267E+03  0.18844955980E+03  0.12507648978E+03 0.  0.
          5    1    3    3  502    0  0.19267471752E+02 -0.86378976470E+01 -0.13901065698E+03  0.14066728084E+03  0.41800000000E+01 0.  1.
         -5    1    3    3    0  502 -0.47500209302E+02 -0.27392242064E+01  0.13786043155E+01  0.47782278963E+02  0.41800000000E+01 0.  1.
        -11    1    1    2    0    0  0.44256759586E+02 -0.26938235633E+02 -0.39573034017E+02  0.65194741578E+02  0.00000000000E+00 0.  1.
         11    1    1    2    0    0 -0.16024022036E+02  0.38315357486E+02 -0.23380727129E+01  0.41596904759E+02  0.00000000000E+00 0. -1.
</event>
<event>
 7    1  0.2556591E-009  0.1852536E+03  0.7561462E-02  0.1162813E+00
         -1   -1    0    0    0  501 -0.00000000000E+00  0.00000000000E+00  0.33070181907E+03  0.33070181907E+03  0.00000000000E+00 0.  1.
          1   -1    0    0  501    0  0.00000000000E+00 -0.00000000000E+00 -0.11474413834E+03  0.11474413834E+03  0.00000000000E+00 0. -1.
         25    2    1    2    0    0  0.15869112501E+03 -0.18661839351E+02  0.81554295927E+02  0.21869984728E+03  0.12508949841E+03 0.  0.
          5    1    3    3  502    0 -0.11701197037E+02 -0.26022748814E+02 -0.16597280382E+01  0.28884746236E+02  0.41800000000E+01 0. -1.
         -5    1    3    3    0  502  0.17039232204E+03  0.73609094629E+01  0.83214023965E+02  0.18981510104E+03  0.41800000000E+01 0. -1.
        -11    1    1    2    0    0 -0.11273753214E+03 -0.15512357749E+02  0.48957207979E+02  0.12388378670E+03  0.00000000000E+00 0. -1.
         11    1    1    2    0    0 -0.45953592870E+02  0.34174197100E+02  0.85446176826E+02  0.10286232342E+03  0.00000000000E+00 0.  1.
</event>
<event>
 7    1  0.2556591E-009  0.1772407E+03  0.7561462E-02  0.1170501E+00
          2   -1    0    0  501    0  0.00000000000E+00  0.00000000000E+00  0.11932105137E+04  0.11932105137E+04  0.00000000000E+00 0. -1.
         -2   -1    0    0    0  501 -0.00000000000E+00 -0.00000000000E+00 -0.38738714641E+02  0.38738714641E+02  0.00000000000E+00 0.  1.
         25    2    1    2    0    0  0.14606682239E+03 -0.61276070636E+01  0.27002932748E+03  0.33156118687E+03  0.12507565217E+03 0.  0.
          5    1    3    3  502    0 -0.17918181386E+02  0.10274260753E+02  0.91852281243E+01  0.22988311680E+02  0.41800000000E+01 0.  1.
         -5    1    3    3    0  502  0.16398500378E+03 -0.16401867816E+02  0.26084409936E+03  0.30857287519E+03  0.41800000000E+01 0.  1.
        -11    1    1    2    0    0 -0.27300216672E+02 -0.33621965564E+02  0.24421210637E+03  0.24802276367E+03  0.00000000000E+00 0. -1.
         11    1    1    2    0    0 -0.11876660572E+03  0.39749572628E+02  0.64023036518E+03  0.65236527778E+03  0.00000000000E+00 0.  1.
</event>
<event>
 7    1  0.2556591E-009  0.9732695E+02  0.7561462E-02  0.1286020E+00
          1   -1    0    0  501    0  0.00000000000E+00  0.00000000000E+00  0.76829615833E+03  0.76829615833E+03  0.00000000000E+00 0. -1.
         -1   -1    0    0    0  501 -0.00000000000E+00 -0.00000000000E+00 -0.21333571327E+02  0.21333571327E+02  0.00000000000E+00 0.  1.
         25    2    1    2    0    0 -0.16876739347E+02 -0.86543554512E+01  0.61125271856E+03  0.62421122635E+03  0.12510014772E+03 0.  0.
          5    1    3    3  502    0 -0.60781315834E+02 -0.10572167165E+01  0.50847143254E+03  0.51210951580E+03  0.41800000000E+01 0. -1.
         -5    1    3    3    0  502  0.43904576487E+02 -0.75971387347E+01  0.10278128602E+03  0.11210171055E+03  0.41800000000E+01 0. -1.
        -11    1    1    2    0    0  0.36202633464E+02 -0.29169668800E+02  0.42513382271E+02  0.62999110468E+02  0.00000000000E+00 0.  1.
         11    1    1    2    0    0 -0.19325894117E+02  0.37824024251E+02  0.93196486173E+02  0.10241939284E+03  0.00000000000E+00 0. -1.
</event>
<event>
 7    1  0.2556591E-009  0.8971647E+02  0.7561462E-02  0.1303540E+00
         -2   -1    0    0    0  501 -0.00000000000E+00  0.00000000000E+00  0.23918979572E+02  0.23918979572E+02  0.00000000000E+00 0.  1.
          2   -1    0    0  501    0  0.00000000000E+00 -0.00000000000E+00 -0.92089732572E+03  0.92089732572E+03  0.00000000000E+00 0. -1.
         25    2    1    2    0    0 -0.61530382800E+01 -0.46467283353E+01 -0.81247102162E+03  0.82208066081E+03  0.12509196595E+03 0.  0.
          5    1    3    3  502    0  0.55809408321E+00 -0.59009517991E+02 -0.58870304290E+03  0.59166813316E+03  0.41800000000E+01 0. -1.
         -5    1    3    3    0  502 -0.67111323633E+01  0.54362789655E+02 -0.22376797873E+03  0.23041252765E+03  0.41800000000E+01 0. -1.
        -11    1    1    2    0    0 -0.12319438999E+02  0.30883988283E+02 -0.84328846425E+02  0.90647358753E+02  0.00000000000E+00 0. -1.
         11    1    1    2    0    0  0.18472477280E+02 -0.26237259948E+02 -0.17847810282E+00  0.32088285726E+02  0.00000000000E+00 0.  1.
</event>
<event>
 7    1  0.2556591E-009  0.1273577E+03  0.7561462E-02  0.1231430E+00
          2   -1    0    0  501    0  0.00000000000E+00  0.00000000000E+00  0.15952341499E+03  0.15952341499E+03  0.00000000000E+00 0. -1.
         -2   -1    0    0    0  501 -0.00000000000E+00 -0.00000000000E+00 -0.15188612472E+03  0.15188612472E+03  0.00000000000E+00 0.  1.
         25    2    1    2    0    0  0.82669201882E+02  0.42385266709E+02 -0.57097703521E+02  0.16595011915E+03  0.12509431052E+03 0.  0.
          5    1    3    3  502    0  0.70366861921E+02  0.67530530737E+02  0.49582856050E+01  0.97744180565E+02  0.41800000000E+01 0. -1.
         -5    1    3    3    0  502  0.12302339961E+02 -0.25145264028E+02 -0.62055989126E+02  0.68205938582E+02  0.41800000000E+01 0. -1.
        -11    1    1    2    0    0  0.13110232239E+02 -0.29331817088E+02  0.25967846004E+02  0.41310564135E+02  0.00000000000E+00 0.  1.
         11    1    1    2    0    0 -0.95779434121E+02 -0.13053449621E+02  0.38767147787E+02  0.10414885643E+03  0.00000000000E+00 0. -1.
</event>
<event>
 7    1  0.2556591E-009  0.9042590E+02  0.7561462E-02  0.1301824E+00
          2   -1    0    0  501    0  0.00000000000E+00  0.00000000000E+00  0.50092947063E+03  0.50092947063E+03  0.00000000000E+00 0. -1.
         -2   -1    0    0    0  501 -0.00000000000E+00 -0.00000000000E+00 -0.24122625641E+02  0.24122625641E+02  0.00000000000E+00 0.  1.
         25    2    1    2    0    0 -0.14595082111E+01 -0.85704438938E+01  0.23399105685E+03  0.26547153910E+03  0.12509092979E+03 0.  0.
          5    1    3    3  502    0  0.12587989380E+02  0.45276253783E+02  0.18593125960E+03  0.19182362297E+03  0.41800000000E+01 0. -1.
         -5    1    3    3    0  502 -0.14047497592E+02 -0.53846697677E+02  0.48059797248E+02  0.73647916134E+02  0.41800000000E+01 0. -1.
        -11    1    1    2    0    0 -0.34197732445E+02 -0.12545670644E+02  0.47189631688E+02  0.59613254358E+02  0.00000000000E+00 0.  1.
         11    1    1    2    0    0  0.35657240656E+02  0.21116114538E+02  0.19562615645E+03  0.19996730281E+03  0.00000000000E+00 0. -1.
</event>
<event>
 7    1  0.2556591E-009  0.1633386E+03  0.7561462E-02  0.1184978E+00
         -2   -1    0    0    0  501 -0.00000000000E+00  0.00000000000E+00  0.28832935301E+04  0.28832935301E+04  0.00000000000E+00 0.  1.
          2   -1    0    0  501    0  0.00000000000E+00 -0.00000000000E+00 -0.35042309240E+02  0.35042309240E+02  0.00000000000E+00 0. -1.
         25    2    1    2    0    0 -0.76009139226E+01  0.11714826084E+03  0.26923196295E+04  0.26977796571E+04  0.12509437275E+03 0.  0.
          5    1    3    3  502    0  0.55686814805E+02  0.79468184595E+02  0.14124183535E+04  0.14157539657E+04  0.41800000000E+01 0. -1.
         -5    1    3    3    0  502 -0.63287728728E+02  0.37680076249E+02  0.12799012760E+04  0.12820256914E+04  0.41800000000E+01 0. -1.
        -11    1    1    2    0    0 -0.47277272414E+02 -0.46444354447E+02  0.71971252568E+02  0.97837006000E+02  0.00000000000E+00 0. -1.
         11    1    1    2    0    0  0.54878186336E+02 -0.70703906397E+02  0.83960338724E+02  0.12271917615E+03  0.00000000000E+00 0.  1.
</event>
<event>
 7    1  0.2556591E-009  0.5361480E+02  0.7561462E-02  0.1426765E+00
          2   -1    0    0  501    0  0.00000000000E+00  0.00000000000E+00  0.26581901587E+03  0.26581901587E+03  0.00000000000E+00 0.  1.
         -2   -1    0    0    0  501 -0.00000000000E+00 -0.00000000000E+00 -0.49395586779E+02  0.49395586779E+02  0.00000000000E+00 0. -1.
         25    2    1    2    0    0 -0.11701518370E+02  0.15715101736E+02  0.16463376638E+03  0.20769055046E+03  0.12508875953E+03 0.  0.
          5    1    3    3  502    0 -0.17941700244E+02  0.17085676507E+02 -0.14088046203E+02  0.28805735456E+02  0.41800000000E+01 0.  1.
         -5    1    3    3    0  502  0.62401818735E+01 -0.13705747710E+01  0.17872181258E+03  0.17888481500E+03  0.41800000000E+01 0.  1.
        -11    1    1    2    0    0  0.27383008934E+02  0.21024186558E+02 -0.81698621634E+01  0.35476643675E+02  0.00000000000E+00 0.  1.
         11    1    1    2    0    0 -0.15681490564E+02 -0.36739288294E+02  0.59959524868E+02  0.72047408510E+02  0.00000000000E+00 0. -1.
</event>
<event>
 7    1  0.2556591E-009  0.8779063E+02  0.7561462E-02  0.1308292E+00
         -2   -1    0    0    0  501 -0.00000000000E+00  0.00000000000E+00  0.46489834545E+03  0.46489834545E+03  0.00000000000E+00 0.  1.
          2   -1    0    0  501    0  0.00000000000E+00 -0.00000000000E+00 -0.29767963747E+02  0.29767963747E+02  0.00000000000E+00 0. -1.
         25    2    1    2    0    0  0.25218964570E+02 -0.11867165252E+02  0.31777702284E+03  0.34264631107E+03  0.12508969766E+03 0.  0.
          5    1    3    3  502    0 -0.25460311389E+02 -0.12437975955E+02  0.94615860594E+01  0.30164958357E+02  0.41800000000E+01 0.  1.
         -5    1    3    3    0  502  0.50679275959E+02  0.57081070333E+00  0.30831543678E+03  0.31248135271E+03  0.41800000000E+01 0.  1.
        -11    1    1    2    0    0 -0.59965690547E+02  0.21504047898E+01  0.80971825594E+02  0.10078166909E+03  0.00000000000E+00 0.  1.
         11    1    1    2    0    0  0.34746725978E+02  0.97167604618E+01  0.36381533272E+02  0.51238329045E+02  0.00000000000E+00 0. -1.
</event>
<event>
 7    1  0.2556591E-009  0.9690471E+02  0.7561462E-02  0.1286943E+00
         -1   -1    0    0    0  501 -0.00000000000E+00  0.00000000000E+00  0.39626756488E+02  0.39626756488E+02  0.00000000000E+00 0.  1.
          1   -1    0    0  501    0  0.00000000000E+00 -0.00000000000E+00 -0.37645478238E+03  0.37645478238E+03  0.00000000000E+00 0. -1.
         25    2    1    2    0    0  0.19208006453E+02 -0.30692975406E+02 -0.27873531502E+03  0.30765436275E+03  0.12508726886E+03 0.  0.
          5    1    3    3  502    0  0.67449632242E+02 -0.19026597128E+02 -0.10052199931E+03  0.12261161867E+03  0.41800000000E+01 0.  1.
         -5    1    3    3    0  502 -0.48241625789E+02 -0.11666378279E+02 -0.17821331570E+03  0.18504274408E+03  0.41800000000E+01 0.  1.
        -11    1    1    2    0    0 -0.42147439427E+02  0.28220466970E+02 -0.66705343210E+02  0.83799786509E+02  0.00000000000E+00 0. -1.
         11    1    1    2    0    0  0.22939432974E+02  0.24725084369E+01  0.86126323366E+01  0.24627389608E+02  0.00000000000E+00 0.  1.
</event>
<event>
 7    1  0.2556591E-009  0.2976416E+03  0.7561462E-02  0.1086426E+00
          2   -1    0    0  501    0  0.00000000000E+00  0.00000000000E+00  0.12002914381E+04  0.12002914381E+04  0.00000000000E+00 0. -1.
         -2   -1    0    0    0  501 -0.00000000000E+00 -0.00000000000E+00 -0.10471057119E+03  0.10471057119E+03  0.00000000000E+00 0.  1.
         25    2    1    2    0    0 -0.28889154917E+03 -0.20695423867E+02  0.87444005445E+03  0.92961267888E+03  0.12509075172E+03 0.  0.
          5    1    3    3  502    0 -0.24640599754E+03 -0.36341883406E+02  0.82783413781E+03  0.86450186827E+03  0.41800000000E+01 0. -1.
         -5    1    3    3    0  502 -0.42485551628E+02  0.15646459539E+02  0.46605916636E+02  0.65110810613E+02  0.41800000000E+01 0. -1.
        -11    1    1    2    0    0  0.23793832591E+03  0.48251751059E+02  0.15781777799E+03  0.28956748690E+03  0.00000000000E+00 0. -1.
         11    1    1    2    0    0  0.50953223253E+02 -0.27556327192E+02  0.63323034449E+02  0.85821843490E+02  0.00000000000E+00 0.  1.
</event>
<event>
 7    1  0.2556591E-009  0.1393925E+03  0.7561462E-02  0.1214149E+00
         -1   -1    0    0    0  501 -0.00000000000E+00  0.00000000000E+00  0.26069665668E+02  0.26069665668E+02  0.00000000000E+00 0.  1.
          1   -1    0    0  501    0  0.00000000000E+00 -0.00000000000E+00 -0.91766499390E+03  0.91766499390E+03  0.00000000000E+00 0. -1.
         25    2    1    2    0    0  0.15756217184E+02 -0.10705258154E+03 -0.41802392850E+03  0.44955590453E+03  0.12509193779E+03 0.  0.
          5    1    3    3  502    0 -0.37738705755E+02 -0.10241870659E+01 -0.49799810234E+02  0.62631879826E+02  0.41800000000E+01 0. -1.
         -5    1    3    3    0  502  0.53494922939E+02 -0.10602839448E+03 -0.36822411827E+03  0.38692402470E+03  0.41800000000E+01 0. -1.
        -11    1    1    2    0    0 -0.33878295002E+02  0.93177179292E+02 -0.45209664370E+03  0.46284025414E+03  0.00000000000E+00 0. -1.
         11    1    1    2    0    0  0.18122077818E+02  0.13875402251E+02 -0.21474756036E+02  0.31338500903E+02  0.00000000000E+00 0.  1.
</event>
<event>
 7    1  0.2556591E-009  0.1580844E+03  0.7561462E-02  0.1190877E+00
          2   -1    0    0  501    0  0.00000000000E+00  0.00000000000E+00  0.41187029819E+03  0.41187029819E+03  0.00000000000E+00 0. -1.
         -2   -1    0    0    0  501 -0.00000000000E+00 -0.00000000000E+00 -0.12062648253E+03  0.12062648253E+03  0.00000000000E+00 0.  1.
         25    2    1    2    0    0  0.43972344203E+02  0.11827322131E+03 -0.16696219067E+02  0.17846580413E+03  0.12509659298E+03 0.  0.
          5    1    3    3  502    0  0.40243258771E+02 -0.15823135227E+02 -0.27723293017E+01  0.43532168504E+02  0.41800000000E+01 0. -1.
         -5    1    3    3    0  502  0.37290854318E+01  0.13409635654E+03 -0.13923889766E+02  0.13493363562E+03  0.41800000000E+01 0. -1.
        -11    1    1    2    0    0 -0.85279341750E+01 -0.96579947306E+02  0.29497309125E+03  0.31049885095E+03  0.00000000000E+00 0.  1.
         11    1    1    2    0    0 -0.35444410028E+02 -0.21693274008E+02  0.12966943478E+02  0.43532125638E+02  0.00000000000E+00 0. -1.
</event>
<event>
 7    1  0.2556591E-009  0.1115211E+03  0.7561462E-02  0.1257779E+00
         -1   -1    0    0    0  501 -0.00000000000E+00  0.00000000000E+00  0.12588418199E+02  0.12588418199E+02  0.00000000000E+00 0. -1.
          1   -1    0    0  501    0  0.00000000000E+00 -0.00000000000E+00 -0.99661832816E+03  0.99661832816E+03  0.00000000000E+00 0.  1.
         25    2    1    2    0    0 -0.35480564410E+02  0.19519376749E+00 -0.56411739831E+03  0.57890797630E+03  0.12508835834E+03 0.  0.
          5    1    3    3  502    0  0.45411376657E+02  0.13628228246E+02 -0.22697132514E+03  0.23190812097E+03  0.41800000000E+01 0. -1.
         -5    1    3    3    0  502 -0.80891941067E+02 -0.13433034478E+02 -0.33714607317E+03  0.34699985533E+03  0.41800000000E+01 0. -1.
        -11    1    1    2    0    0  0.45134253361E+02 -0.35067425309E+02 -0.23223861701E+03  0.23916856060E+03  0.00000000000E+00 0. -1.
         11    1    1    2    0    0 -0.96536889513E+01  0.34872231541E+02 -0.18767389464E+03  0.19113020947E+03  0.00000000000E+00 0.  1.
</event>
<event>
 7    1  0.2556591E-009  0.1151482E+03  0.7561462E-02  0.1251323E+00
          1   -1    0    0  501    0  0.00000000000E+00  0.00000000000E+00  0.26755662813E+02  0.26755662813E+02  0.00000000000E+00 0. -1.
         -1   -1    0    0    0  501 -0.00000000000E+00 -0.00000000000E+00 -0.68864878932E+03  0.68864878932E+03  0.00000000000E+00 0.  1.
         25    2    1    2    0    0  0.26218075717E+02  0.72305355957E+02 -0.25531669760E+03  0.29453297095E+03  0.12509037896E+03 0.  0.
          5    1    3    3  502    0 -0.26459879974E+02 -0.17006243641E+02 -0.20416262572E+02  0.37731071392E+02  0.41800000000E+01 0.  1.
         -5    1    3    3    0  502  0.52677955691E+02  0.89311599598E+02 -0.23490043503E+03  0.25680189956E+03  0.41800000000E+01 0.  1.
        -11    1    1    2    0    0 -0.31080448726E+02 -0.10515067800E+02 -0.56380718180E+02  0.65233015616E+02  0.00000000000E+00 0. -1.
         11    1    1    2    0    0  0.48623730091E+01 -0.61790288157E+02 -0.35019571073E+03  0.35563846557E+03  0.00000000000E+00 0.  1.
</event>
<event>
 7    1  0.2556591E-009  0.1216186E+03  0.7561462E-02  0.1240450E+00
         -2   -1    0    0    0  501 -0.00000000000E+00  0.00000000000E+00  0.15595471784E+02  0.15595471784E+02  0.00000000000E+00 0.  1.
          2   -1    0    0  501    0  0.00000000000E+00 -0.00000000000E+00 -0.12352332896E+04  0.12352332896E+04  0.00000000000E+00 0. -1.
         25    2    1    2    0    0  0.53232250657E+02  0.64686036479E+02 -0.73540800740E+03  0.75065971081E+03  0.12508840179E+03 0.  0.
          5    1    3    3  502    0  0.21040568963E+01 -0.19573492964E+02 -0.41318187487E+03  0.41367170898E+03  0.41800000000E+01 0.  1.
         -5    1    3    3    0  502  0.51128193761E+02  0.84259529443E+02 -0.32222613253E+03  0.33698800184E+03  0.41800000000E+01 0.  1.
        -11    1    1    2    0    0 -0.37805794167E+02  0.16915970511E+02 -0.18872626365E+03  0.19321757353E+03  0.00000000000E+00 0.  1.
         11    1    1    2    0    0 -0.15426456490E+02 -0.81602006990E+02 -0.29550354676E+03  0.30695147703E+03  0.00000000000E+00 0. -1.
</event>
<event>
 7    1  0.2556591E-009  0.1151836E+03  0.7561462E-02  0.1251261E+00
          2   -1    0    0  501    0  0.00000000000E+00  0.00000000000E+00  0.30092852890E+03  0.30092852890E+03  0.00000000000E+00 0.  1.
         -2   -1    0    0    0  501 -0.00000000000E+00 -0.00000000000E+00 -0.55119167032E+02  0.55119167032E+02  0.00000000000E+00 0. -1.
         25    2    1    2    0    0  0.49255062241E+02  0.11664629112E+02  0.71145479249E+02  0.15254711808E+03  0.12508724671E+03 0.  0.
          5    1    3    3  502    0  0.76949112790E+02  0.39873327869E+02  0.72055754676E+02  0.11278542644E+03  0.41800000000E+01 0.  1.
         -5    1    3    3    0  502 -0.27694050549E+02 -0.28208698757E+02 -0.91027542761E+00  0.39761691648E+02  0.41800000000E+01 0.  1.
        -11    1    1    2    0    0 -0.63359986900E+01  0.37818765628E+02  0.54421967645E+02  0.66574428089E+02  0.00000000000E+00 0.  1.
         11    1    1    2    0    0 -0.42919063551E+02 -0.49483394739E+02  0.12024191497E+03  0.13692614976E+03  0.00000000000E+00 0. -1.
</event>
<event>
 7    1  0.2652044E-009  0.1006921E+03  0.7561462E-02  0.1278847E+00
         -2   -1    0    0    0  501 -0.00000000000E+00  0.00000000000E+00  0.10498989234E+02  0.10498989234E+02  0.00000000000E+00 0.  1.
          2   -1    0    0  501    0  0.00000000000E+00 -0.00000000000E+00 -0.14603659934E+04  0.14603659934E+04  0.00000000000E+00 0. -1.
         25    2    1    2    0    0 -0.41859762656E+02  0.26000335819E+02 -0.10163847055E+04  0.10252384026E+04  0.12509058841E+03 0.  0.
          5    1    3    3  502    0  0.27577628171E+02 -0.38574774482E+01 -0.64876597204E+02  0.70723765261E+02  0.41800000000E+01 0.  1.
         -5    1    3    3    0  502 -0.69437390827E+02  0.29857813268E+02 -0.95150810830E+03  0.95451463730E+03  0.41800000000E+01 0.  1.
        -11    1    1    2    0    0 -0.12907189131E+01 -0.48735431095E+02 -0.14310180209E+03  0.15117848379E+03  0.00000000000E+00 0.  1.
         11    1    1    2    0    0  0.43150481569E+02  0.22735095275E+02 -0.29038049655E+03  0.29444809627E+03  0.00000000000E+00 0. -1.
</event>
<event>
 7    1  0.2556591E-009  0.1147926E+03  0.7561462E-02  0.1251944E+00
          2   -1    0    0  501    0  0.00000000000E+00  0.00000000000E+00  0.21290705460E+03  0.21290705460E+03  0.00000000000E+00 0. -1.
         -2   -1    0    0    0  501 -0.00000000000E+00 -0.00000000000E+00 -0.83213800507E+02  0.83213800507E+02  0.00000000000E+00 0.  1.
         25    2    1    2    0    0 -0.60407569562E+02  0.46649083974E+02  0.78945992795E+02  0.16645233210E+03  0.12509475444E+03 0.  0.
          5    1    3    3  502    0 -0.57160247195E+02 -0.21988782085E+02 -0.42276460563E+00  0.61387714789E+02  0.41800000000E+01 0. -1.
         -5    1    3    3    0  502 -0.32473223660E+01  0.68637866060E+02  0.79368757401E+02  0.10506461731E+03  0.41800000000E+01 0. -1.
        -11    1    1    2    0    0 -0.10318104695E+02 -0.22276249759E+02 -0.16089519899E+02  0.29352465627E+02  0.00000000000E+00 0.  1.
         11    1    1    2    0    0  0.70725674257E+02 -0.24372834215E+02  0.66836781194E+02  0.10031605737E+03  0.00000000000E+00 0. -1.
</event>
<event>
 7    1  0.2556591E-009  0.1155825E+03  0.7561462E-02  0.1250568E+00
          2   -1    0    0  501    0  0.00000000000E+00  0.00000000000E+00  0.89641628886E+03  0.89641628886E+03  0.00000000000E+00 0. -1.
         -2   -1    0    0    0  501 -0.00000000000E+00 -0.00000000000E+00 -0.17531180729E+02  0.17531180729E+02  0.00000000000E+00 0.  1.
         25    2    1    2    0    0  0.31408754346E+02  0.39013052291E+02  0.58704171225E+03  0.60230532738E+03  0.12508080335E+03 0.  0.
          5    1    3    3  502    0 -0.46683158617E+01 -0.41908147179E+02  0.12984725226E+03  0.13658648284E+03  0.41800000000E+01 0. -1.
         -5    1    3    3    0  502  0.36077070208E+02  0.80921199470E+02  0.45719445999E+03  0.46571884455E+03  0.41800000000E+01 0. -1.
        -11    1    1    2    0    0 -0.39168736555E+02  0.17606941321E+02  0.19064473425E+03  0.19542161857E+03  0.00000000000E+00 0. -1.
         11    1    1    2    0    0  0.77599822085E+01 -0.56619993612E+02  0.10119866163E+03  0.11622052364E+03  0.00000000000E+00 0.  1.
</event>
<event>
 7    1  0.2556591E-009  0.1008803E+03  0.7561462E-02  0.1278456E+00
          4   -1    0    0  501    0  0.00000000000E+00  0.00000000000E+00  0.45755085970E+03  0.45755085970E+03  0.00000000000E+00 0. -1.
         -4   -1    0    0    0  501 -0.00000000000E+00 -0.00000000000E+00 -0.25847544434E+02  0.25847544434E+02  0.00000000000E+00 0.  1.
         25    2    1    2    0    0  0.11780261816E+02  0.60428576837E+01  0.23732396557E+03  0.26859825023E+03  0.12508822764E+03 0.  0.
          5    1    3    3  502    0  0.13229916567E+02  0.61433156858E+02  0.80426502231E+02  0.10215164274E+03  0.41800000000E+01 0.  1.
         -5    1    3    3    0  502 -0.14496547517E+01 -0.55390299175E+02  0.15689746334E+03  0.16644660748E+03  0.41800000000E+01 0.  1.
        -11    1    1    2    0    0 -0.45272663090E+02  0.95504164591E+01  0.15043338284E+03  0.15738814171E+03  0.00000000000E+00 0. -1.
         11    1    1    2    0    0  0.33492401275E+02 -0.15593274143E+02  0.43945966866E+02  0.57412012205E+02  0.00000000000E+00 0.  1.
</event>
<event>
 7    1  0.2556591E-009  0.8970148E+02  0.7561462E-02  0.1303576E+00
          2   -1    0    0  501    0  0.00000000000E+00  0.00000000000E+00  0.47431693718E+03  0.47431693718E+03  0.00000000000E+00 0. -1.
         -2   -1    0    0    0  501 -0.00000000000E+00 -0.00000000000E+00 -0.31692474528E+02  0.31692474528E+02  0.00000000000E+00 0.  1.
         25    2    1    2    0    0  0.67529548267E+01 -0.50653877946E+02  0.30656454480E+03  0.33502186617E+03  0.12508562242E+03 0.  0.
          5    1    3    3  502    0  0.40529508616E+02 -0.84802224689E+01  0.25561574859E+02  0.48840779591E+02  0.41800000000E+01 0. -1.
         -5    1    3    3    0  502 -0.33776553789E+02 -0.42173655477E+02  0.28100296994E+03  0.28618108658E+03  0.41800000000E+01 0. -1.
        -11    1    1    2    0    0 -0.35562272129E+02  0.38243695248E+02  0.12852061272E+03  0.13872564045E+03  0.00000000000E+00 0. -1.
         11    1    1    2    0    0  0.28809317303E+02  0.12410182698E+02  0.75393051429E+01  0.32261905091E+02  0.00000000000E+00 0.  1.
</event>
<event>
 7    1  0.2556591E-009  0.1507811E+03  0.7561462E-02  0.1199516E+00
          2   -1    0    0  501    0  0.00000000000E+00  0.00000000000E+00  0.14283512546E+03  0.14283512546E+03  0.00000000000E+00 0. -1.
         -2   -1    0    0    0  501 -0.00000000000E+00 -0.00000000000E+00 -0.18173504472E+03  0.18173504472E+03  0.00000000000E+00 0.  1.
         25    2    1    2    0    0  0.88098479119E+01 -0.10851432077E+03 -0.67161154163E+02  0.17891948243E+03  0.12509432174E+03 0.  0.
          5    1    3    3  502    0  0.25095890046E+02  0.20812915353E+02 -0.26770558230E+02  0.42392408880E+02  0.41800000000E+01 0.  1.
         -5    1    3    3    0  502 -0.16286042134E+02 -0.12932723612E+03 -0.40390595933E+02  0.13652707355E+03  0.41800000000E+01 0.  1.
        -11    1    1    2    0    0 -0.46263187100E+02  0.44984301381E+02  0.31552046740E+02  0.71828973993E+02  0.00000000000E+00 0. -1.
         11    1    1    2    0    0  0.37453339188E+02  0.63530019390E+02 -0.32908118413E+01  0.73821713761E+02  0.00000000000E+00 0.  1.
</event>
<event>
 7    1  0.2556591E-009  0.2090158E+03  0.7561462E-02  0.1142348E+00
         -1   -1    0    0    0  501 -0.00000000000E+00  0.00000000000E+00  0.79490104685E+02  0.79490104685E+02  0.00000000000E+00 0.  1.
          1   -1    0    0  501    0  0.00000000000E+00 -0.00000000000E+00 -0.60547589995E+03  0.60547589995E+03  0.00000000000E+00 0. -1.
         25    2    1    2    0    0 -0.17246341860E+03  0.82517009592E+02 -0.26868848186E+03  0.35269565280E+03  0.12509210845E+03 0.  0.
          5    1    3    3  502    0 -0.11091663988E+03 -0.12328489804E+01 -0.19780680549E+03  0.22682377657E+03  0.41800000000E+01 0. -1.
         -5    1    3    3    0  502 -0.61546778718E+02  0.83749858572E+02 -0.70881676367E+02  0.12587187623E+03  0.41800000000E+01 0. -1.
        -11    1    1    2    0    0  0.66083030399E+02  0.35459823850E+01 -0.12758043283E+03  0.14372302439E+03  0.00000000000E+00 0. -1.
         11    1    1    2    0    0  0.10638038820E+03 -0.86062991977E+02 -0.12971688058E+03  0.18854732745E+03  0.00000000000E+00 0.  1.
</event>
<event>
 7    1  0.2556591E-009  0.1935067E+03  0.7561462E-02  0.1155336E+00
          1   -1    0    0  501    0  0.00000000000E+00  0.00000000000E+00  0.15847079714E+03  0.15847079714E+03  0.00000000000E+00 0. -1.
         -1   -1    0    0    0  501 -0.00000000000E+00 -0.00000000000E+00 -0.26468629835E+03  0.26468629835E+03  0.00000000000E+00 0.  1.
         25    2    1    2    0    0  0.15701889142E+03  0.60973640590E+02 -0.15374503407E+02  0.21037629249E+03  0.12509633079E+03 0.  0.
          5    1    3    3  502    0  0.93094682934E+02  0.87970100122E+02 -0.43574889563E+02  0.13535731198E+03  0.41800000000E+01 0. -1.
         -5    1    3    3    0  502  0.63924208483E+02 -0.26996459531E+02  0.28200386156E+02  0.75018980510E+02  0.41800000000E+01 0. -1.
        -11    1    1    2    0    0 -0.28354879730E+02 -0.53396496552E+02 -0.47217046844E+02  0.76711371785E+02  0.00000000000E+00 0.  1.
         11    1    1    2    0    0 -0.12866401169E+03 -0.75771440387E+01 -0.43623950954E+02  0.13606943122E+03  0.00000000000E+00 0. -1.
</event>
<event>
 7    1  0.2556591E-009  0.1200347E+03  0.7561462E-02  0.1243040E+00
          1   -1    0    0  501    0  0.00000000000E+00  0.00000000000E+00  0.59267860708E+03  0.59267860708E+03  0.00000000000E+00 0. -1.
         -1   -1    0    0    0  501 -0.00000000000E+00 -0.00000000000E+00 -0.28047187286E+02  0.28047187286E+02  0.00000000000E+00 0.  1.
         25    2    1    2    0    0 -0.60929990554E+02 -0.14927086978E+02  0.36579279599E+03  0.39164526193E+03  0.12508541050E+03 0.  0.
          5    1    3    3  502    0  0.34565953452E+01  0.47614206039E+02  0.16158168552E+03  0.16853834627E+03  0.41800000000E+01 0. -1.
         -5    1    3    3    0  502 -0.64386585899E+02 -0.62541293016E+02  0.20421111047E+03  0.22310691566E+03  0.41800000000E+01 0. -1.
        -11    1    1    2    0    0  0.55495711344E+02 -0.25800725344E+02  0.65890613740E+02  0.89927884357E+02  0.00000000000E+00 0.  1.
         11    1    1    2    0    0  0.54342792093E+01  0.40727812322E+02  0.13294801006E+03  0.13915264808E+03  0.00000000000E+00 0. -1.
</event>
<event>
 7    1  0.2556591E-009  0.8840428E+02  0.7561462E-02  0.1306763E+00
          1   -1    0    0  501    0  0.00000000000E+00  0.00000000000E+00  0.16701586965E+03  0.16701586965E+03  0.00000000000E+00 0. -1.
         -1   -1    0    0    0  501 -0.00000000000E+00 -0.00000000000E+00 -0.95520454751E+02  0.95520454751E+02  0.00000000000E+00 0.  1.
         25    2    1    2    0    0 -0.14208393960E+02 -0.56643635532E+02  0.57558984766E+01  0.13817462058E+03  0.12509482604E+03 0.  0.
          5    1    3    3  502    0 -0.31747643017E+02 -0.34542212530E+02  0.60363994754E+02  0.76566060016E+02  0.41800000000E+01 0.  1.
         -5    1    3    3    0  502  0.17539249057E+02 -0.22101423002E+02 -0.54608096278E+02  0.61608560568E+02  0.41800000000E+01 0.  1.
        -11    1    1    2    0    0 -0.22031042381E+02 -0.10864114907E+02  0.19103146223E+01  0.24638285717E+02  0.00000000000E+00 0.  1.
         11    1    1    2    0    0  0.36239436341E+02  0.67507750438E+02  0.63829201804E+02  0.99723418105E+02  0.00000000000E+00 0. -1.
</event>
<event>
 7    1  0.2556591E-009  0.2371654E+03  0.7561462E-02  0.1121696E+00
         -1   -1    0    0    0  501 -0.00000000000E+00  0.00000000000E+00  0.11359838545E+03  0.11359838545E+03  0.00000000000E+00 0.  1.
          1   -1    0    0  501    0  0.00000000000E+00 -0.00000000000E+00 -0.65337332616E+03  0.65337332616E+03  0.00000000000E+00 0. -1.
         25    2    1    2    0    0 -0.10641860557E+03  0.21158969694E+03 -0.39047075221E+03  0.47350815884E+03  0.12508976253E+03 0.  0.
          5    1    3    3  502    0 -0.30577381895E+02  0.70570243687E+02 -0.24610256318E+03  0.25787415454E+03  0.41800000000E+01 0. -1.
         -5    1    3    3    0  502 -0.75841223674E+02  0.14101945325E+03 -0.14436818904E+03  0.21563400429E+03  0.41800000000E+01 0. -1.
        -11    1    1    2    0    0  0.84376405989E+02 -0.17756050666E+03 -0.78117870218E+02  0.21154080708E+03  0.00000000000E+00 0. -1.
         11    1    1    2    0    0  0.22042199580E+02 -0.34029190277E+02 -0.71186318278E+02  0.81922745701E+02  0.00000000000E+00 0.  1.
</event>
<event>
 7    1  0.2556591E-009  0.1100763E+03  0.7561462E-02  0.1260429E+00
         -2   -1    0    0    0  501 -0.00000000000E+00  0.00000000000E+00  0.17739358129E+02  0.17739358129E+02  0.00000000000E+00 0.  1.
          2   -1    0    0  501    0  0.00000000000E+00 -0.00000000000E+00 -0.11855395037E+04  0.11855395037E+04  0.00000000000E+00 0. -1.
         25    2    1    2    0    0  0.63135318653E+02 -0.64691417568E+02 -0.78171400600E+03  0.79680472081E+03  0.12509967207E+03 0.  0.
          5    1    3    3  502    0  0.15593706750E+01 -0.61627596338E+02 -0.15218552432E+03  0.16425071835E+03  0.41800000000E+01 0.  1.
         -5    1    3    3    0  502  0.61575947978E+02 -0.30638212303E+01 -0.62952848169E+03  0.63255400246E+03  0.41800000000E+01 0.  1.
        -11    1    1    2    0    0 -0.54528759247E+02  0.33013521676E+02 -0.35690473292E+03  0.36255243287E+03  0.00000000000E+00 0. -1.
         11    1    1    2    0    0 -0.86065594065E+01  0.31677895892E+02 -0.29181406642E+02  0.43921708147E+02  0.00000000000E+00 0.  1.
</event>
<event>
 7    1  0.2556591E-009  0.1130400E+03  0.7561462E-02  0.1255042E+00
          1   -1    0    0  501    0  0.00000000000E+00  0.00000000000E+00  0.14286197916E+03  0.14286197916E+03  0.00000000000E+00 0. -1.
         -1   -1    0    0    0  501 -0.00000000000E+00 -0.00000000000E+00 -0.12699309794E+03  0.12699309794E+03  0.00000000000E+00 0.  1.
         25    2    1    2    0    0  0.67846251177E+02  0.38680383078E+02 -0.86062536395E+01  0.14771938640E+03  0.12509062188E+03 0.  0.
          5    1    3    3  502    0  0.17294656285E+02  0.53878011931E+02 -0.53734383715E+02  0.78146028043E+02  0.41800000000E+01 0. -1.
         -5    1    3    3    0  502  0.50551594892E+02 -0.15197628853E+02  0.45128130075E+02  0.69573358356E+02  0.41800000000E+01 0. -1.
        -11    1    1    2    0    0 -0.12157110278E+02 -0.56597013038E+02 -0.20019814231E+01  0.57922578885E+02  0.00000000000E+00 0.  1.
         11    1    1    2    0    0 -0.55689140899E+02  0.17916629960E+02  0.26477116285E+02  0.64213111823E+02  0.00000000000E+00 0. -1.
</event>
<event>
 7    1  0.2556591E-009  0.1190668E+03  0.7561462E-02  0.1244645E+00
         -1   -1    0    0    0  501 -0.00000000000E+00  0.00000000000E+00  0.22140431707E+03  0.22140431707E+03  0.00000000000E+00 0.  1.
          1   -1    0    0  501    0  0.00000000000E+00 -0.00000000000E+00 -0.85060606292E+02  0.85060606292E+02  0.00000000000E+00 0. -1.
         25    2    1    2    0    0  0.78967115879E+02 -0.27607480368E+02  0.92016400625E+02  0.17638638479E+03  0.12508861016E+03 0.  0.
          5    1    3    3  502    0 -0.16779946752E+02 -0.29574279523E+01 -0.20209900344E+02  0.26762389001E+02  0.41800000000E+01 0.  1.
         -5    1    3    3    0  502  0.95747062631E+02 -0.24650052416E+02  0.11222630097E+03  0.14962399579E+03  0.41800000000E+01 0.  1.
        -11    1    1    2    0    0  0.68366133938E+01  0.34858511809E+02  0.19191381927E+02  0.40375292798E+02  0.00000000000E+00 0.  1.
         11    1    1    2    0    0 -0.85803729273E+02 -0.72510314406E+01  0.25135928222E+02  0.89703245770E+02  0.00000000000E+00 0. -1.
</event>
<event>
 7    1  0.2556591E-009  0.1299417E+03  0.7561462E-02  0.1227542E+00
         -1   -1    0    0    0  501 -0.00000000000E+00  0.00000000000E+00  0.29706491877E+02  0.29706491877E+02  0.00000000000E+00 0.  1.
          1   -1    0    0  501    0  0.00000000000E+00 -0.00000000000E+00 -0.58036157016E+03  0.58036157016E+03  0.00000000000E+00 0. -1.
         25    2    1    2    0    0 -0.62095214971E+02  0.34016212387E+02 -0.33891304308E+03  0.36813579587E+03  0.12509594322E+03 0.  0.
          5    1    3    3  502    0 -0.81973110401E+02 -0.20578563697E+02 -0.22024812809E+03  0.23594443931E+03  0.41800000000E+01 0.  1.
         -5    1    3    3    0  502  0.19877895430E+02  0.54594776084E+02 -0.11866491498E+03  0.13219135657E+03  0.41800000000E+01 0.  1.
        -11    1    1    2    0    0  0.82253227323E+02 -0.45308771021E+02 -0.17168357860E+03  0.19568783636E+03  0.00000000000E+00 0.  1.
         11    1    1    2    0    0 -0.20158012351E+02  0.11292558634E+02 -0.40058456601E+02  0.46244429802E+02  0.00000000000E+00 0. -1.
</event>
<event>
 7    1  0.2556591E-009  0.1443432E+03  0.7561462E-02  0.1207602E+00
         -1   -1    0    0    0  501 -0.00000000000E+00  0.00000000000E+00  0.22431916277E+02  0.22431916277E+02  0.00000000000E+00 0.  1.
          1   -1    0    0  501    0  0.00000000000E+00 -0.00000000000E+00 -0.19722235701E+04  0.19722235701E+04  0.00000000000E+00 0. -1.
         25    2    1    2    0    0  0.13382162989E+03 -0.32692090366E+01 -0.15808654476E+04  0.15914465851E+04  0.12509098059E+03 0.  0.
          5    1    3    3  502    0  0.40523786994E+02  0.22709972419E+02 -0.14508949294E+03  0.15240194723E+03  0.41800000000E+01 0.  1.
         -5    1    3    3    0  502  0.93297842898E+02 -0.25979181455E+02 -0.14357759547E+04  0.14390446379E+04  0.41800000000E+01 0.  1.
        -11    1    1    2    0    0 -0.79222268602E+02  0.29497205587E+02 -0.11850889582E+03  0.14556995353E+03  0.00000000000E+00 0.  1.
         11    1    1    2    0    0 -0.54599361290E+02 -0.26227996551E+02 -0.25041731039E+03  0.25763894775E+03  0.00000000000E+00 0. -1.
</event>
<event>
 7    1  0.2556591E-009  0.9020976E+02  0.7561462E-02  0.1302345E+00
          2   -1    0    0  501    0  0.00000000000E+00  0.00000000000E+00  0.50939845526E+03  0.50939845526E+03  0.00000000000E+00 0. -1.
         -2   -1    0    0    0  501 -0.00000000000E+00 -0.00000000000E+00 -0.33283800439E+02  0.33283800439E+02  0.00000000000E+00 0.  1.
         25    2    1    2    0    0  0.10819015098E+01 -0.71489498940E+02  0.27663941697E+03  0.31191173957E+03  0.12509055635E+03 0.  0.
          5    1    3    3  502    0 -0.20597592367E+02 -0.42953698729E+02  0.27124821076E+03  0.27543119883E+03  0.41800000000E+01 0.  1.
         -5    1    3    3    0  502  0.21679493877E+02 -0.28535800211E+02  0.53912062117E+01  0.36480540742E+02  0.41800000000E+01 0.  1.
        -11    1    1    2    0    0  0.31780939354E+02  0.31323285924E+02  0.15845882636E+03  0.16462191835E+03  0.00000000000E+00 0.  1.
         11    1    1    2    0    0 -0.32862840863E+02  0.40166213016E+02  0.41016411483E+02  0.66148597783E+02  0.00000000000E+00 0. -1.
</event>
<event>
 7    1  0.2556591E-009  0.1181518E+03  0.7561462E-02  0.1246177E+00
         -2   -1    0    0    0  501 -0.00000000000E+00  0.00000000000E+00  0.46712146015E+02  0.46712146015E+02  0.00000000000E+00 0.  1.
          2   -1    0    0  501    0  0.00000000000E+00 -0.00000000000E+00 -0.51313013813E+03  0.51313013813E+03  0.00000000000E+00 0. -1.
         25    2    1    2    0    0  0.35667010860E+02 -0.57775861707E+02 -0.95351198616E+02  0.17131114395E+03  0.12508185761E+03 0.  0.
          5    1    3    3  502    0 -0.41649575957E+02 -0.34677446068E+02 -0.65629221771E+02  0.85216662651E+02  0.41800000000E+01 0. -1.
         -5    1    3    3    0  502  0.77316586817E+02 -0.23098415639E+02 -0.29721976846E+02  0.86094481296E+02  0.41800000000E+01 0. -1.
        -11    1    1    2    0    0  0.18070533501E+02  0.41071926557E+02 -0.26187453867E+03  0.26569102607E+03  0.00000000000E+00 0. -1.
         11    1    1    2    0    0 -0.53737544361E+02  0.16703935150E+02 -0.10919225483E+03  0.12284011413E+03  0.00000000000E+00 0.  1.
</event>
<event>
 7    1  0.2556591E-009  0.1325685E+03  0.7561462E-02  0.1223694E+00
         -1   -1    0    0    0  501 -0.00000000000E+00  0.00000000000E+00  0.64266845815E+03  0.64266845815E+03  0.00000000000E+00 0.  1.
          1   -1    0    0  501    0  0.00000000000E+00 -0.00000000000E+00 -0.32082535408E+02  0.32082535408E+02  0.00000000000E+00 0. -1.
         25    2    1    2    0    0 -0.13177852325E+01  0.73564588048E+02  0.44407960921E+03  0.46719407252E+03  0.12510042730E+03 0.  0.
          5    1    3    3  502    0  0.22933155025E+02 -0.30376591071E+02  0.11315842836E+03  0.11946116186E+03  0.41800000000E+01 0.  1.
         -5    1    3    3    0  502 -0.24250940257E+02  0.10394117912E+03  0.33092118085E+03  0.34773291066E+03  0.41800000000E+01 0.  1.
        -11    1    1    2    0    0 -0.46737073559E+02 -0.38318577730E+02  0.58019037565E+02  0.83778733365E+02  0.00000000000E+00 0.  1.
         11    1    1    2    0    0  0.48054858792E+02 -0.35246010318E+02  0.10848727596E+03  0.12377818767E+03  0.00000000000E+00 0. -1.
</event>
<event>
 7    1  0.2556591E-009  0.1265470E+03  0.7561462E-02  0.1232671E+00
          3   -1    0    0  501    0  0.00000000000E+00  0.00000000000E+00  0.13268505602E+04  0.13268505602E+04  0.00000000000E+00 0. -1.
         -3   -1    0    0    0  501 -0.00000000000E+00 -0.00000000000E+00 -0.21958252734E+02  0.21958252734E+02  0.00000000000E+00 0.  1.
         25    2    1    2    0    0 -0.81101647185E+02 -0.76532063713E+02  0.96580410911E+03  0.98023466517E+03  0.12509111753E+03 0.  0.
          5    1    3    3  502    0 -0.27649292951E+02  0.51947377687E+01  0.38886963458E+02  0.48178180000E+02  0.41800000000E+01 0.  1.
         -5    1    3    3    0  502 -0.53452354234E+02 -0.81726801482E+02  0.92691714565E+03  0.93205648517E+03  0.41800000000E+01 0.  1.
        -11    1    1    2    0    0  0.21859978950E+02 -0.83470184834E+01  0.13690651029E+02  0.27110243873E+02  0.00000000000E+00 0.  1.
         11    1    1    2    0    0  0.59241668235E+02  0.84879082197E+02  0.32539754733E+03  0.34146390389E+03  0.00000000000E+00 0. -1.
</event>
<event>
 7    1  0.2556591E-009  0.8231534E+02  0.7561462E-02  0.1322606E+00
          2   -1    0    0  501    0  0.00000000000E+00  0.00000000000E+00  0.45563275595E+03  0.45563275595E+03  0.00000000000E+00 0.  1.
         -2   -1    0    0    0  501 -0.00000000000E+00 -0.00000000000E+00 -0.30890941496E+02  0.30890941496E+02  0.00000000000E+00 0. -1.
         25    2    1    2    0    0  0.50788075776E+01  0.34518280320E+02  0.32186732501E+03  0.34707983120E+03  0.12509407803E+03 0.  0.
          5    1    3    3  502    0 -0.30310483213E+00 -0.46547802786E+02  0.14622685993E+03  0.15351402796E+03  0.41800000000E+01 0.  1.
         -5    1    3    3    0  502  0.53819124097E+01  0.81066083106E+02  0.17564046508E+03  0.19356580324E+03  0.41800000000E+01 0.  1.
        -11    1    1    2    0    0 -0.82784356942E+01 -0.19452164673E+02  0.11678915903E+03  0.11868709650E+03  0.00000000000E+00 0.  1.
         11    1    1    2    0    0  0.31996281166E+01 -0.15066115647E+02 -0.13914669581E+02  0.20756769747E+02  0.00000000000E+00 0. -1.
</event>
<event>
 7    1  0.2556591E-009  0.1772704E+03  0.7561462E-02  0.1170471E+00
          2   -1    0    0  501    0  0.00000000000E+00  0.00000000000E+00  0.32474810440E+03  0.32474810440E+03  0.00000000000E+00 0. -1.
         -2   -1    0    0    0  501 -0.00000000000E+00 -0.00000000000E+00 -0.11629102353E+03  0.11629102353E+03  0.00000000000E+00 0.  1.
         25    2    1    2    0    0 -0.14304587387E+03  0.76319905953E+02  0.11856108064E+03  0.23662547591E+03  0.12509210978E+03 0.  0.
          5    1    3    3  502    0 -0.15506950749E+02  0.51192382935E+02 -0.90584672559E+01  0.54411890439E+02  0.41800000000E+01 0. -1.
         -5    1    3    3    0  502 -0.12753892313E+03  0.25127523018E+02  0.12761954790E+03  0.18221358547E+03  0.41800000000E+01 0. -1.
        -11    1    1    2    0    0  0.93231441203E+02 -0.19468874049E+02  0.86642547946E+02  0.12875585346E+03  0.00000000000E+00 0. -1.
         11    1    1    2    0    0  0.49814432671E+02 -0.56851031904E+02  0.32534522769E+01  0.75657798558E+02  0.00000000000E+00 0.  1.
</event>
<event>
 7    1  0.2556591E-009  0.1278855E+03  0.7561462E-02  0.1230627E+00
         -1   -1    0    0    0  501 -0.00000000000E+00  0.00000000000E+00  0.20043084749E+02  0.20043084749E+02  0.00000000000E+00 0.  1.
          1   -1    0    0  501    0  0.00000000000E+00 -0.00000000000E+00 -0.98283019702E+03  0.98283019702E+03  0.00000000000E+00 0. -1.
         25    2    1    2    0    0 -0.62606180856E+02  0.42866515859E+02 -0.70502726219E+03  0.72004723571E+03  0.12509000427E+03 0.  0.
          5    1    3    3  502    0  0.29671986849E+02 -0.12472019926E+02 -0.26760116180E+03  0.26956229759E+03  0.41800000000E+01 0. -1.
         -5    1    3    3    0  502 -0.92278167705E+02  0.55338535785E+02 -0.43742610039E+03  0.45048493813E+03  0.41800000000E+01 0. -1.
        -11    1    1    2    0    0  0.84804048195E+02 -0.37895192589E+02 -0.19303501097E+03  0.21422018503E+03  0.00000000000E+00 0. -1.
         11    1    1    2    0    0 -0.22197867339E+02 -0.49713232693E+01 -0.64724839109E+02  0.68605861026E+02  0.00000000000E+00 0.  1.
</event>
<event>
 7    1  0.2556591E-009  0.8899587E+02  0.7561462E-02  0.1305302E+00
         -2   -1    0    0    0  501 -0.00000000000E+00  0.00000000000E+00  0.25577784335E+02  0.25577784335E+02  0.00000000000E+00 0.  1.
          2   -1    0    0  501    0  0.00000000000E+00 -0.00000000000E+00 -0.48950514517E+03  0.48950514517E+03  0.00000000000E+00 0. -1.
         25    2    1    2    0    0 -0.20533343321E+02 -0.14833191721E+02 -0.30365375211E+03  0.32938290900E+03  0.12508340341E+03 0.  0.
          5    1    3    3  502    0 -0.38518363782E+02  0.23524201882E+02 -0.34708700221E+02  0.57089567293E+02  0.41800000000E+01 0.  1.
         -5    1    3    3    0  502  0.17985020462E+02 -0.38357393603E+02 -0.26894505189E+03  0.27229334171E+03  0.41800000000E+01 0.  1.
        -11    1    1    2    0    0  0.47724366866E+02 -0.14713010015E+02 -0.11384000904E+03  0.12431265227E+03  0.00000000000E+00 0. -1.
         11    1    1    2    0    0 -0.27191023545E+02  0.29546201736E+02 -0.46433599690E+02  0.61387368234E+02  0.00000000000E+00 0.  1.
</event>
<event>
 7    1  0.2556591E-009  0.8889110E+02  0.7561462E-02  0.1305559E+00
         -1   -1    0    0    0  501 -0.00000000000E+00  0.00000000000E+00  0.19428516373E+03  0.19428516373E+03  0.00000000000E+00 0.  1.
          1   -1    0    0  501    0  0.00000000000E+00 -0.00000000000E+00 -0.89803969651E+02  0.89803969651E+02  0.00000000000E+00 0. -1.
         25    2    1    2    0    0 -0.60313475627E+02 -0.18078614582E+02  0.10293815968E+03  0.17380665760E+03  0.12509171779E+03 0.  0.
          5    1    3    3  502    0 -0.81819008797E+01  0.52046803114E+01 -0.28526524176E+02  0.30418204758E+02  0.41800000000E+01 0.  1.
         -5    1    3    3    0  502 -0.52131574747E+02 -0.23283294894E+02  0.13146468386E+03  0.14338845284E+03  0.41800000000E+01 0.  1.
        -11    1    1    2    0    0  0.55533907105E+02 -0.29003078582E+02 -0.31241799504E+01  0.62729210946E+02  0.00000000000E+00 0.  1.
         11    1    1    2    0    0  0.47795685219E+01  0.47081693164E+02  0.46672143444E+01  0.47553264832E+02  0.00000000000E+00 0. -1.
</event>
<event>
 7    1  0.2556591E-009  0.1480569E+03  0.7561462E-02  0.1202881E+00
         -1   -1    0    0    0  501 -0.00000000000E+00  0.00000000000E+00  0.58838537951E+02  0.58838537951E+02  0.00000000000E+00 0.  1.
          1   -1    0    0  501    0  0.00000000000E+00 -0.00000000000E+00 -0.44401953134E+03  0.44401953134E+03  0.00000000000E+00 0. -1.
         25    2    1    2    0    0  0.60900409811E+01  0.10332495733E+03 -0.11456668323E+03  0.19871161431E+03  0.12509054860E+03 0.  0.
          5    1    3    3  502    0  0.31425507387E+02  0.12332628561E+03 -0.76183036748E+02  0.14838552060E+03  0.41800000000E+01 0. -1.
         -5    1    3    3    0  502 -0.25335466406E+02 -0.20001328276E+02 -0.38383646480E+02  0.50326093708E+02  0.41800000000E+01 0. -1.
        -11    1    1    2    0    0 -0.36196138650E+02 -0.91153609869E+01 -0.50171558500E+02  0.62533475366E+02  0.00000000000E+00 0.  1.
         11    1    1    2    0    0  0.30106097668E+02 -0.94209596343E+02 -0.22044275166E+03  0.24161297962E+03  0.00000000000E+00 0. -1.
</event>
<event>
 7    1  0.2556591E-009  0.1209311E+03  0.7561462E-02  0.1241569E+00
         -1   -1    0    0    0  501 -0.00000000000E+00  0.00000000000E+00  0.72275855583E+02  0.72275855583E+02  0.00000000000E+00 0.  1.
          1   -1    0    0  501    0  0.00000000000E+00 -0.00000000000E+00 -0.24108294775E+03  0.24108294775E+03  0.00000000000E+00 0. -1.
         25    2    1    2    0    0  0.41934844476E+02 -0.18933728550E+02 -0.13713625018E+03  0.19124444434E+03  0.12510423302E+03 0.  0.
          5    1    3    3  502    0 -0.34689484218E+02 -0.30433741301E+02 -0.87846384149E+02  0.99317835926E+02  0.41800000000E+01 0. -1.
         -5    1    3    3    0  502  0.76624328694E+02  0.11500012751E+02 -0.49289866028E+02  0.91926608412E+02  0.41800000000E+01 0. -1.
        -11    1    1    2    0    0 -0.18701621621E+02  0.64298356680E+02 -0.18542474351E+02  0.69482750939E+02  0.00000000000E+00 0.  1.
         11    1    1    2    0    0 -0.23233222855E+02 -0.45364628130E+02 -0.13128367637E+02  0.52631608055E+02  0.00000000000E+00 0. -1.
</event>
<event>
 7    1  0.2556591E-009  0.1563511E+03  0.7561462E-02  0.1192879E+00
          1   -1    0    0  501    0  0.00000000000E+00  0.00000000000E+00  0.41097064707E+02  0.41097064707E+02  0.00000000000E+00 0. -1.
         -1   -1    0    0    0  501 -0.00000000000E+00 -0.00000000000E+00 -0.78529331805E+03  0.78529331805E+03  0.00000000000E+00 0.  1.
         25    2    1    2    0    0  0.34774051158E+02 -0.13852801253E+03 -0.40066061773E+03  0.44336838423E+03  0.12508936263E+03 0.  0.
          5    1    3    3  502    0  0.10336247102E+02 -0.11018543314E+03 -0.13300333247E+03  0.17307520484E+03  0.41800000000E+01 0.  1.
         -5    1    3    3    0  502  0.24437804055E+02 -0.28342579389E+02 -0.26765728526E+03  0.27029317939E+03  0.41800000000E+01 0.  1.
        -11    1    1    2    0    0 -0.31206327814E+02  0.60690201237E+01 -0.35265213607E+02  0.47479502859E+02  0.00000000000E+00 0. -1.
         11    1    1    2    0    0 -0.35677233432E+01  0.13245899240E+03 -0.30827042200E+03  0.33554249567E+03  0.00000000000E+00 0.  1.
</event>
<event>
 7    1  0.2556591E-009  0.1453105E+03  0.7561462E-02  0.1206357E+00
          1   -1    0    0  501    0  0.00000000000E+00  0.00000000000E+00  0.18290914203E+03  0.18290914203E+03  0.00000000000E+00 0. -1.
         -1   -1    0    0    0  501 -0.00000000000E+00 -0.00000000000E+00 -0.20800339470E+03  0.20800339470E+03  0.00000000000E+00 0.  1.
         25    2    1    2    0    0  0.84952427911E+02  0.11169139574E+03  0.65429852975E+02  0.19905119398E+03  0.12509368199E+03 0.  0.
          5    1    3    3  502    0  0.65853692037E+02  0.76295177838E+02 -0.21534932501E+02  0.10314498841E+03  0.41800000000E+01 0.  1.
         -5    1    3    3    0  502  0.19098735873E+02  0.35396217899E+02  0.86964785475E+02  0.95906205567E+02  0.41800000000E+01 0.  1.
        -11    1    1    2    0    0 -0.58974037518E+01 -0.46422313181E+02  0.10470861485E+02  0.47952575242E+02  0.00000000000E+00 0.  1.
         11    1    1    2    0    0 -0.79055024159E+02 -0.65269082556E+02 -0.10099496713E+03  0.14390876751E+03  0.00000000000E+00 0. -1.
</event>
<event>
 7    1  0.2556591E-009  0.1518473E+03  0.7561462E-02  0.1198221E+00
          1   -1    0    0  501    0  0.00000000000E+00  0.00000000000E+00  0.15121763592E+04  0.15121763592E+04  0.00000000000E+00 0. -1.
         -1   -1    0    0    0  501 -0.00000000000E+00 -0.00000000000E+00 -0.20121384295E+02  0.20121384295E+02  0.00000000000E+00 0.  1.
         25    2    1    2    0    0  0.85423879768E+02 -0.80950580077E+02  0.11098380202E+04  0.11230491431E+04  0.12509480802E+03 0.  0.
          5    1    3    3  502    0  0.10864020764E+03 -0.26517825909E+02  0.68272129968E+03  0.69183215829E+03  0.41800000000E+01 0.  1.
         -5    1    3    3    0  502 -0.23216327867E+02 -0.54432754168E+02  0.42711672057E+03  0.43121698482E+03  0.41800000000E+01 0.  1.
        -11    1    1    2    0    0  0.65061888440E+00  0.34781023796E+02  0.38343918224E+02  0.51772569822E+02  0.00000000000E+00 0.  1.
         11    1    1    2    0    0 -0.86074498652E+02  0.46169556281E+02  0.34387303646E+03  0.35747603060E+03  0.00000000000E+00 0. -1.
</event>
<event>
 7    1  0.2556591E-009  0.6352224E+02  0.7561462E-02  0.1383618E+00
          4   -1    0    0  501    0  0.00000000000E+00  0.00000000000E+00  0.53485363066E+02  0.53485363066E+02  0.00000000000E+00 0. -1.
         -4   -1    0    0    0  501 -0.00000000000E+00 -0.00000000000E+00 -0.30350262969E+03  0.30350262969E+03  0.00000000000E+00 0.  1.
         25    2    1    2    0    0  0.95442778862E+00  0.46111542156E+02 -0.20873521021E+03  0.24767916864E+03  0.12508955729E+03 0.  0.
          5    1    3    3  502    0  0.19161859956E+02  0.19596629142E+02 -0.21314965113E+03  0.21494522774E+03  0.41800000000E+01 0.  1.
         -5    1    3    3    0  502 -0.18207432167E+02  0.26514913015E+02  0.44144409180E+01  0.32733940901E+02  0.41800000000E+01 0.  1.
        -11    1    1    2    0    0  0.14434049683E+02  0.35744763564E+01  0.22522880765E+02  0.26988864916E+02  0.00000000000E+00 0. -1.
         11    1    1    2    0    0 -0.15388477472E+02 -0.49686018512E+02 -0.63804937174E+02  0.82319959198E+02  0.00000000000E+00 0.  1.
</event>
<event>
 7    1  0.2767916E-009  0.9839715E+02  0.7561462E-02  0.1283703E+00
         -1   -1    0    0    0  501 -0.00000000000E+00  0.00000000000E+00  0.25669289063E+02  0.25669289063E+02  0.00000000000E+00 0.  1.
          1   -1    0    0  501    0  0.00000000000E+00 -0.00000000000E+00 -0.51693860530E+03  0.51693860530E+03  0.00000000000E+00 0. -1.
         25    2    1    2    0    0  0.25890518250E+02 -0.27887175995E+02 -0.27369748745E+03  0.30332994149E+03  0.12510285866E+03 0.  0.
          5    1    3    3  502    0 -0.45751574678E+02 -0.14151267721E+02 -0.56563124173E+02  0.74231559190E+02  0.41800000000E+01 0.  1.
         -5    1    3    3    0  502  0.71642092928E+02 -0.13735908274E+02 -0.21713436328E+03  0.22909838230E+03  0.41800000000E+01 0.  1.
        -11    1    1    2    0    0 -0.39680246990E+02 -0.50001629290E+01 -0.34662347797E+02  0.52924493246E+02  0.00000000000E+00 0.  1.
         11    1    1    2    0    0  0.13789728740E+02  0.32887338924E+02 -0.18290948099E+03  0.18635345963E+03  0.00000000000E+00 0. -1.
</event>
<event>
 7    1  0.2556591E-009  0.1013533E+03  0.7561462E-02  0.1277476E+00
          2   -1    0    0  501    0  0.00000000000E+00  0.00000000000E+00  0.45507292694E+02  0.45507292694E+02  0.00000000000E+00 0. -1.
         -2   -1    0    0    0  501 -0.00000000000E+00 -0.00000000000E+00 -0.33696954900E+03  0.33696954900E+03  0.00000000000E+00 0.  1.
         25    2    1    2    0    0  0.33397433178E+02  0.15322675535E+02 -0.24154380659E+03  0.27448319290E+03  0.12508972681E+03 0.  0.
          5    1    3    3  502    0 -0.44473549562E+02  0.25567289136E+02 -0.10399340865E+03  0.11603311737E+03  0.41800000000E+01 0.  1.
         -5    1    3    3    0  502  0.77870982740E+02 -0.10244613601E+02 -0.13755039794E+03  0.15845007553E+03  0.41800000000E+01 0.  1.
        -11    1    1    2    0    0 -0.42715140517E+01  0.23592871131E+02  0.13944404238E+02  0.27736542865E+02  0.00000000000E+00 0. -1.
         11    1    1    2    0    0 -0.29125919126E+02 -0.38915546666E+02 -0.63862853952E+02  0.80257105930E+02  0.00000000000E+00 0.  1.
</event>
<event>
 7    1  0.2556591E-009  0.2081792E+03  0.7561462E-02  0.1143016E+00
          2   -1    0    0  501    0  0.00000000000E+00  0.00000000000E+00  0.42515797087E+03  0.42515797087E+03  0.00000000000E+00 0. -1.
         -2   -1    0    0    0  501 -0.00000000000E+00 -0.00000000000E+00 -0.13004267440E+03  0.13004267440E+03  0.00000000000E+00 0.  1.
         25    2    1    2    0    0  0.71103163742E+02 -0.16904898946E+03  0.27171499175E+03  0.35087062874E+03  0.12509172891E+03 0.  0.
          5    1    3    3  502    0  0.40824280742E+01  0.15732824984E+02  0.58439736035E+02  0.60801835078E+02  0.41800000000E+01 0.  1.
         -5    1    3    3    0  502  0.67020735668E+02 -0.18478181444E+03  0.21327525571E+03  0.29006879366E+03  0.41800000000E+01 0.  1.
        -11    1    1    2    0    0  0.91979942382E+01  0.89385562840E+02  0.11600265603E+02  0.90603245551E+02  0.00000000000E+00 0.  1.
         11    1    1    2    0    0 -0.80301157980E+02  0.79663426618E+02  0.11800039111E+02  0.11372677097E+03  0.00000000000E+00 0. -1.
</event>
<event>
 7    1  0.2556591E-009  0.1074334E+03  0.7561462E-02  0.1265398E+00
         -4   -1    0    0    0  501 -0.00000000000E+00  0.00000000000E+00  0.54780182693E+03  0.54780182693E+03  0.00000000000E+00 0.  1.
          4   -1    0    0  501    0  0.00000000000E+00 -0.00000000000E+00 -0.21515215936E+02  0.21515215936E+02  0.00000000000E+00 0. -1.
         25    2    1    2    0    0  0.66530186327E+01  0.55540432150E+01  0.30906395262E+03  0.33353182584E+03  0.12509133457E+03 0.  0.
          5    1    3    3  502    0 -0.41115641266E+02 -0.40257870065E+02  0.16862628722E+03  0.17822314441E+03  0.41800000000E+01 0. -1.
         -5    1    3    3    0  502  0.47768659898E+02  0.45811913280E+02  0.14043766540E+03  0.15530868143E+03  0.41800000000E+01 0. -1.
        -11    1    1    2    0    0 -0.12942749616E+02  0.41454018587E+02  0.11987995120E+03  0.12750354162E+03  0.00000000000E+00 0.  1.
         11    1    1    2    0    0  0.62897309833E+01 -0.47008061802E+02  0.97342707169E+02  0.10828167541E+03  0.00000000000E+00 0. -1.
</event>
<event>
 7    1  0.2556591E-009  0.1101435E+03  0.7561462E-02  0.1260304E+00
         -1   -1    0    0    0  501 -0.00000000000E+00  0.00000000000E+00  0.17951346734E+03  0.17951346734E+03  0.00000000000E+00 0.  1.
          1   -1    0    0  501    0  0.00000000000E+00 -0.00000000000E+00 -0.14001709697E+03  0.14001709697E+03  0.00000000000E+00 0. -1.
         25    2    1    2    0    0 -0.58494699408E+02 -0.45989095030E+02 -0.67610446811E+02  0.16048472741E+03  0.12509016146E+03 0.  0.
          5    1    3    3  502    0 -0.29005399653E+02 -0.79019029290E+02 -0.59904437315E+01  0.84490697802E+02  0.41800000000E+01 0.  1.
         -5    1    3    3    0  502 -0.29489299755E+02  0.33029934259E+02 -0.61620003080E+02  0.75994029613E+02  0.41800000000E+01 0.  1.
        -11    1    1    2    0    0  0.89793761181E+01  0.40766314340E+02  0.10049356422E+03  0.10881855554E+03  0.00000000000E+00 0.  1.
         11    1    1    2    0    0  0.49515323290E+02  0.52227806905E+01  0.66132529624E+01  0.50227281365E+02  0.00000000000E+00 0. -1.
</event>
<event>
 7    1  0.2556591E-009  0.1128364E+03  0.7561462E-02  0.1255406E+00
         -1   -1    0    0    0  501 -0.00000000000E+00  0.00000000000E+00  0.67563490561E+03  0.67563490561E+03  0.00000000000E+00 0.  1.
          1   -1    0    0  501    0  0.00000000000E+00 -0.00000000000E+00 -0.54359558106E+02  0.54359558106E+02  0.00000000000E+00 0. -1.
         25    2    1    2    0    0 -0.56345290526E+02  0.81030488424E+02  0.54942162628E+03  0.57206190420E+03  0.12509982813E+03 0.  0.
          5    1    3    3  502    0 -0.32680588145E+02  0.43846774609E+02  0.62584055708E+02  0.83215364651E+02  0.41800000000E+01 0. -1.
         -5    1    3    3    0  502 -0.23664702381E+02  0.37183713814E+02  0.48683757057E+03  0.48884653955E+03  0.41800000000E+01 0. -1.
        -11    1    1    2    0    0  0.76307579970E+02 -0.70928779351E+02  0.26712540450E+02  0.10755137525E+03  0.00000000000E+00 0. -1.
         11    1    1    2    0    0 -0.19962289444E+02 -0.10101709073E+02  0.45141180779E+02  0.50381184267E+02  0.00000000000E+00 0.  1.
</event>
<event>
 7    1  0.2556591E-009  0.9906201E+02  0.7561462E-02  0.1282281E+00
          1   -1    0    0  501    0  0.00000000000E+00  0.00000000000E+00  0.91946602961E+02  0.91946602961E+02  0.00000000000E+00 0. -1.
         -1   -1    0    0    0  501 -0.00000000000E+00 -0.00000000000E+00 -0.14768871232E+03  0.14768871232E+03  0.00000000000E+00 0.  1.
         25    2    1    2    0    0  0.64736753680E+01 -0.21058015022E+02 -0.59474253614E+02  0.14024902315E+03  0.12508898106E+03 0.  0.
          5    1    3    3  502    0  0.40406193215E+02  0.26656453708E+02 -0.65154301775E+02  0.81275964554E+02  0.41800000000E+01 0. -1.
         -5    1    3    3    0  502 -0.33932517847E+02 -0.47714468730E+02  0.56800481606E+01  0.58973058601E+02  0.41800000000E+01 0. -1.
        -11    1    1    2    0    0 -0.39245412301E+02 -0.15089555958E+02  0.21793692409E+02  0.47358865216E+02  0.00000000000E+00 0. -1.
         11    1    1    2    0    0  0.32771736933E+02  0.36147570979E+02 -0.18061548157E+02  0.52027426913E+02  0.00000000000E+00 0.  1.
</event>
<event>
 7    1  0.2556591E-009  0.9007524E+02  0.7561462E-02  0.1302670E+00
          3   -1    0    0  501    0  0.00000000000E+00  0.00000000000E+00  0.15222885049E+02  0.15222885049E+02  0.00000000000E+00 0. -1.
         -3   -1    0    0    0  501 -0.00000000000E+00 -0.00000000000E+00 -0.96691976684E+03  0.96691976684E+03  0.00000000000E+00 0.  1.
         25    2    1    2    0    0 -0.40706798835E+02 -0.18265289629E+01 -0.69174778366E+03  0.70414476708E+03  0.12507788426E+03 0.  0.
          5    1    3    3  502    0  0.19843724669E+00  0.42537293639E+02 -0.93031206128E+02  0.10238036160E+03  0.41800000000E+01 0. -1.
         -5    1    3    3    0  502 -0.40905236082E+02 -0.44363822602E+02 -0.59871657753E+03  0.60176440548E+03  0.41800000000E+01 0. -1.
        -11    1    1    2    0    0  0.55768893546E+02  0.14061313438E+02 -0.24932934771E+03  0.25587695022E+03  0.00000000000E+00 0.  1.
         11    1    1    2    0    0 -0.15062094711E+02 -0.12234784476E+02 -0.10619750426E+02  0.22120934595E+02  0.00000000000E+00 0. -1.
</event>
<event>
 7    1  0.2556591E-009  0.1163736E+03  0.7561462E-02  0.1249202E+00
          2   -1    0    0  501    0  0.00000000000E+00  0.00000000000E+00  0.48208621425E+03  0.48208621425E+03  0.00000000000E+00 0. -1.
         -2   -1    0    0    0  501 -0.00000000000E+00 -0.00000000000E+00 -0.54306216047E+02  0.54306216047E+02  0.00000000000E+00 0.  1.
         25    2    1    2    0    0  0.47746605327E+01 -0.11332836610E+03  0.15716608239E+03  0.23068375693E+03  0.12509077628E+03 0.  0.
          5    1    3    3  502    0  0.97740648658E+01 -0.48195271990E+02 -0.10705519944E+02  0.50501456845E+02  0.41800000000E+01 0. -1.
         -5    1    3    3    0  502 -0.49994043331E+01 -0.65133094108E+02  0.16787160234E+03  0.18018230008E+03  0.41800000000E+01 0. -1.
        -11    1    1    2    0    0  0.12790116549E+02  0.27511374911E+02  0.11937341998E+02  0.32603112808E+02  0.00000000000E+00 0.  1.
         11    1    1    2    0    0 -0.17564777081E+02  0.85816991187E+02  0.25867657381E+03  0.27310556056E+03  0.00000000000E+00 0. -1.
</event>
<event>
 7    1  0.2556591E-009  0.1085825E+03  0.7561462E-02  0.1263218E+00
         -2   -1    0    0    0  501 -0.00000000000E+00  0.00000000000E+00  0.19680131181E+03  0.19680131181E+03  0.00000000000E+00 0.  1.
          2   -1    0    0  501    0  0.00000000000E+00 -0.00000000000E+00 -0.17210023380E+03  0.17210023380E+03  0.00000000000E+00 0. -1.
         25    2    1    2    0    0 -0.14939428052E+02 -0.76598106211E+02 -0.11391643521E+03  0.18631687092E+03  0.12508623343E+03 0.  0.
          5    1    3    3  502    0 -0.59953579384E+02 -0.67005071846E+02 -0.38565873698E+02  0.97922981716E+02  0.41800000000E+01 0. -1.
         -5    1    3    3    0  502  0.45014151332E+02 -0.95930343655E+01 -0.75350561513E+02  0.88393889205E+02  0.41800000000E+01 0. -1.
        -11    1    1    2    0    0 -0.51808362937E+01  0.25581857658E+02 -0.69658762863E+01  0.27014735579E+02  0.00000000000E+00 0. -1.
         11    1    1    2    0    0  0.20120264346E+02  0.51016248553E+02  0.14558338951E+03  0.15556993911E+03  0.00000000000E+00 0.  1.
</event>
<event>
 7    1  0.2556591E-009  0.1044684E+03  0.7561462E-02  0.1271171E+00
          1   -1    0    0  501    0  0.00000000000E+00  0.00000000000E+00  0.17460297163E+03  0.17460297163E+03  0.00000000000E+00 0. -1.
         -1   -1    0    0    0  501 -0.00000000000E+00 -0.00000000000E+00 -0.12287065863E+03  0.12287065863E+03  0.00000000000E+00 0.  1.
         25    2    1    2    0    0 -0.38513862328E+02 -0.50626228191E+01  0.10307168156E+03  0.16665992563E+03  0.12507122583E+03 0.  0.
          5    1    3    3  502    0  0.30745731894E+02  0.31840527156E+02  0.11369737963E+02  0.45889677931E+02  0.41800000000E+01 0.  1.
         -5    1    3    3    0  502 -0.69259594222E+02 -0.36903149975E+02  0.91701943596E+02  0.12077024770E+03  0.41800000000E+01 0.  1.
        -11    1    1    2    0    0 -0.21797005649E+02  0.12491196876E+02  0.23507122099E+02  0.34405293838E+02  0.00000000000E+00 0. -1.
         11    1    1    2    0    0  0.60310867977E+02 -0.74285740572E+01 -0.74846490657E+02  0.96408410797E+02  0.00000000000E+00 0.  1.
</event>
<event>
 7    1  0.2556591E-009  0.2563300E+03  0.7561462E-02  0.1109369E+00
         -2   -1    0    0    0  501 -0.00000000000E+00  0.00000000000E+00  0.15449758409E+03  0.15449758409E+03  0.00000000000E+00 0.  1.
          2   -1    0    0  501    0  0.00000000000E+00 -0.00000000000E+00 -0.44846508219E+03  0.44846508219E+03  0.00000000000E+00 0. -1.
         25    2    1    2    0    0  0.32159498969E+02 -0.23440350626E+03 -0.14409233834E+03  0.30395566774E+03  0.12508880392E+03 0.  0.
          5    1    3    3  502    0  0.43825276689E+02 -0.28289151931E+02 -0.63536033471E+02  0.82311791033E+02  0.41800000000E+01 0.  1.
         -5    1    3    3    0  502 -0.11665777721E+02 -0.20611435433E+03 -0.80556304866E+02  0.22164387671E+03  0.41800000000E+01 0.  1.
        -11    1    1    2    0    0  0.18043854185E+02  0.17560022242E+03 -0.12984333804E+03  0.21913537190E+03  0.00000000000E+00 0.  1.
         11    1    1    2    0    0 -0.50203353153E+02  0.58803283842E+02 -0.20031821727E+02  0.79871626628E+02  0.00000000000E+00 0. -1.
</event>
<event>
 7    1  0.2556591E-009  0.1666886E+03  0.7561462E-02  0.1181346E+00
          2   -1    0    0  501    0  0.00000000000E+00  0.00000000000E+00  0.86343647564E+03  0.86343647564E+03  0.00000000000E+00 0.  1.
         -2   -1    0    0    0  501 -0.00000000000E+00 -0.00000000000E+00 -0.34380673429E+02  0.34380673429E+02  0.00000000000E+00 0. -1.
         25    2    1    2    0    0  0.11826942934E+03  0.23400382122E+02  0.52725062879E+03  0.55513505502E+03  0.12508584235E+03 0.  0.
          5    1    3    3  502    0  0.11509414553E+03 -0.30254511206E+02  0.38581717271E+03  0.40377513661E+03  0.41800000000E+01 0. -1.
         -5    1    3    3    0  502  0.31752838180E+01  0.53654893327E+02  0.14143345607E+03  0.15135991841E+03  0.41800000000E+01 0. -1.
        -11    1    1    2    0    0 -0.13523337432E+01 -0.41982248230E+02  0.10392732313E+03  0.11209472096E+03  0.00000000000E+00 0. -1.
         11    1    1    2    0    0 -0.11691709560E+03  0.18581866108E+02  0.19787785029E+03  0.23058737309E+03  0.00000000000E+00 0.  1.
</event>
<event>
 7    1  0.2556591E-009  0.8745354E+02  0.7561462E-02  0.1309138E+00
         -1   -1    0    0    0  501 -0.00000000000E+00  0.00000000000E+00  0.36056384173E+02  0.36056384173E+02  0.00000000000E+00 0.  1.
          1   -1    0    0  501    0  0.00000000000E+00 -0.00000000000E+00 -0.58852287947E+03  0.58852287947E+03  0.00000000000E+00 0. -1.
         25    2    1    2    0    0 -0.37462628827E+01 -0.29463013926E+02 -0.50432863674E+03  0.52045856368E+03  0.12509052320E+03 0.  0.
          5    1    3    3  502    0 -0.48789745557E+02 -0.32099136553E+02 -0.42569598973E+03  0.42970378392E+03  0.41800000000E+01 0.  1.
         -5    1    3    3    0  502  0.45043482674E+02  0.26361226267E+01 -0.78632647013E+02  0.90754779765E+02  0.41800000000E+01 0.  1.
        -11    1    1    2    0    0  0.34126405072E+02  0.17897219775E+02  0.79005563995E+01  0.39336252875E+02  0.00000000000E+00 0.  1.
         11    1    1    2    0    0 -0.30380142189E+02  0.11565794151E+02 -0.56038414948E+02  0.64784447081E+02  0.00000000000E+00 0. -1.
</event>
<event>
 7    1  0.2556591E-009  0.9452990E+02  0.7561462E-02  0.1292238E+00
          2   -1    0    0  501    0  0.00000000000E+00  0.00000000000E+00  0.42076318268E+03  0.42076318268E+03  0.00000000000E+00 0.  1.
         -2   -1    0    0    0  501 -0.00000000000E+00 -0.00000000000E+00 -0.28548911277E+02  0.28548911277E+02  0.00000000000E+00 0. -1.
         25    2    1    2    0    0  0.22885129395E+01  0.13112621664E+01  0.19043711392E+03  0.22786156075E+03  0.12509052644E+03 0.  0.
          5    1    3    3  502    0 -0.33992619744E+02 -0.40512468956E+02  0.36975531993E+02  0.64663905729E+02  0.41800000000E+01 0.  1.
         -5    1    3    3    0  502  0.36281132684E+02  0.41823731123E+02  0.15346158193E+03  0.16319765502E+03  0.41800000000E+01 0.  1.
        -11    1    1    2    0    0  0.31038114035E+02  0.23505277702E+02  0.15048415032E+03  0.15543919100E+03  0.00000000000E+00 0.  1.
         11    1    1    2    0    0 -0.33326626975E+02 -0.24816539869E+02  0.51293007162E+02  0.66011342209E+02  0.00000000000E+00 0. -1.
</event>
<event>
 7    1  0.2556591E-009  0.1772387E+03  0.7561462E-02  0.1170502E+00
         -2   -1    0    0    0  501 -0.00000000000E+00  0.00000000000E+00  0.26288818858E+02  0.26288818858E+02  0.00000000000E+00 0.  1.
          2   -1    0    0  501    0  0.00000000000E+00 -0.00000000000E+00 -0.12429199114E+04  0.12429199114E+04  0.00000000000E+00 0. -1.
         25    2    1    2    0    0 -0.13870532135E+03  0.38650393498E+02 -0.66199157156E+03  0.68892255620E+03  0.12509367908E+03 0.  0.
          5    1    3    3  502    0 -0.28281194113E+01 -0.35151750914E+02 -0.10448663405E+03  0.11035657184E+03  0.41800000000E+01 0. -1.
         -5    1    3    3    0  502 -0.13587720194E+03  0.73802144412E+02 -0.55750493751E+03  0.57856598437E+03  0.41800000000E+01 0. -1.
        -11    1    1    2    0    0  0.21349199030E+02 -0.41742654046E+02 -0.23823027087E+03  0.24280012237E+03  0.00000000000E+00 0. -1.
         11    1    1    2    0    0  0.11735612232E+03  0.30922605481E+01 -0.31640925012E+03  0.33748605169E+03  0.00000000000E+00 0.  1.
</event>
<event>
 7    1  0.2556591E-009  0.7096802E+02  0.7561462E-02  0.1356832E+00
          1   -1    0    0  501    0  0.00000000000E+00  0.00000000000E+00  0.87923172477E+02  0.87923172477E+02  0.00000000000E+00 0. -1.
         -1   -1    0    0    0  501 -0.00000000000E+00 -0.00000000000E+00 -0.13974574579E+03  0.13974574579E+03  0.00000000000E+00 0.  1.
         25    2    1    2    0    0  0.13899866596E+02 -0.24207138467E+02 -0.17379379139E+02  0.12934221651E+03  0.12509266288E+03 0.  0.
          5    1    3    3  502    0  0.71449164536E+00 -0.54409193931E+02  0.36777007261E+02  0.65809509538E+02  0.41800000000E+01 0.  1.
         -5    1    3    3    0  502  0.13185374951E+02  0.30202055465E+02 -0.54156386400E+02  0.63532706969E+02  0.41800000000E+01 0.  1.
        -11    1    1    2    0    0 -0.30545066867E+02  0.96580924817E+01 -0.57851408487E+02  0.66129156385E+02  0.00000000000E+00 0.  1.
         11    1    1    2    0    0  0.16645200271E+02  0.14549045985E+02  0.23408214310E+02  0.32197545377E+02  0.00000000000E+00 0. -1.
</event>
<event>
 7    1  0.2556591E-009  0.1192909E+03  0.7561462E-02  0.1244271E+00
         -1   -1    0    0    0  501 -0.00000000000E+00  0.00000000000E+00  0.17656286477E+02  0.17656286477E+02  0.00000000000E+00 0.  1.
          1   -1    0    0  501    0  0.00000000000E+00 -0.00000000000E+00 -0.92691302486E+03  0.92691302486E+03  0.00000000000E+00 0. -1.
         25    2    1    2    0    0  0.36243116418E+02  0.56044887977E+02 -0.46113992768E+03  0.48244356512E+03  0.12508863926E+03 0.  0.
          5    1    3    3  502    0  0.56801072048E+02  0.78170619734E+02 -0.23302063469E+03  0.25229565230E+03  0.41800000000E+01 0. -1.
         -5    1    3    3    0  502 -0.20557955630E+02 -0.22125731757E+02 -0.22811929299E+03  0.23014791283E+03  0.41800000000E+01 0. -1.
        -11    1    1    2    0    0  0.29866671642E+02 -0.21344574903E+02 -0.18571294928E+03  0.18930638786E+03  0.00000000000E+00 0. -1.
         11    1    1    2    0    0 -0.66109788060E+02 -0.34700313074E+02 -0.26240386142E+03  0.27281935836E+03  0.00000000000E+00 0.  1.
</event>
<event>
 7    1  0.2556591E-009  0.1546906E+03  0.7561462E-02  0.1194825E+00
          2   -1    0    0  501    0  0.00000000000E+00  0.00000000000E+00  0.82130490206E+03  0.82130490206E+03  0.00000000000E+00 0. -1.
         -2   -1    0    0    0  501 -0.00000000000E+00 -0.00000000000E+00 -0.48190029923E+02  0.48190029923E+02  0.00000000000E+00 0.  1.
         25    2    1    2    0    0  0.60708351276E+02 -0.11247208587E+03  0.17001386332E+03  0.24675386571E+03  0.12508909828E+03 0.  0.
          5    1    3    3  502    0 -0.33465330509E+02 -0.57851317070E+02  0.86981381402E+02  0.10977220205E+03  0.41800000000E+01 0.  1.
         -5    1    3    3    0  502  0.94173681785E+02 -0.54620768804E+02  0.83032481916E+02  0.13698166366E+03  0.41800000000E+01 0.  1.
        -11    1    1    2    0    0  0.46737227782E+01  0.17878796515E+02  0.15874173012E+02  0.24361535630E+02  0.00000000000E+00 0.  1.
         11    1    1    2    0    0 -0.65382074054E+02  0.94593289359E+02  0.58722683581E+03  0.59837953064E+03  0.00000000000E+00 0. -1.
</event>
<event>
 7    1  0.2556591E-009  0.1001365E+03  0.7561462E-02  0.1280009E+00
          2   -1    0    0  501    0  0.00000000000E+00  0.00000000000E+00  0.39871575167E+03  0.39871575167E+03  0.00000000000E+00 0.  1.
         -2   -1    0    0    0  501 -0.00000000000E+00 -0.00000000000E+00 -0.44222211783E+02  0.44222211783E+02  0.00000000000E+00 0. -1.
         25    2    1    2    0    0 -0.43520675496E+01 -0.18944104238E+02  0.71458415453E+02  0.14537121450E+03  0.12509462534E+03 0.  0.
          5    1    3    3  502    0 -0.54757189144E+02  0.81331497451E+01  0.23667056495E+01  0.55565921061E+02  0.41800000000E+01 0.  1.
         -5    1    3    3    0  502  0.50405121594E+02 -0.27077253984E+02  0.69091709804E+02  0.89805293440E+02  0.41800000000E+01 0.  1.
        -11    1    1    2    0    0 -0.28737901554E+02 -0.20944429977E+02  0.72568696163E+02  0.80813066985E+02  0.00000000000E+00 0.  1.
         11    1    1    2    0    0  0.33089969103E+02  0.39888534215E+02  0.21046642827E+03  0.21675368196E+03  0.00000000000E+00 0. -1.
</event>
<event>
 7    1  0.2556591E-009  0.1751039E+03  0.7561462E-02  0.1172627E+00
         -2   -1    0    0    0  501 -0.00000000000E+00  0.00000000000E+00  0.57689031838E+02  0.57689031838E+02  0.00000000000E+00 0.  1.
          2   -1    0    0  501    0  0.00000000000E+00 -0.00000000000E+00 -0.62109139741E+03  0.62109139741E+03  0.00000000000E+00 0. -1.
         25    2    1    2    0    0  0.27019152947E+02 -0.14835847572E+03 -0.23617450728E+03  0.30686390962E+03  0.12508712640E+03 0.  0.
          5    1    3    3  502    0 -0.28109402862E+02 -0.13574134749E+03 -0.17763947606E+03  0.22536438894E+03  0.41800000000E+01 0. -1.
         -5    1    3    3    0  502  0.55128555809E+02 -0.12617128231E+02 -0.58535031223E+02  0.81499520678E+02  0.41800000000E+01 0. -1.
        -11    1    1    2    0    0  0.46464090503E+01  0.72020946256E+02 -0.24470394930E+03  0.25512473149E+03  0.00000000000E+00 0. -1.
         11    1    1    2    0    0 -0.31665561997E+02  0.76337529464E+02 -0.82523908992E+02  0.11679178814E+03  0.00000000000E+00 0.  1.
</event>
<event>
 7    1  0.2556591E-009  0.2784553E+03  0.7561462E-02  0.1096536E+00
         -2   -1    0    0    0  501 -0.00000000000E+00  0.00000000000E+00  0.91843853142E+02  0.91843853142E+02  0.00000000000E+00 0.  1.
          2   -1    0    0  501    0  0.00000000000E+00 -0.00000000000E+00 -0.89565529802E+03  0.89565529802E+03  0.00000000000E+00 0. -1.
         25    2    1    2    0    0  0.18093869753E+03  0.18186017977E+03 -0.29460485534E+03  0.41018349530E+03  0.12508613743E+03 0.  0.
          5    1    3    3  502    0  0.22231309111E+02 -0.18886959142E+02 -0.30081319695E+02  0.42110646219E+02  0.41800000000E+01 0. -1.
         -5    1    3    3    0  502  0.15870738842E+03  0.20074713891E+03 -0.26452353565E+03  0.36807284908E+03  0.41800000000E+01 0. -1.
        -11    1    1    2    0    0 -0.46412393040E+02 -0.10909584820E+03 -0.24036033904E+03  0.26800952764E+03  0.00000000000E+00 0.  1.
         11    1    1    2    0    0 -0.13452630449E+03 -0.72764331566E+02 -0.26884625050E+03  0.30930612822E+03  0.00000000000E+00 0. -1.
</event>
<event>
 7    1  0.2556591E-009  0.1562700E+03  0.7561462E-02  0.1192973E+00
          2   -1    0    0  501    0  0.00000000000E+00  0.00000000000E+00  0.12640804845E+04  0.12640804845E+04  0.00000000000E+00 0.  1.
         -2   -1    0    0    0  501 -0.00000000000E+00 -0.00000000000E+00 -0.23907003675E+02  0.23907003675E+02  0.00000000000E+00 0. -1.
         25    2    1    2    0    0 -0.10179941554E+03 -0.78574373757E+02  0.84377401365E+03  0.86263488746E+03  0.12508920711E+03 0.  0.
          5    1    3    3  502    0 -0.26855736221E+02  0.27659755723E+02  0.94385111297E+02  0.10204074818E+03  0.41800000000E+01 0.  1.
         -5    1    3    3    0  502 -0.74943679318E+02 -0.10623412948E+03  0.74938890236E+03  0.76059413928E+03  0.41800000000E+01 0.  1.
        -11    1    1    2    0    0  0.31331533720E+02  0.64668650726E+02  0.12089356983E+03  0.14063767141E+03  0.00000000000E+00 0. -1.
         11    1    1    2    0    0  0.70467881818E+02  0.13905723031E+02  0.27550589735E+03  0.28471492932E+03  0.00000000000E+00 0.  1.
</event>
<event>
 7    1  0.2556591E-009  0.1121582E+03  0.7561462E-02  0.1256625E+00
         -2   -1    0    0    0  501 -0.00000000000E+00  0.00000000000E+00  0.19813795088E+03  0.19813795088E+03  0.00000000000E+00 0.  1.
          2   -1    0    0  501    0  0.00000000000E+00 -0.00000000000E+00 -0.96740096998E+02  0.96740096998E+02  0.00000000000E+00 0. -1.
         25    2    1    2    0    0 -0.45457083443E+02 -0.32123180883E+02 -0.13944418672E+02  0.13762528031E+03  0.12509206923E+03 0.  0.
          5    1    3    3  502    0  0.12161114233E+01  0.40901436919E+02  0.18354647200E+02  0.45041890978E+02  0.41800000000E+01 0. -1.
         -5    1    3    3    0  502 -0.46673194867E+02 -0.73024617802E+02 -0.32299065872E+02  0.92583389333E+02  0.41800000000E+01 0. -1.
        -11    1    1    2    0    0 -0.15308288952E+02  0.32198041254E+02  0.78434295832E+02  0.86156812464E+02  0.00000000000E+00 0.  1.
         11    1    1    2    0    0  0.60765372395E+02 -0.74860371260E-01  0.36907976723E+02  0.71095955104E+02  0.00000000000E+00 0. -1.
</event>
<event>
 7    1  0.2556591E-009  0.1008987E+03  0.7561462E-02  0.1278417E+00
         -1   -1    0    0    0  501 -0.00000000000E+00  0.00000000000E+00  0.88034601213E+02  0.88034601213E+02  0.00000000000E+00 0.  1.
          1   -1    0    0  501    0  0.00000000000E+00 -0.00000000000E+00 -0.15583367890E+03  0.15583367890E+03  0.00000000000E+00 0. -1.
         25    2    1    2    0    0 -0.34601600712E+02  0.10287439338E+02 -0.28742147962E+02  0.13333110699E+03  0.12509184962E+03 0.  0.
          5    1    3    3  502    0 -0.30029228520E+02 -0.43807976649E+02  0.23174072452E+02  0.58098222155E+02  0.41800000000E+01 0.  1.
         -5    1    3    3    0  502 -0.45723721920E+01  0.54095415987E+02 -0.51916220414E+02  0.75232884833E+02  0.41800000000E+01 0.  1.
        -11    1    1    2    0    0 -0.28841056556E+02  0.37824408629E+01 -0.34882439458E+02  0.45419136768E+02  0.00000000000E+00 0.  1.
         11    1    1    2    0    0  0.63442657268E+02 -0.14069880200E+02 -0.41744902666E+01  0.65118036358E+02  0.00000000000E+00 0. -1.
</event>
<event>
 7    1  0.2556591E-009  0.9554359E+02  0.7561462E-02  0.1289956E+00
          1   -1    0    0  501    0  0.00000000000E+00  0.00000000000E+00  0.11308322125E+03  0.11308322125E+03  0.00000000000E+00 0. -1.
         -1   -1    0    0    0  501 -0.00000000000E+00 -0.00000000000E+00 -0.16930657998E+03  0.16930657998E+03  0.00000000000E+00 0.  1.
         25    2    1    2    0    0  0.26104394016E+02  0.65120844946E+02 -0.82944236215E+02  0.16567570016E+03  0.12508608024E+03 0.  0.
          5    1    3    3  502    0  0.42664578788E+02  0.84634092384E+02 -0.19113080969E+02  0.96777983761E+02  0.41800000000E+01 0. -1.
         -5    1    3    3    0  502 -0.16560184772E+02 -0.19513247438E+02 -0.63831155246E+02  0.68897716401E+02  0.41800000000E+01 0. -1.
        -11    1    1    2    0    0 -0.86087567282E+01 -0.16508930622E+02  0.54825087862E+02  0.57900308650E+02  0.00000000000E+00 0. -1.
         11    1    1    2    0    0 -0.17495637287E+02 -0.48611914324E+02 -0.28104210379E+02  0.58813792425E+02  0.00000000000E+00 0.  1.
</event>
<event>
 7    1  0.2556591E-009  0.1316137E+03  0.7561462E-02  0.1225081E+00
          1   -1    0    0  501    0  0.00000000000E+00  0.00000000000E+00  0.67777456883E+02  0.67777456883E+02  0.00000000000E+00 0. -1.
         -1   -1    0    0    0  501 -0.00000000000E+00 -0.00000000000E+00 -0.34687100621E+03  0.34687100621E+03  0.00000000000E+00 0.  1.
         25    2    1    2    0    0  0.25022420320E+01 -0.98201866203E+02 -0.10104707413E+03  0.18843563958E+03  0.12509041264E+03 0.  0.
          5    1    3    3  502    0  0.31456159021E+02 -0.10867526858E+03 -0.10814258782E+03  0.15656339176E+03  0.41800000000E+01 0.  1.
         -5    1    3    3    0  502 -0.28953916989E+02  0.10473402375E+02  0.70955136916E+01  0.31872247816E+02  0.41800000000E+01 0.  1.
        -11    1    1    2    0    0 -0.31587219344E+02  0.25360206068E+02 -0.11479551144E+02  0.42103118319E+02  0.00000000000E+00 0. -1.
         11    1    1    2    0    0  0.29084977312E+02  0.72841660136E+02 -0.16656692405E+03  0.18410970519E+03  0.00000000000E+00 0.  1.
</event>
<event>
 7    1  0.2556591E-009  0.1092202E+03  0.7561462E-02  0.1262021E+00
         -1   -1    0    0    0  501 -0.00000000000E+00  0.00000000000E+00  0.26081515703E+02  0.26081515703E+02  0.00000000000E+00 0.  1.
          1   -1    0    0  501    0  0.00000000000E+00 -0.00000000000E+00 -0.47452100885E+03  0.47452100885E+03  0.00000000000E+00 0. -1.
         25    2    1    2    0    0  0.20616345152E+02 -0.23861996047E+02 -0.25805757347E+03  0.28850597494E+03  0.12509019869E+03 0.  0.
          5    1    3    3  502    0  0.72776244299E+02 -0.23643701084E+02 -0.14973797814E+03  0.16820921744E+03  0.41800000000E+01 0.  1.
         -5    1    3    3    0  502 -0.52159899147E+02 -0.21829496338E+00 -0.10831959533E+03  0.12029675749E+03  0.41800000000E+01 0.  1.
        -11    1    1    2    0    0 -0.23007427304E+02 -0.28743929144E+02 -0.49476481553E+02  0.61672339024E+02  0.00000000000E+00 0.  1.
         11    1    1    2    0    0  0.23910821518E+01  0.52605925191E+02 -0.14090543813E+03  0.15042421059E+03  0.00000000000E+00 0. -1.
</event>
<event>
 7    1  0.2556591E-009  0.1343853E+03  0.7561462E-02  0.1221090E+00
          2   -1    0    0  501    0  0.00000000000E+00  0.00000000000E+00  0.68883786914E+03  0.68883786914E+03  0.00000000000E+00 0. -1.
         -2   -1    0    0    0  501 -0.00000000000E+00 -0.00000000000E+00 -0.29356663483E+02  0.29356663483E+02  0.00000000000E+00 0.  1.
         25    2    1    2    0    0  0.27436107797E+02  0.68985199149E+02  0.34585763590E+03  0.37520185927E+03  0.12508890111E+03 0.  0.
          5    1    3    3  502    0  0.49824124686E+02 -0.17560659163E+02  0.16696758598E+03  0.17517553288E+03  0.41800000000E+01 0.  1.
         -5    1    3    3    0  502 -0.22388016889E+02  0.86545858312E+02  0.17889004992E+03  0.20002632640E+03  0.41800000000E+01 0.  1.
        -11    1    1    2    0    0 -0.66263238913E+02 -0.36440393249E+02  0.25261383289E+03  0.26369009776E+03  0.00000000000E+00 0. -1.
         11    1    1    2    0    0  0.38827131116E+02 -0.32544805900E+02  0.61009736866E+02  0.79302575584E+02  0.00000000000E+00 0.  1.
</event>
<event>
 7    1  0.2556591E-009  0.1695455E+03  0.7561462E-02  0.1178323E+00
          1   -1    0    0  501    0  0.00000000000E+00  0.00000000000E+00  0.55611668113E+03  0.55611668113E+03  0.00000000000E+00 0. -1.
         -1   -1    0    0    0  501 -0.00000000000E+00 -0.00000000000E+00 -0.11152640685E+03  0.11152640685E+03  0.00000000000E+00 0.  1.
         25    2    1    2    0    0 -0.33535490604E+02 -0.15353302260E+03  0.44019859449E+03  0.48385752699E+03  0.12508511374E+03 0.  0.
          5    1    3    3  502    0 -0.58207500935E+02 -0.54789122323E+02  0.96483827547E+02  0.12536571488E+03  0.41800000000E+01 0. -1.
         -5    1    3    3    0  502  0.24672010330E+02 -0.98743900273E+02  0.34371476694E+03  0.35849181211E+03  0.41800000000E+01 0. -1.
        -11    1    1    2    0    0  0.86265128898E+01  0.33884605010E+02 -0.40574684652E+02  0.53562003472E+02  0.00000000000E+00 0.  1.
         11    1    1    2    0    0  0.24908977715E+02  0.11964841759E+03  0.44966364438E+02  0.13022355752E+03  0.00000000000E+00 0. -1.
</event>
<event>
 7    1  0.2556591E-009  0.8143311E+02  0.7561462E-02  0.1325033E+00
          3   -1    0    0  501    0  0.00000000000E+00  0.00000000000E+00  0.10173239679E+03  0.10173239679E+03  0.00000000000E+00 0. -1.
         -3   -1    0    0    0  501 -0.00000000000E+00 -0.00000000000E+00 -0.15021217812E+03  0.15021217812E+03  0.00000000000E+00 0.  1.
         25    2    1    2    0    0 -0.38382032979E+02  0.47815155307E+02 -0.44785632844E+02  0.14633024258E+03  0.12508923795E+03 0.  0.
          5    1    3    3  502    0 -0.48803887338E+02  0.31248974147E+02 -0.84098081234E+02  0.10221681599E+03  0.41800000000E+01 0. -1.
         -5    1    3    3    0  502  0.10421854359E+02  0.16566181160E+02  0.39312448390E+02  0.44113426583E+02  0.41800000000E+01 0. -1.
        -11    1    1    2    0    0  0.50089443309E+02 -0.52111077303E+02  0.23246749310E+02  0.75927123363E+02  0.00000000000E+00 0. -1.
         11    1    1    2    0    0 -0.11707410330E+02  0.42959219956E+01 -0.26940897795E+02  0.29687208970E+02  0.00000000000E+00 0.  1.
</event>
<event>
 7    1  0.4227001E-009  0.1377226E+03  0.7561462E-02  0.1216427E+00
         -2   -1    0    0    0  501 -0.00000000000E+00  0.00000000000E+00  0.16682447443E+02  0.16682447443E+02  0.00000000000E+00 0.  1.
          2   -1    0    0  501    0  0.00000000000E+00 -0.00000000000E+00 -0.13333053444E+04  0.13333053444E+04  0.00000000000E+00 0. -1.
         25    2    1    2    0    0 -0.84356735346E+02  0.79702082821E+01 -0.96885590901E+03  0.98056548001E+03  0.12508918880E+03 0.  0.
          5    1    3    3  502    0 -0.17242711659E+02 -0.55585491541E+02 -0.40023789703E+03  0.40446866948E+03  0.41800000000E+01 0. -1.
         -5    1    3    3    0  502 -0.67114023687E+02  0.63555699823E+02 -0.56861801198E+03  0.57609681053E+03  0.41800000000E+01 0. -1.
        -11    1    1    2    0    0  0.18900126262E+02 -0.45393709287E+02 -0.14255023293E+03  0.15079248166E+03  0.00000000000E+00 0. -1.
         11    1    1    2    0    0  0.65456609084E+02  0.37423501005E+02 -0.20521675498E+03  0.21862983013E+03  0.00000000000E+00 0.  1.
</event>
<event>
 7    1  0.2556591E-009  0.1919360E+03  0.7561462E-02  0.1156727E+00
         -1   -1    0    0    0  501 -0.00000000000E+00  0.00000000000E+00  0.72332197374E+02  0.72332197374E+02  0.00000000000E+00 0.  1.
          1   -1    0    0  501    0  0.00000000000E+00 -0.00000000000E+00 -0.55275795281E+03  0.55275795281E+03  0.00000000000E+00 0. -1.
         25    2    1    2    0    0 -0.87905245428E+02  0.13821312456E+03 -0.18755719337E+03  0.27866644009E+03  0.12508830511E+03 0.  0.
          5    1    3    3  502    0 -0.10655523432E+03  0.57174751294E+02 -0.92529211915E+02  0.15232234768E+03  0.41800000000E+01 0.  1.
         -5    1    3    3    0  502  0.18649988890E+02  0.81038373264E+02 -0.95027981455E+02  0.12634409241E+03  0.41800000000E+01 0.  1.
        -11    1    1    2    0    0  0.16638617206E+02 -0.94617050140E+02 -0.19758047279E+03  0.21969814061E+03  0.00000000000E+00 0. -1.
         11    1    1    2    0    0  0.71266628222E+02 -0.43596074419E+02 -0.95288089281E+02  0.12672556949E+03  0.00000000000E+00 0.  1.
</event>
<event>
 7    1  0.2556591E-009  0.3115306E+02  0.7561462E-02  0.1585682E+00
         -1   -1    0    0    0  501 -0.00000000000E+00  0.00000000000E+00  0.84460102582E+03  0.84460102582E+03  0.00000000000E+00 0.  1.
          1   -1    0    0  501    0  0.00000000000E+00 -0.00000000000E+00 -0.34495136983E+02  0.34495136983E+02  0.00000000000E+00 0. -1.
         25    2    1    2    0    0 -0.26698877113E+02  0.68546412550E+01  0.75939813676E+03  0.77012572483E+03  0.12509310843E+03 0.  0.
          5    1    3    3  502    0 -0.12984980895E+02  0.46669474356E+01  0.75476242859E+03  0.75490011666E+03  0.41800000000E+01 0.  1.
         -5    1    3    3    0  502 -0.13713896218E+02  0.21876938194E+01  0.46357081735E+01  0.15225608165E+02  0.41800000000E+01 0.  1.
        -11    1    1    2    0    0  0.13099198519E+02  0.62375895554E+01  0.76021099371E+02  0.77393178478E+02  0.00000000000E+00 0.  1.
         11    1    1    2    0    0  0.13599678594E+02 -0.13092230810E+02 -0.25313347302E+02  0.31577259493E+02  0.00000000000E+00 0. -1.
</event>
<event>
 7    1  0.2556591E-009  0.1305343E+03  0.7561462E-02  0.1226665E+00
         -1   -1    0    0    0  501 -0.00000000000E+00  0.00000000000E+00  0.51237568558E+02  0.51237568558E+02  0.00000000000E+00 0.  1.
          1   -1    0    0  501    0  0.00000000000E+00 -0.00000000000E+00 -0.49445904190E+03  0.49445904190E+03  0.00000000000E+00 0. -1.
         25    2    1    2    0    0 -0.27290658286E+02  0.83684545109E+02 -0.35969843252E+03  0.39086641802E+03  0.12508281759E+03 0.  0.
          5    1    3    3  502    0 -0.59381200910E+02  0.94644815491E+02 -0.21672043683E+03  0.24386264220E+03  0.41800000000E+01 0.  1.
         -5    1    3    3    0  502  0.32090542624E+02 -0.10960270382E+02 -0.14297799569E+03  0.14700377582E+03  0.41800000000E+01 0.  1.
        -11    1    1    2    0    0  0.52365469104E+02 -0.45282523321E+02 -0.84143767181E+02  0.10896248358E+03  0.00000000000E+00 0. -1.
         11    1    1    2    0    0 -0.25074810818E+02 -0.38402021789E+02  0.62072635766E+00  0.45867708862E+02  0.00000000000E+00 0.  1.
</event>
<event>
 7    1  0.2556591E-009  0.1634217E+03  0.7561462E-02  0.1184887E+00
          3   -1    0    0  501    0  0.00000000000E+00  0.00000000000E+00  0.31815968993E+03  0.31815968993E+03  0.00000000000E+00 0. -1.
         -3   -1    0    0    0  501 -0.00000000000E+00 -0.00000000000E+00 -0.12527336948E+03  0.12527336948E+03  0.00000000000E+00 0.  1.
         25    2    1    2    0    0 -0.11321260780E+03  0.87432517335E+02  0.19691020062E+03  0.27364693527E+03  0.12508988136E+03 0.  0.
          5    1    3    3  502    0 -0.51064855700E+02 -0.23652102997E+02  0.30661573649E+02  0.64223406656E+02  0.41800000000E+01 0. -1.
         -5    1    3    3    0  502 -0.62147752101E+02  0.11108462033E+03  0.16624862697E+03  0.20942352861E+03  0.41800000000E+01 0. -1.
        -11    1    1    2    0    0  0.36907740069E+02 -0.27416038842E+02 -0.45073040472E+02  0.64384776463E+02  0.00000000000E+00 0.  1.
         11    1    1    2    0    0  0.76304867732E+02 -0.60016478493E+02  0.41049160303E+02  0.10540134768E+03  0.00000000000E+00 0. -1.
</event>
<event>
 7    1  0.2556591E-009  0.9077272E+02  0.7561462E-02  0.1300991E+00
          1   -1    0    0  501    0  0.00000000000E+00  0.00000000000E+00  0.31457078791E+03  0.31457078791E+03  0.00000000000E+00 0. -1.
         -1   -1    0    0    0  501 -0.00000000000E+00 -0.00000000000E+00 -0.53577994898E+02  0.53577994898E+02  0.00000000000E+00 0.  1.
         25    2    1    2    0    0  0.48825294092E+02  0.27686306113E+02  0.19943720144E+03  0.24201970341E+03  0.12509156099E+03 0.  0.
          5    1    3    3  502    0 -0.45590857429E+00 -0.40593906826E+02  0.11776980066E+03  0.12464056913E+03  0.41800000000E+01 0. -1.
         -5    1    3    3    0  502  0.49281202666E+02  0.68280212938E+02  0.81667400777E+02  0.11737913428E+03  0.41800000000E+01 0. -1.
        -11    1    1    2    0    0 -0.37470519127E+02 -0.18345298136E+02 -0.17846472050E+02  0.45377156499E+02  0.00000000000E+00 0.  1.
         11    1    1    2    0    0 -0.11354774965E+02 -0.93410079773E+01  0.79402063623E+02  0.80751922901E+02  0.00000000000E+00 0. -1.
</event>
<event>
 7    1  0.2556591E-009  0.1663368E+03  0.7561462E-02  0.1181723E+00
          1   -1    0    0  501    0  0.00000000000E+00  0.00000000000E+00  0.38972413809E+03  0.38972413809E+03  0.00000000000E+00 0. -1.
         -1   -1    0    0    0  501 -0.00000000000E+00 -0.00000000000E+00 -0.15675258356E+03  0.15675258356E+03  0.00000000000E+00 0.  1.
         25    2    1    2    0    0  0.11507359092E+03  0.10311677451E+03  0.29707932094E+03  0.35746187129E+03  0.12509143050E+03 0.  0.
          5    1    3    3  502    0  0.12746070466E+03  0.92359591416E+02  0.17994882926E+03  0.23911415456E+03  0.41800000000E+01 0. -1.
         -5    1    3    3    0  502 -0.12387113743E+02  0.10757183098E+02  0.11713049167E+03  0.11834771673E+03  0.41800000000E+01 0. -1.
        -11    1    1    2    0    0 -0.99689725909E+02 -0.70134798965E+02 -0.83529269158E+02  0.14776356210E+03  0.00000000000E+00 0.  1.
         11    1    1    2    0    0 -0.15383865007E+02 -0.32981975549E+02  0.19421502752E+02  0.41251288256E+02  0.00000000000E+00 0. -1.
</event>
<event>
 7    1  0.2556591E-009  0.9547202E+02  0.7561462E-02  0.1290117E+00
         -2   -1    0    0    0  501 -0.00000000000E+00  0.00000000000E+00  0.74978151268E+02  0.74978151268E+02  0.00000000000E+00 0.  1.
          2   -1    0    0  501    0  0.00000000000E+00 -0.00000000000E+00 -0.28650141856E+03  0.28650141856E+03  0.00000000000E+00 0. -1.
         25    2    1    2    0    0  0.70176084586E+02 -0.47690143889E+02 -0.55920202567E+02  0.16116084375E+03  0.12508683317E+03 0.  0.
          5    1    3    3  502    0  0.21398185139E+01 -0.34355539178E+02 -0.80366365755E+02  0.87527750115E+02  0.41800000000E+01 0. -1.
         -5    1    3    3    0  502  0.68036266072E+02 -0.13334604711E+02  0.24446163187E+02  0.73633093636E+02  0.41800000000E+01 0. -1.
        -11    1    1    2    0    0 -0.29073831775E+02  0.91813254104E+01  0.42956349222E+01  0.30790208017E+02  0.00000000000E+00 0.  1.
         11    1    1    2    0    0 -0.41102252811E+02  0.38508818479E+02 -0.15989869965E+03  0.16952851806E+03  0.00000000000E+00 0. -1.
</event>
<event>
 7    1  0.2556591E-009  0.1309178E+03  0.7561462E-02  0.1226100E+00
         -2   -1    0    0    0  501 -0.00000000000E+00  0.00000000000E+00  0.54235429803E+02  0.54235429803E+02  0.00000000000E+00 0.  1.
          2   -1    0    0  501    0  0.00000000000E+00 -0.00000000000E+00 -0.47021281355E+03  0.47021281355E+03  0.00000000000E+00 0. -1.
         25    2    1    2    0    0 -0.41317429476E+02 -0.10021039597E+03 -0.14143818940E+03  0.21771962649E+03  0.12509125029E+03 0.  0.
          5    1    3    3  502    0  0.16603853451E+02 -0.20360154297E+02 -0.11137806901E+03  0.11451100598E+03  0.41800000000E+01 0.  1.
         -5    1    3    3    0  502 -0.57921282927E+02 -0.79850241674E+02 -0.30060120388E+02  0.10320862052E+03  0.41800000000E+01 0.  1.
        -11    1    1    2    0    0  0.48823902563E+02  0.15167733220E+02 -0.11260345832E+03  0.12366637546E+03  0.00000000000E+00 0.  1.
         11    1    1    2    0    0 -0.75064730873E+01  0.85042662751E+02 -0.16193573602E+03  0.18306224140E+03  0.00000000000E+00 0. -1.
</event>
<event>
 7    1  0.2734899E-009  0.1063254E+03  0.7561462E-02  0.1267530E+00
         -1   -1    0    0    0  501 -0.00000000000E+00  0.00000000000E+00  0.89267303902E+02  0.89267303902E+02  0.00000000000E+00 0.  1.
          1   -1    0    0  501    0  0.00000000000E+00 -0.00000000000E+00 -0.19879533827E+03  0.19879533827E+03  0.00000000000E+00 0. -1.
         25    2    1    2    0    0  0.52851012023E+02 -0.36717630907E+02 -0.14234954269E+02  0.14138990942E+03  0.12508820357E+03 0.  0.
          5    1    3    3  502    0  0.52669554984E+02 -0.62006979946E+02 -0.51339586696E+02  0.96292124010E+02  0.41800000000E+01 0. -1.
         -5    1    3    3    0  502  0.18145703911E+00  0.25289349039E+02  0.37104632427E+02  0.45097785411E+02  0.41800000000E+01 0. -1.
        -11    1    1    2    0    0 -0.65713977451E+02 -0.98036456448E+00 -0.35136559704E+02  0.74524262995E+02  0.00000000000E+00 0. -1.
         11    1    1    2    0    0  0.12862965428E+02  0.37697995472E+02 -0.60156520393E+02  0.72148469755E+02  0.00000000000E+00 0.  1.
</event>
<event>
 7    1  0.2556591E-009  0.1162006E+03  0.7561462E-02  0.1249500E+00
         -2   -1    0    0    0  501 -0.00000000000E+00  0.00000000000E+00  0.12122862107E+03  0.12122862107E+03  0.00000000000E+00 0.  1.
          2   -1    0    0  501    0  0.00000000000E+00 -0.00000000000E+00 -0.14522048876E+03  0.14522048876E+03  0.00000000000E+00 0. -1.
         25    2    1    2    0    0  0.69316764807E+02  0.17034828352E+02  0.16366137483E+02  0.14495375113E+03  0.12509492496E+03 0.  0.
          5    1    3    3  502    0 -0.60294661010E+01 -0.42744085489E+02  0.21780032966E+02  0.48530954470E+02  0.41800000000E+01 0.  1.
         -5    1    3    3    0  502  0.75346230908E+02  0.59778913840E+02 -0.54138954837E+01  0.96422796663E+02  0.41800000000E+01 0.  1.
        -11    1    1    2    0    0  0.63547478403E+01  0.10468830972E+02 -0.39097576391E+02  0.40970717856E+02  0.00000000000E+00 0. -1.
         11    1    1    2    0    0 -0.75671512647E+02 -0.27503659323E+02 -0.12604287840E+01  0.80524640845E+02  0.00000000000E+00 0.  1.
</event>
<event>
 7    1  0.2556591E-009  0.5983098E+02  0.7561462E-02  0.1398542E+00
          2   -1    0    0  501    0  0.00000000000E+00  0.00000000000E+00  0.17279888264E+03  0.17279888264E+03  0.00000000000E+00 0. -1.
         -2   -1    0    0    0  501 -0.00000000000E+00 -0.00000000000E+00 -0.69279955771E+02  0.69279955771E+02  0.00000000000E+00 0.  1.
         25    2    1    2    0    0 -0.39804590779E+02 -0.13893765815E+02  0.33052234653E+02  0.13607716085E+03  0.12508837401E+03 0.  0.
          5    1    3    3  502    0 -0.49676974279E+02 -0.14903754215E+02 -0.37861979484E+02  0.64350023727E+02  0.41800000000E+01 0. -1.
         -5    1    3    3    0  502  0.98723835000E+01  0.10099884005E+01  0.70914214137E+02  0.71727137119E+02  0.41800000000E+01 0. -1.
        -11    1    1    2    0    0  0.31550196024E+02  0.26896936515E+02  0.87241405272E+01  0.42367094436E+02  0.00000000000E+00 0.  1.
         11    1    1    2    0    0  0.82543947552E+01 -0.13003170701E+02  0.61742551687E+02  0.63634583128E+02  0.00000000000E+00 0. -1.
</event>
<event>
 7    1  0.2556591E-009  0.9964088E+02  0.7561462E-02  0.1281053E+00
         -2   -1    0    0    0  501 -0.00000000000E+00  0.00000000000E+00  0.23570311074E+02  0.23570311074E+02  0.00000000000E+00 0.  1.
          2   -1    0    0  501    0  0.00000000000E+00 -0.00000000000E+00 -0.49993271187E+03  0.49993271187E+03  0.00000000000E+00 0. -1.
         25    2    1    2    0    0  0.84933040230E+01 -0.29591023719E+02 -0.31593407712E+03  0.34118868410E+03  0.12509041599E+03 0.  0.
          5    1    3    3  502    0 -0.42998604915E+02 -0.48010702434E+02 -0.23279355010E+03  0.24158687245E+03  0.41800000000E+01 0. -1.
         -5    1    3    3    0  502  0.51491908938E+02  0.18419678715E+02 -0.83140527019E+02  0.99601811646E+02  0.41800000000E+01 0. -1.
        -11    1    1    2    0    0  0.30669776324E+02 -0.15427670919E+00 -0.98904183270E+02  0.10355045364E+03  0.00000000000E+00 0. -1.
         11    1    1    2    0    0 -0.39163080347E+02  0.29745300428E+02 -0.61524140410E+02  0.78763885208E+02  0.00000000000E+00 0.  1.
</event>
<event>
 7    1  0.3015265E-009  0.2175485E+03  0.7561462E-02  0.1135724E+00
          2   -1    0    0  501    0  0.00000000000E+00  0.00000000000E+00  0.15570894870E+04  0.15570894870E+04  0.00000000000E+00 0. -1.
         -2   -1    0    0    0  501 -0.00000000000E+00 -0.00000000000E+00 -0.37746038658E+02  0.37746038658E+02  0.00000000000E+00 0.  1.
         25    2    1    2    0    0  0.47224904155E+02  0.21078961360E+03  0.74546624132E+03  0.78614846349E+03  0.12508811665E+03 0.  0.
          5    1    3    3  502    0  0.25170436257E+02  0.10783762322E+03  0.57623795156E+03  0.58679651760E+03  0.41800000000E+01 0. -1.
         -5    1    3    3    0  502  0.22054467898E+02  0.10295199038E+03  0.16922828975E+03  0.19935194589E+03  0.41800000000E+01 0. -1.
        -11    1    1    2    0    0  0.35036556571E+01 -0.54124531770E+02  0.88443317283E+02  0.10374951043E+03  0.00000000000E+00 0.  1.
         11    1    1    2    0    0 -0.50728559812E+02 -0.15666508183E+03  0.68543388971E+03  0.70493755171E+03  0.00000000000E+00 0. -1.
</event>
<event>
 7    1  0.2556591E-009  0.9653208E+02  0.7561462E-02  0.1287762E+00
         -2   -1    0    0    0  501 -0.00000000000E+00  0.00000000000E+00  0.20796054575E+02  0.20796054575E+02  0.00000000000E+00 0.  1.
          2   -1    0    0  501    0  0.00000000000E+00 -0.00000000000E+00 -0.77680785942E+03  0.77680785942E+03  0.00000000000E+00 0. -1.
         25    2    1    2    0    0  0.36172180257E+02  0.49861555543E+02 -0.33862925520E+03  0.36621268319E+03  0.12508939006E+03 0.  0.
          5    1    3    3  502    0  0.23452720260E+02  0.62875375800E+02 -0.34084218667E+03  0.34741072462E+03  0.41800000000E+01 0.  1.
         -5    1    3    3    0  502  0.12719459998E+02 -0.13013820257E+02  0.22129314665E+01  0.18801958568E+02  0.41800000000E+01 0.  1.
        -11    1    1    2    0    0 -0.35045899859E+02 -0.74584179120E+02 -0.35103917111E+03  0.36058218831E+03  0.00000000000E+00 0. -1.
         11    1    1    2    0    0 -0.11262803982E+01  0.24722623577E+02 -0.66343378530E+02  0.70809042493E+02  0.00000000000E+00 0.  1.
</event>
<event>
 7    1  0.2556591E-009  0.9937379E+02  0.7561462E-02  0.1281618E+00
         -2   -1    0    0    0  501 -0.00000000000E+00  0.00000000000E+00  0.31282686466E+03  0.31282686466E+03  0.00000000000E+00 0.  1.
          2   -1    0    0  501    0  0.00000000000E+00 -0.00000000000E+00 -0.68459054779E+02  0.68459054779E+02  0.00000000000E+00 0. -1.
         25    2    1    2    0    0  0.84246552467E+02 -0.28142674310E+02  0.78750106772E+02  0.17244887745E+03  0.12509014469E+03 0.  0.
          5    1    3    3  502    0  0.46475292689E+02 -0.48048730298E+02  0.10323072959E+03  0.12305563476E+03  0.41800000000E+01 0. -1.
         -5    1    3    3    0  502  0.37771259777E+02  0.19906055988E+02 -0.24480622819E+02  0.49393242693E+02  0.41800000000E+01 0. -1.
        -11    1    1    2    0    0 -0.25153242728E+02  0.70208297865E+01 -0.54015820610E+01  0.26667485059E+02  0.00000000000E+00 0. -1.
         11    1    1    2    0    0 -0.59093309739E+02  0.21121844523E+02  0.17101928517E+03  0.18216955693E+03  0.00000000000E+00 0.  1.
</event>
<event>
 7    1  0.2556591E-009  0.6480107E+02  0.7561462E-02  0.1378721E+00
         -3   -1    0    0    0  501 -0.00000000000E+00  0.00000000000E+00  0.22996151648E+03  0.22996151648E+03  0.00000000000E+00 0.  1.
          3   -1    0    0  501    0  0.00000000000E+00 -0.00000000000E+00 -0.53112313282E+02  0.53112313282E+02  0.00000000000E+00 0. -1.
         25    2    1    2    0    0  0.18969218362E+01 -0.44518988689E+01  0.11677548263E+03  0.17119571643E+03  0.12509213510E+03 0.  0.
          5    1    3    3  502    0 -0.15030073746E+02  0.31724385169E+02 -0.11186358221E+02  0.37080274290E+02  0.41800000000E+01 0.  1.
         -5    1    3    3    0  502  0.16926995582E+02 -0.36176284038E+02  0.12796184085E+03  0.13411544214E+03  0.41800000000E+01 0.  1.
        -11    1    1    2    0    0 -0.27891023307E+02  0.30790081286E+01  0.76237453486E+02  0.81237545422E+02  0.00000000000E+00 0.  1.
         11    1    1    2    0    0  0.25994101471E+02  0.13728907403E+01 -0.16163732915E+02  0.30640567913E+02  0.00000000000E+00 0. -1.
</event>
<event>
 7    1  0.2556591E-009  0.2031299E+03  0.7561462E-02  0.1147125E+00
         -1   -1    0    0    0  501 -0.00000000000E+00  0.00000000000E+00  0.75301575614E+02  0.75301575614E+02  0.00000000000E+00 0.  1.
          1   -1    0    0  501    0  0.00000000000E+00 -0.00000000000E+00 -0.58817896493E+03  0.58817896493E+03  0.00000000000E+00 0. -1.
         25    2    1    2    0    0 -0.16042187822E+03 -0.76793325784E+02 -0.21620336345E+03  0.30663184181E+03  0.12508716222E+03 0.  0.
          5    1    3    3  502    0 -0.80309282071E+02  0.24647759299E+02 -0.57405310007E+02  0.10183287702E+03  0.41800000000E+01 0.  1.
         -5    1    3    3    0  502 -0.80112596144E+02 -0.10144108508E+03 -0.15879805344E+03  0.20479896479E+03  0.41800000000E+01 0.  1.
        -11    1    1    2    0    0  0.44153691784E+02  0.61268904514E+02 -0.77209420738E+02  0.10800334166E+03  0.00000000000E+00 0.  1.
         11    1    1    2    0    0  0.11626818643E+03  0.15524421270E+02 -0.21946460513E+03  0.24884535707E+03  0.00000000000E+00 0. -1.
</event>
<event>
 7    1  0.2556591E-009  0.1221055E+03  0.7561462E-02  0.1239664E+00
          1   -1    0    0  501    0  0.00000000000E+00  0.00000000000E+00  0.43129197751E+03  0.43129197751E+03  0.00000000000E+00 0.  1.
         -1   -1    0    0    0  501 -0.00000000000E+00 -0.00000000000E+00 -0.36990407030E+02  0.36990407030E+02  0.00000000000E+00 0. -1.
         25    2    1    2    0    0 -0.46448340324E+02  0.19595350211E+02  0.15969136285E+03  0.20902254596E+03  0.12509063627E+03 0.  0.
          5    1    3    3  502    0 -0.81560936580E+02  0.43011698579E+02  0.10471145314E+03  0.13958564901E+03  0.41800000000E+01 0. -1.
         -5    1    3    3    0  502  0.35112596256E+02 -0.23416348368E+02  0.54979909714E+02  0.69436896956E+02  0.41800000000E+01 0. -1.
        -11    1    1    2    0    0  0.16343170832E+02 -0.58252113625E+02  0.14529057653E+03  0.15738411483E+03  0.00000000000E+00 0.  1.
         11    1    1    2    0    0  0.30105169492E+02  0.38656763414E+02  0.89319631102E+02  0.10187572374E+03  0.00000000000E+00 0. -1.
</event>
<event>
 7    1  0.2556591E-009  0.1386294E+03  0.7561462E-02  0.1215185E+00
         -4   -1    0    0    0  501 -0.00000000000E+00  0.00000000000E+00  0.24183568739E+03  0.24183568739E+03  0.00000000000E+00 0.  1.
          4   -1    0    0  501    0  0.00000000000E+00 -0.00000000000E+00 -0.10568757604E+03  0.10568757604E+03  0.00000000000E+00 0. -1.
         25    2    1    2    0    0  0.85505657975E+02  0.81174714468E+02  0.71150634380E+02  0.18604029333E+03  0.12509207072E+03 0.  0.
          5    1    3    3  502    0  0.83271651838E+02  0.31820005408E+02 -0.11172810821E+02  0.89938783879E+02  0.41800000000E+01 0. -1.
         -5    1    3    3    0  502  0.22340061369E+01  0.49354709059E+02  0.82323445201E+02  0.96101509455E+02  0.41800000000E+01 0. -1.
        -11    1    1    2    0    0 -0.97797309352E+02 -0.62448498017E+02  0.29864405487E+02  0.11981657371E+03  0.00000000000E+00 0. -1.
         11    1    1    2    0    0  0.12291651376E+02 -0.18726216451E+02  0.35133071483E+02  0.41666396388E+02  0.00000000000E+00 0.  1.
</event>
<event>
 7    1  0.2556591E-009  0.2458494E+03  0.7561462E-02  0.1115956E+00
          2   -1    0    0  501    0  0.00000000000E+00  0.00000000000E+00  0.10085710325E+04  0.10085710325E+04  0.00000000000E+00 0.  1.
         -2   -1    0    0    0  501 -0.00000000000E+00 -0.00000000000E+00 -0.64155490923E+02  0.64155490923E+02  0.00000000000E+00 0. -1.
         25    2    1    2    0    0  0.39510156609E+02  0.22581484432E+03  0.45790712475E+03  0.52714225634E+03  0.12508647862E+03 0.  0.
          5    1    3    3  502    0  0.80302333934E+02  0.97157658661E+02  0.22151857378E+03  0.25490395524E+03  0.41800000000E+01 0.  1.
         -5    1    3    3    0  502 -0.40792177325E+02  0.12865718566E+03  0.23638855097E+03  0.27223830110E+03  0.41800000000E+01 0.  1.
        -11    1    1    2    0    0 -0.18493448418E+02 -0.16830461113E+03  0.43050772187E+03  0.46260712095E+03  0.00000000000E+00 0.  1.
         11    1    1    2    0    0 -0.21016708191E+02 -0.57510233193E+02  0.56000694958E+02  0.82977146136E+02  0.00000000000E+00 0. -1.
</event>
<event>
 7    1  0.2556591E-009  0.1327489E+03  0.7561462E-02  0.1223433E+00
          1   -1    0    0  501    0  0.00000000000E+00  0.00000000000E+00  0.70620226008E+02  0.70620226008E+02  0.00000000000E+00 0. -1.
         -1   -1    0    0    0  501 -0.00000000000E+00 -0.00000000000E+00 -0.35831139639E+03  0.35831139639E+03  0.00000000000E+00 0.  1.
         25    2    1    2    0    0  0.51968137746E+02  0.93257207003E+02 -0.94824739685E+02  0.18983308115E+03  0.12508906205E+03 0.  0.
          5    1    3    3  502    0 -0.37134512173E+02  0.24193478965E+02 -0.34370790767E+01  0.44649550180E+02  0.41800000000E+01 0.  1.
         -5    1    3    3    0  502  0.89102649919E+02  0.69063728038E+02 -0.91387660608E+02  0.14518353097E+03  0.41800000000E+01 0.  1.
        -11    1    1    2    0    0 -0.35324531632E+02 -0.45553257799E+02 -0.17698694470E+03  0.18613785329E+03  0.00000000000E+00 0.  1.
         11    1    1    2    0    0 -0.16643606115E+02 -0.47703949204E+02 -0.15879485996E+02  0.52960687964E+02  0.00000000000E+00 0. -1.
</event>
<event>
 7    1  0.2556591E-009  0.1435626E+03  0.7561462E-02  0.1208614E+00
          1   -1    0    0  501    0  0.00000000000E+00  0.00000000000E+00  0.27628587902E+02  0.27628587902E+02  0.00000000000E+00 0. -1.
         -1   -1    0    0    0  501 -0.00000000000E+00 -0.00000000000E+00 -0.11030352081E+04  0.11030352081E+04  0.00000000000E+00 0.  1.
         25    2    1    2    0    0 -0.13564186519E+03 -0.85362698969E+01 -0.59105368703E+03  0.61924468951E+03  0.12509173054E+03 0.  0.
          5    1    3    3  502    0 -0.21785964837E+02 -0.21867644690E+02 -0.20537179031E+02  0.37310457927E+02  0.41800000000E+01 0.  1.
         -5    1    3    3    0  502 -0.11385590035E+03  0.13331374793E+02 -0.57051650799E+03  0.58193423159E+03  0.41800000000E+01 0.  1.
        -11    1    1    2    0    0  0.51096411062E+02  0.22042627974E+02 -0.76046170611E+02  0.94232376262E+02  0.00000000000E+00 0. -1.
         11    1    1    2    0    0  0.84545454128E+02 -0.13506358077E+02 -0.40830676255E+03  0.41718673021E+03  0.00000000000E+00 0.  1.
</event>
<event>
 7    1  0.2556591E-009  0.1216715E+03  0.7561462E-02  0.1240365E+00
         -3   -1    0    0    0  501 -0.00000000000E+00  0.00000000000E+00  0.33709291085E+02  0.33709291085E+02  0.00000000000E+00 0.  1.
          3   -1    0    0  501    0  0.00000000000E+00 -0.00000000000E+00 -0.65707462373E+03  0.65707462373E+03  0.00000000000E+00 0. -1.
         25    2    1    2    0    0 -0.36025125678E+02 -0.88809164668E+02 -0.25552594431E+03  0.30020949615E+03  0.12508939186E+03 0.  0.
          5    1    3    3  502    0 -0.51781235145E+02 -0.61198891210E+02 -0.55410721275E+02  0.97541893721E+02  0.41800000000E+01 0.  1.
         -5    1    3    3    0  502  0.15756109467E+02 -0.27610273458E+02 -0.20011522303E+03  0.20266760243E+03  0.41800000000E+01 0.  1.
        -11    1    1    2    0    0 -0.64684415118E+01  0.88271149332E+02 -0.26069639591E+03  0.27531118281E+03  0.00000000000E+00 0.  1.
         11    1    1    2    0    0  0.42493567190E+02  0.53801533623E+00 -0.10714299243E+03  0.11526323585E+03  0.00000000000E+00 0. -1.
</event>
<event>
 7    1  0.2556591E-009  0.1481545E+03  0.7561462E-02  0.1202759E+00
         -2   -1    0    0    0  501 -0.00000000000E+00  0.00000000000E+00  0.57414599826E+03  0.57414599826E+03  0.00000000000E+00 0.  1.
          2   -1    0    0  501    0  0.00000000000E+00 -0.00000000000E+00 -0.54127225828E+02  0.54127225828E+02  0.00000000000E+00 0. -1.
         25    2    1    2    0    0 -0.36005337693E+02 -0.10043990632E+03  0.42405098884E+03  0.45480973839E+03  0.12509235735E+03 0.  0.
          5    1    3    3  502    0 -0.28878528711E+02  0.21932355219E+02  0.55876981471E+02  0.66743592084E+02  0.41800000000E+01 0.  1.
         -5    1    3    3    0  502 -0.71268089825E+01 -0.12237226154E+03  0.36817400737E+03  0.38806614630E+03  0.41800000000E+01 0.  1.
        -11    1    1    2    0    0 -0.27566623196E+02  0.45164827015E+02  0.64756935887E+02  0.83625600501E+02  0.00000000000E+00 0. -1.
         11    1    1    2    0    0  0.63571960890E+02  0.55275079302E+02  0.31210847698E+02  0.89837885200E+02  0.00000000000E+00 0.  1.
</event>
<event>
 7    1  0.2556591E-009  0.1219404E+03  0.7561462E-02  0.1239930E+00
         -2   -1    0    0    0  501 -0.00000000000E+00  0.00000000000E+00  0.87321410880E+02  0.87321410880E+02  0.00000000000E+00 0.  1.
          2   -1    0    0  501    0  0.00000000000E+00 -0.00000000000E+00 -0.25370526815E+03  0.25370526815E+03  0.00000000000E+00 0. -1.
         25    2    1    2    0    0 -0.26073242136E+02 -0.61118041115E+02 -0.12829256523E+01  0.14165053417E+03  0.12509196228E+03 0.  0.
          5    1    3    3  502    0  0.33677394944E+02  0.14322358042E+02  0.21521911818E+02  0.42661012159E+02  0.41800000000E+01 0.  1.
         -5    1    3    3    0  502 -0.59750637080E+02 -0.75440399158E+02 -0.22804837471E+02  0.98989522014E+02  0.41800000000E+01 0.  1.
        -11    1    1    2    0    0  0.30309281392E+02  0.83036658293E+02 -0.11989267968E+03  0.14895634864E+03  0.00000000000E+00 0.  1.
         11    1    1    2    0    0 -0.42360392564E+01 -0.21918617177E+02 -0.45208251938E+02  0.50419796220E+02  0.00000000000E+00 0. -1.
</event>
<event>
 7    1  0.2556591E-009  0.9570465E+02  0.7561462E-02  0.1289597E+00
         -2   -1    0    0    0  501 -0.00000000000E+00  0.00000000000E+00  0.67227490382E+02  0.67227490382E+02  0.00000000000E+00 0.  1.
          2   -1    0    0  501    0  0.00000000000E+00 -0.00000000000E+00 -0.54349715804E+03  0.54349715804E+03  0.00000000000E+00 0. -1.
         25    2    1    2    0    0  0.30925724001E+02 -0.79271019131E+02 -0.45971748705E+03  0.48397103890E+03  0.12508998248E+03 0.  0.
          5    1    3    3  502    0  0.34908718085E+02 -0.86568259730E+02 -0.16903624969E+03  0.19314090271E+03  0.41800000000E+01 0. -1.
         -5    1    3    3    0  502 -0.39829940840E+01  0.72972405997E+01 -0.29068123736E+03  0.29083013619E+03  0.41800000000E+01 0. -1.
        -11    1    1    2    0    0 -0.28208783141E+02  0.38089265209E+02 -0.53418164046E+02  0.71414479068E+02  0.00000000000E+00 0. -1.
         11    1    1    2    0    0 -0.27169408603E+01  0.41181753921E+02  0.36865983443E+02  0.55339130449E+02  0.00000000000E+00 0.  1.
</event>
<event>
 7    1  0.2556591E-009  0.1601576E+03  0.7561462E-02  0.1188519E+00
          2   -1    0    0  501    0  0.00000000000E+00  0.00000000000E+00  0.14920439617E+04  0.14920439617E+04  0.00000000000E+00 0.  1.
         -2   -1    0    0    0  501 -0.00000000000E+00 -0.00000000000E+00 -0.29916108080E+02  0.29916108080E+02  0.00000000000E+00 0. -1.
         25    2    1    2    0    0  0.85011337565E+02 -0.10852760705E+03  0.11964918243E+04  0.12108862825E+04  0.12509090534E+03 0.  0.
          5    1    3    3  502    0  0.41081512199E+01  0.15521140634E+02  0.24635506900E+02  0.29701234204E+02  0.41800000000E+01 0. -1.
         -5    1    3    3    0  502  0.80903186345E+02 -0.12404874768E+03  0.11718563174E+04  0.11811850483E+04  0.41800000000E+01 0. -1.
        -11    1    1    2    0    0 -0.85069822207E+02  0.53406019722E+02  0.20984298965E+03  0.23264384346E+03  0.00000000000E+00 0.  1.
         11    1    1    2    0    0  0.58484641934E-01  0.55121587324E+02  0.55793039711E+02  0.78429943834E+02  0.00000000000E+00 0. -1.
</event>
<event>
 7    1  0.2556591E-009  0.1236633E+03  0.7561462E-02  0.1237173E+00
          1   -1    0    0  501    0  0.00000000000E+00  0.00000000000E+00  0.72203932853E+03  0.72203932853E+03  0.00000000000E+00 0. -1.
         -1   -1    0    0    0  501 -0.00000000000E+00 -0.00000000000E+00 -0.35255429044E+02  0.35255429044E+02  0.00000000000E+00 0.  1.
         25    2    1    2    0    0 -0.42719770023E+02  0.89712816096E+02  0.51752484278E+03  0.54162058301E+03  0.12509006725E+03 0.  0.
          5    1    3    3  502    0  0.16609289622E+02  0.58215800703E+02  0.88239618789E+02  0.10709178623E+03  0.41800000000E+01 0. -1.
         -5    1    3    3    0  502 -0.59329059646E+02  0.31497015392E+02  0.42928522399E+03  0.43452879678E+03  0.41800000000E+01 0. -1.
        -11    1    1    2    0    0 -0.11559407726E+02  0.29701280646E+01 -0.33317922056E+01  0.12391222983E+02  0.00000000000E+00 0.  1.
         11    1    1    2    0    0  0.54279177750E+02 -0.92682944160E+02  0.17259084891E+03  0.20328295158E+03  0.00000000000E+00 0. -1.
</event>
<event>
 7    1  0.2556591E-009  0.2120593E+03  0.7561462E-02  0.1139946E+00
          1   -1    0    0  501    0  0.00000000000E+00  0.00000000000E+00  0.98680609569E+02  0.98680609569E+02  0.00000000000E+00 0. -1.
         -1   -1    0    0    0  501 -0.00000000000E+00 -0.00000000000E+00 -0.62722024271E+03  0.62722024271E+03  0.00000000000E+00 0.  1.
         25    2    1    2    0    0 -0.16915154068E+03  0.66970297836E+02 -0.83116766840E+02  0.23590815063E+03  0.12508794546E+03 0.  0.
          5    1    3    3  502    0 -0.59963443233E+01  0.55988862668E+02 -0.13029932438E+02  0.57947911329E+02  0.41800000000E+01 0. -1.
         -5    1    3    3    0  502 -0.16315519636E+03  0.10981435168E+02 -0.70086834402E+02  0.17796023930E+03  0.41800000000E+01 0. -1.
        -11    1    1    2    0    0  0.10120721009E+03  0.96547387373E+01 -0.21394310782E+03  0.23687078068E+03  0.00000000000E+00 0.  1.
         11    1    1    2    0    0  0.67944330593E+02 -0.76625036573E+02 -0.23147975848E+03  0.25312192097E+03  0.00000000000E+00 0. -1.
</event>
<event>
 7    1  0.2556591E-009  0.1157184E+03  0.7561462E-02  0.1250332E+00
         -4   -1    0    0    0  501 -0.00000000000E+00  0.00000000000E+00  0.33963798909E+02  0.33963798909E+02  0.00000000000E+00 0.  1.
          4   -1    0    0  501    0  0.00000000000E+00 -0.00000000000E+00 -0.44283610757E+03  0.44283610757E+03  0.00000000000E+00 0. -1.
         25    2    1    2    0    0  0.54936042875E+02 -0.45620738905E+01 -0.28618631590E+03  0.31716279924E+03  0.12510336722E+03 0.  0.
          5    1    3    3  502    0  0.91274000389E+02 -0.12639958727E+02 -0.15155889863E+03  0.17742120464E+03  0.41800000000E+01 0. -1.
         -5    1    3    3    0  502 -0.36337957515E+02  0.80778848367E+01 -0.13462741727E+03  0.13974159460E+03  0.41800000000E+01 0. -1.
        -11    1    1    2    0    0  0.46646218680E+01  0.34657497005E+02 -0.35614940712E+02  0.49913172587E+02  0.00000000000E+00 0.  1.
         11    1    1    2    0    0 -0.59600664743E+02 -0.30095423114E+02 -0.87071052055E+02  0.10972393465E+03  0.00000000000E+00 0. -1.
</event>
<event>
 7    1  0.2556591E-009  0.2347463E+03  0.7561462E-02  0.1123343E+00
         -1   -1    0    0    0  501 -0.00000000000E+00  0.00000000000E+00  0.19906087130E+03  0.19906087130E+03  0.00000000000E+00 0.  1.
          1   -1    0    0  501    0  0.00000000000E+00 -0.00000000000E+00 -0.41265630939E+03  0.41265630939E+03  0.00000000000E+00 0. -1.
         25    2    1    2    0    0 -0.17917391877E+03  0.12319080683E+03  0.52039878460E+02  0.25619299817E+03  0.12508970904E+03 0.  0.
          5    1    3    3  502    0  0.10700742627E+02  0.62681752716E+01  0.29201985006E+02  0.32000378784E+02  0.41800000000E+01 0. -1.
         -5    1    3    3    0  502 -0.18987466139E+03  0.11692263156E+03  0.22837893454E+02  0.22419261939E+03  0.41800000000E+01 0. -1.
        -11    1    1    2    0    0  0.42406126606E+02 -0.78978165419E+02 -0.12988728540E+03  0.15781805060E+03  0.00000000000E+00 0.  1.
         11    1    1    2    0    0  0.13676779216E+03 -0.44212641414E+02 -0.13574803115E+03  0.19770613191E+03  0.00000000000E+00 0. -1.
</event>
<event>
 7    1  0.2556591E-009  0.1752665E+03  0.7561462E-02  0.1172464E+00
         -1   -1    0    0    0  501 -0.00000000000E+00  0.00000000000E+00  0.95331125079E+02  0.95331125079E+02  0.00000000000E+00 0.  1.
          1   -1    0    0  501    0  0.00000000000E+00 -0.00000000000E+00 -0.37277274873E+03  0.37277274873E+03  0.00000000000E+00 0. -1.
         25    2    1    2    0    0  0.14029833565E+02  0.13733716040E+03 -0.22947771839E+03  0.29557591730E+03  0.12508704088E+03 0.  0.
          5    1    3    3  502    0  0.62002536310E+02  0.30793673119E+02 -0.87446770690E+02  0.11161081900E+03  0.41800000000E+01 0. -1.
         -5    1    3    3    0  502 -0.47972702745E+02  0.10654348728E+03 -0.14203094770E+03  0.18396509830E+03  0.41800000000E+01 0. -1.
        -11    1    1    2    0    0  0.31017748398E+02 -0.10313357705E+03 -0.20416533566E+02  0.10961510057E+03  0.00000000000E+00 0.  1.
         11    1    1    2    0    0 -0.45047581963E+02 -0.34203583347E+02 -0.27547371698E+02  0.62912855936E+02  0.00000000000E+00 0. -1.
</event>
<event>
 7    1  0.2556591E-009  0.1083901E+03  0.7561462E-02  0.1263581E+00
          2   -1    0    0  501    0  0.00000000000E+00  0.00000000000E+00  0.20850134858E+03  0.20850134858E+03  0.00000000000E+00 0. -1.
         -2   -1    0    0    0  501 -0.00000000000E+00 -0.00000000000E+00 -0.78135710896E+02  0.78135710896E+02  0.00000000000E+00 0.  1.
         25    2    1    2    0    0 -0.53564687365E+02  0.18776996983E+02  0.76533566920E+02  0.15724413670E+03  0.12508629146E+03 0.  0.
          5    1    3    3  502    0 -0.69946561072E+02  0.37984297349E+02  0.96230798103E+02  0.12495265965E+03  0.41800000000E+01 0.  1.
         -5    1    3    3    0  502  0.16381873707E+02 -0.19207300366E+02 -0.19697231183E+02  0.32291477045E+02  0.41800000000E+01 0.  1.
        -11    1    1    2    0    0 -0.42711018212E+01  0.33352961547E+02 -0.18392600603E+01  0.33675588076E+02  0.00000000000E+00 0.  1.
         11    1    1    2    0    0  0.57835789186E+02 -0.52129958530E+02  0.55671330828E+02  0.95717334706E+02  0.00000000000E+00 0. -1.
</event>
<event>
 7    1  0.2556591E-009  0.8827090E+02  0.7561462E-02  0.1307094E+00
          2   -1    0    0  501    0  0.00000000000E+00  0.00000000000E+00  0.22679529730E+03  0.22679529730E+03  0.00000000000E+00 0.  1.
         -2   -1    0    0    0  501 -0.00000000000E+00 -0.00000000000E+00 -0.71735106535E+02  0.71735106535E+02  0.00000000000E+00 0. -1.
         25    2    1    2    0    0 -0.27771622305E+02 -0.22864112411E+02  0.14894041947E+03  0.19780024760E+03  0.12509060219E+03 0.  0.
          5    1    3    3  502    0 -0.29842920593E+01  0.44626989814E+02  0.10301429583E+03  0.11238279123E+03  0.41800000000E+01 0. -1.
         -5    1    3    3    0  502 -0.24787330246E+02 -0.67491102225E+02  0.45926123642E+02  0.85417456371E+02  0.41800000000E+01 0. -1.
        -11    1    1    2    0    0 -0.11058493816E+02  0.17071229439E+02 -0.37119284768E+02  0.42326805475E+02  0.00000000000E+00 0. -1.
         11    1    1    2    0    0  0.38830116121E+02  0.57928829713E+01  0.43239056064E+02  0.58403350764E+02  0.00000000000E+00 0.  1.
</event>
<event>
 7    1  0.2556591E-009  0.1672567E+03  0.7561462E-02  0.1180739E+00
         -2   -1    0    0    0  501 -0.00000000000E+00  0.00000000000E+00  0.98854986953E+02  0.98854986953E+02  0.00000000000E+00 0.  1.
          2   -1    0    0  501    0  0.00000000000E+00 -0.00000000000E+00 -0.43518231041E+03  0.43518231041E+03  0.00000000000E+00 0. -1.
         25    2    1    2    0    0  0.12314419357E+03 -0.35906031308E+02 -0.33102009463E+03  0.37639728147E+03  0.12508746922E+03 0.  0.
          5    1    3    3  502    0  0.14609590868E+03 -0.44937387393E+02 -0.29832718176E+03  0.33523120841E+03  0.41800000000E+01 0.  1.
         -5    1    3    3    0  502 -0.22951715106E+02  0.90313560847E+01 -0.32692912876E+02  0.41166073062E+02  0.41800000000E+01 0.  1.
        -11    1    1    2    0    0 -0.17682555454E+02  0.47315900097E+02 -0.98596065089E+01  0.51465318515E+02  0.00000000000E+00 0. -1.
         11    1    1    2    0    0 -0.10546163812E+03 -0.11409868789E+02  0.45523776806E+01  0.10617469738E+03  0.00000000000E+00 0.  1.
</event>
<event>
 7    1  0.2556591E-009  0.1060056E+03  0.7561462E-02  0.1268151E+00
          3   -1    0    0  501    0  0.00000000000E+00  0.00000000000E+00  0.15306652766E+03  0.15306652766E+03  0.00000000000E+00 0. -1.
         -3   -1    0    0    0  501 -0.00000000000E+00 -0.00000000000E+00 -0.78447723005E+02  0.78447723005E+02  0.00000000000E+00 0.  1.
         25    2    1    2    0    0 -0.15859581242E+02 -0.35214194132E+01  0.39822842171E+02  0.13227242251E+03  0.12508480438E+03 0.  0.
          5    1    3    3  502    0  0.22809150489E+02  0.52258966522E+02  0.10096184889E+02  0.58057405016E+02  0.41800000000E+01 0. -1.
         -5    1    3    3    0  502 -0.38668731731E+02 -0.55780385935E+02  0.29726657283E+02  0.74215017496E+02  0.41800000000E+01 0. -1.
        -11    1    1    2    0    0 -0.94895279680E+01  0.40726220309E+02 -0.83898861674E+00  0.41825591013E+02  0.00000000000E+00 0.  1.
         11    1    1    2    0    0  0.25349109210E+02 -0.37204800895E+02  0.35634951101E+02  0.57416237141E+02  0.00000000000E+00 0. -1.
</event>
<event>
 7    1  0.2556591E-009  0.1212999E+03  0.7561462E-02  0.1240968E+00
         -1   -1    0    0    0  501 -0.00000000000E+00  0.00000000000E+00  0.10888325709E+03  0.10888325709E+03  0.00000000000E+00 0.  1.
          1   -1    0    0  501    0  0.00000000000E+00 -0.00000000000E+00 -0.22732894047E+03  0.22732894047E+03  0.00000000000E+00 0. -1.
         25    2    1    2    0    0 -0.29876018030E+02 -0.58113937012E+02  0.35141962818E+02  0.14543946047E+03  0.12509145848E+03 0.  0.
          5    1    3    3  502    0 -0.54785497327E+02  0.15472562661E+02 -0.60597754255E+01  0.57402475476E+02  0.41800000000E+01 0.  1.
         -5    1    3    3    0  502  0.24909479296E+02 -0.73586499673E+02  0.41201738243E+02  0.88036984996E+02  0.41800000000E+01 0.  1.
        -11    1    1    2    0    0 -0.13086546191E+02  0.63121739957E+02 -0.61789029737E+02  0.89294433993E+02  0.00000000000E+00 0.  1.
         11    1    1    2    0    0  0.42962564221E+02 -0.50078029446E+01 -0.91798616460E+02  0.10147830309E+03  0.00000000000E+00 0. -1.
</event>
<event>
 7    1  0.2556591E-009  0.1257379E+03  0.7561462E-02  0.1233921E+00
         -2   -1    0    0    0  501 -0.00000000000E+00  0.00000000000E+00  0.51330431425E+02  0.51330431425E+02  0.00000000000E+00 0.  1.
          2   -1    0    0  501    0  0.00000000000E+00 -0.00000000000E+00 -0.61061028402E+03  0.61061028402E+03  0.00000000000E+00 0. -1.
         25    2    1    2    0    0  0.28715712328E+02 -0.75774916111E+02 -0.50883103145E+03  0.53021316086E+03  0.12510214761E+03 0.  0.
          5    1    3    3  502    0  0.13171797261E+02  0.34725895354E+02 -0.12469204474E+03  0.13017281771E+03  0.41800000000E+01 0. -1.
         -5    1    3    3    0  502  0.15543915067E+02 -0.11050081147E+03 -0.38413898671E+03  0.40004034314E+03  0.41800000000E+01 0. -1.
        -11    1    1    2    0    0 -0.46981284882E+02  0.67839674605E+02 -0.56629613787E+01  0.82713552163E+02  0.00000000000E+00 0.  1.
         11    1    1    2    0    0  0.18265572554E+02  0.79352415059E+01 -0.44785859765E+02  0.49014002422E+02  0.00000000000E+00 0. -1.
</event>
<event>
 7    1  0.2556591E-009  0.1437590E+03  0.7561462E-02  0.1208359E+00
          2   -1    0    0  501    0  0.00000000000E+00  0.00000000000E+00  0.26391248557E+02  0.26391248557E+02  0.00000000000E+00 0. -1.
         -2   -1    0    0    0  501 -0.00000000000E+00 -0.00000000000E+00 -0.10276987027E+04  0.10276987027E+04  0.00000000000E+00 0.  1.
         25    2    1    2    0    0  0.90930805812E+02 -0.78799932151E+02 -0.61505764835E+03  0.63907857027E+03  0.12509063687E+03 0.  0.
          5    1    3    3  502    0  0.95968762649E+02 -0.51765341969E+02 -0.59465099098E+03  0.60457995957E+03  0.41800000000E+01 0.  1.
         -5    1    3    3    0  502 -0.50379568376E+01 -0.27034590183E+02 -0.20406657364E+02  0.34498610700E+02  0.41800000000E+01 0.  1.
        -11    1    1    2    0    0 -0.10269497179E+03  0.40290064818E+02 -0.25817803710E+03  0.28075869603E+03  0.00000000000E+00 0.  1.
         11    1    1    2    0    0  0.11764165978E+02  0.38509867333E+02 -0.12807176872E+03  0.13425268499E+03  0.00000000000E+00 0. -1.
</event>
<event>
 7    1  0.2556591E-009  0.1347314E+03  0.7561462E-02  0.1220599E+00
          1   -1    0    0  501    0  0.00000000000E+00  0.00000000000E+00  0.13094321956E+04  0.13094321956E+04  0.00000000000E+00 0. -1.
         -1   -1    0    0    0  501 -0.00000000000E+00 -0.00000000000E+00 -0.18454981362E+02  0.18454981362E+02  0.00000000000E+00 0.  1.
         25    2    1    2    0    0 -0.40295428443E+02 -0.10093073180E+03  0.59246315132E+03  0.61519976154E+03  0.12508967485E+03 0.  0.
          5    1    3    3  502    0 -0.59644562259E+02 -0.84387205344E+02  0.57456978201E+03  0.58380354661E+03  0.41800000000E+01 0.  1.
         -5    1    3    3    0  502  0.19349133815E+02 -0.16543526453E+02  0.17893369309E+02  0.31396214933E+02  0.41800000000E+01 0.  1.
        -11    1    1    2    0    0  0.61324739358E+02  0.34071682765E+02  0.39543368870E+03  0.40160852255E+03  0.00000000000E+00 0. -1.
         11    1    1    2    0    0 -0.21029310915E+02  0.66859049031E+02  0.30308037423E+03  0.31107889288E+03  0.00000000000E+00 0.  1.
</event>
<event>
 7    1  0.2716170E-009  0.1320143E+03  0.7561462E-02  0.1224497E+00
          2   -1    0    0  501    0  0.00000000000E+00  0.00000000000E+00  0.31941582749E+03  0.31941582749E+03  0.00000000000E+00 0. -1.
         -2   -1    0    0    0  501 -0.00000000000E+00 -0.00000000000E+00 -0.62497131240E+02  0.62497131240E+02  0.00000000000E+00 0.  1.
         25    2    1    2    0    0 -0.85954315776E+02  0.15021922294E+02  0.17240794259E+03  0.23018578362E+03  0.12508874356E+03 0.  0.
          5    1    3    3  502    0 -0.11324595428E+03  0.14006688785E+02  0.16656517837E+03  0.20194619218E+03  0.41800000000E+01 0.  1.
         -5    1    3    3    0  502  0.27291638502E+02  0.10152335097E+01  0.58427642225E+01  0.28239591445E+02  0.41800000000E+01 0.  1.
        -11    1    1    2    0    0  0.89266626549E+02  0.16279106797E+02  0.45216775845E+02  0.10138094866E+03  0.00000000000E+00 0.  1.
         11    1    1    2    0    0 -0.33123107733E+01 -0.31301029092E+02  0.39293977816E+02  0.50346226447E+02  0.00000000000E+00 0. -1.
</event>
<event>
 7    1  0.3212498E-009  0.1109723E+03  0.7561462E-02  0.1258780E+00
          2   -1    0    0  501    0  0.00000000000E+00  0.00000000000E+00  0.77776845485E+03  0.77776845485E+03  0.00000000000E+00 0. -1.
         -2   -1    0    0    0  501 -0.00000000000E+00 -0.00000000000E+00 -0.29252729707E+02  0.29252729707E+02  0.00000000000E+00 0.  1.
         25    2    1    2    0    0 -0.69931535076E+02  0.19405278666E+02  0.60508471602E+03  0.62212798496E+03  0.12509489069E+03 0.  0.
          5    1    3    3  502    0  0.71453793574E+01  0.55975010858E+02  0.30112791981E+03  0.30639803324E+03  0.41800000000E+01 0.  1.
         -5    1    3    3    0  502 -0.77076914434E+02 -0.36569732192E+02  0.30395679620E+03  0.31572995172E+03  0.41800000000E+01 0.  1.
        -11    1    1    2    0    0  0.51620883859E+01 -0.14035252927E+02 -0.10185786930E+02  0.18093803818E+02  0.00000000000E+00 0.  1.
         11    1    1    2    0    0  0.64769446690E+02 -0.53700257388E+01  0.15361679606E+03  0.16679939578E+03  0.00000000000E+00 0. -1.
</event>
<event>
 7    1  0.2556591E-009  0.9523018E+02  0.7561462E-02  0.1290659E+00
          1   -1    0    0  501    0  0.00000000000E+00  0.00000000000E+00  0.45147621311E+03  0.45147621311E+03  0.00000000000E+00 0. -1.
         -1   -1    0    0    0  501 -0.00000000000E+00 -0.00000000000E+00 -0.70948425896E+02  0.70948425896E+02  0.00000000000E+00 0.  1.
         25    2    1    2    0    0  0.50321864586E+02  0.20232894802E+02  0.39063885721E+03  0.41374883756E+03  0.12509086194E+03 0.  0.
          5    1    3    3  502    0  0.63363171199E+02  0.41935387115E+02  0.37716336748E+03  0.38476375392E+03  0.41800000000E+01 0. -1.
         -5    1    3    3    0  502 -0.13041306613E+02 -0.21702492313E+02  0.13475489721E+02  0.28985083647E+02  0.41800000000E+01 0. -1.
        -11    1    1    2    0    0  0.17224239539E+02 -0.11217293278E+02 -0.31182104331E+02  0.37347365726E+02  0.00000000000E+00 0.  1.
         11    1    1    2    0    0 -0.67546104125E+02 -0.90156015233E+01  0.21071034338E+02  0.71328435714E+02  0.00000000000E+00 0. -1.
</event>
<event>
 7    1  0.2556591E-009  0.1342305E+03  0.7561462E-02  0.1221310E+00
         -1   -1    0    0    0  501 -0.00000000000E+00  0.00000000000E+00  0.26285367013E+03  0.26285367013E+03  0.00000000000E+00 0.  1.
          1   -1    0    0  501    0  0.00000000000E+00 -0.00000000000E+00 -0.77734230173E+02  0.77734230173E+02  0.00000000000E+00 0. -1.
         25    2    1    2    0    0  0.87622724365E+02 -0.24279888758E+02  0.78367596983E+02  0.17335833253E+03  0.12507748150E+03 0.  0.
          5    1    3    3  502    0  0.11755791020E+03 -0.17202479070E+02  0.43297248792E+02  0.12652237624E+03  0.41800000000E+01 0.  1.
         -5    1    3    3    0  502 -0.29935185839E+02 -0.70774096881E+01  0.35070348190E+02  0.46835956286E+02  0.41800000000E+01 0.  1.
        -11    1    1    2    0    0 -0.63811592726E+02 -0.21164556704E+02  0.27103417839E+02  0.72487606426E+02  0.00000000000E+00 0. -1.
         11    1    1    2    0    0 -0.23811131639E+02  0.45444445463E+02  0.79648425137E+02  0.94741961349E+02  0.00000000000E+00 0.  1.
</event>
<event>
 7    1  0.2556591E-009  0.9089773E+02  0.7561462E-02  0.1300692E+00
         -2   -1    0    0    0  501 -0.00000000000E+00  0.00000000000E+00  0.10144469897E+02  0.10144469897E+02  0.00000000000E+00 0.  1.
          2   -1    0    0  501    0  0.00000000000E+00 -0.00000000000E+00 -0.16953294240E+04  0.16953294240E+04  0.00000000000E+00 0. -1.
         25    2    1    2    0    0 -0.30263380270E+02  0.38738322234E+02 -0.11245846334E+04  0.11325882070E+04  0.12509564005E+03 0.  0.
          5    1    3    3  502    0 -0.15568388926E+02 -0.62440242018E+01 -0.98479771741E+03  0.98494942976E+03  0.41800000000E+01 0.  1.
         -5    1    3    3    0  502 -0.14694991344E+02  0.44982346435E+02 -0.13978691594E+03  0.14763877719E+03  0.41800000000E+01 0.  1.
        -11    1    1    2    0    0 -0.33310850406E+02  0.12265759383E+02 -0.20626245932E+03  0.20929468157E+03  0.00000000000E+00 0.  1.
         11    1    1    2    0    0  0.63574230676E+02 -0.51004081616E+02 -0.35433786139E+03  0.36359100534E+03  0.00000000000E+00 0. -1.
</event>
<event>
 7    1  0.2556591E-009  0.8800604E+02  0.7561462E-02  0.1307753E+00
          1   -1    0    0  501    0  0.00000000000E+00  0.00000000000E+00  0.42128203876E+03  0.42128203876E+03  0.00000000000E+00 0. -1.
         -1   -1    0    0    0  501 -0.00000000000E+00 -0.00000000000E+00 -0.37309753573E+02  0.37309753573E+02  0.00000000000E+00 0.  1.
         25    2    1    2    0    0 -0.22811552321E+02  0.29125547226E+02  0.13046194665E+03  0.18449259671E+03  0.12509410176E+03 0.  0.
          5    1    3    3  502    0  0.20130019494E+02 -0.12683152630E+02  0.12134523107E+03  0.12372638178E+03  0.41800000000E+01 0. -1.
         -5    1    3    3    0  502 -0.42941571815E+02  0.41808699856E+02  0.91167155789E+01  0.60766214927E+02  0.41800000000E+01 0. -1.
        -11    1    1    2    0    0  0.40649655045E+02  0.15665990914E+02  0.56889490838E+02  0.71653554653E+02  0.00000000000E+00 0.  1.
         11    1    1    2    0    0 -0.17838102724E+02 -0.44791538140E+02  0.19662084770E+03  0.20244564097E+03  0.00000000000E+00 0. -1.
</event>
<event>
 7    1  0.2556591E-009  0.1183741E+03  0.7561462E-02  0.1245804E+00
          1   -1    0    0  501    0  0.00000000000E+00  0.00000000000E+00  0.43267593103E+03  0.43267593103E+03  0.00000000000E+00 0. -1.
         -1   -1    0    0    0  501 -0.00000000000E+00 -0.00000000000E+00 -0.34299348682E+02  0.34299348682E+02  0.00000000000E+00 0.  1.
         25    2    1    2    0    0  0.10853288860E+02 -0.51042807541E+02  0.25868103018E+03  0.29204625018E+03  0.12510785264E+03 0.  0.
          5    1    3    3  502    0 -0.34288364013E+02  0.26691901778E+02  0.62780449218E+02  0.76465722590E+02  0.41800000000E+01 0.  1.
         -5    1    3    3    0  502  0.45141652873E+02 -0.77734709318E+02  0.19590058096E+03  0.21558052759E+03  0.41800000000E+01 0.  1.
        -11    1    1    2    0    0 -0.29960518648E+02 -0.15599874544E+02  0.63421446644E+02  0.71855888123E+02  0.00000000000E+00 0. -1.
         11    1    1    2    0    0  0.19107229788E+02  0.66642682085E+02  0.76274105529E+02  0.10307314141E+03  0.00000000000E+00 0.  1.
</event>
<event>
 7    1  0.4632191E-009  0.1114074E+03  0.7561462E-02  0.1257986E+00
         -2   -1    0    0    0  501 -0.00000000000E+00  0.00000000000E+00  0.58004310314E+02  0.58004310314E+02  0.00000000000E+00 0.  1.
          2   -1    0    0  501    0  0.00000000000E+00 -0.00000000000E+00 -0.29032760441E+03  0.29032760441E+03  0.00000000000E+00 0. -1.
         25    2    1    2    0    0  0.31376455730E+02  0.62150987405E+02 -0.10911404292E+03  0.17999958968E+03  0.12508697260E+03 0.  0.
          5    1    3    3  502    0 -0.46777678232E+02  0.20163050707E+02 -0.58850812728E+02  0.77946073367E+02  0.41800000000E+01 0. -1.
         -5    1    3    3    0  502  0.78154133962E+02  0.41987936698E+02 -0.50263230191E+02  0.10205351632E+03  0.41800000000E+01 0. -1.
        -11    1    1    2    0    0 -0.31060278176E+02 -0.12894413172E+02 -0.11317112269E+03  0.11806231313E+03  0.00000000000E+00 0. -1.
         11    1    1    2    0    0 -0.31617755416E+00 -0.49256574233E+02 -0.10038128485E+02  0.50270011904E+02  0.00000000000E+00 0.  1.
</event>
<event>
 7    1  0.2556591E-009  0.6334953E+02  0.7561462E-02  0.1384290E+00
          2   -1    0    0  501    0  0.00000000000E+00  0.00000000000E+00  0.22876726781E+03  0.22876726781E+03  0.00000000000E+00 0. -1.
         -2   -1    0    0    0  501 -0.00000000000E+00 -0.00000000000E+00 -0.64718308159E+02  0.64718308159E+02  0.00000000000E+00 0.  1.
         25    2    1    2    0    0  0.53997031228E+02  0.88350757179E+01  0.10430542926E+03  0.17181329374E+03  0.12508576014E+03 0.  0.
          5    1    3    3  502    0  0.41089822721E+02  0.42230689618E+01 -0.20420117102E+02  0.46267282449E+02  0.41800000000E+01 0. -1.
         -5    1    3    3    0  502  0.12907208507E+02  0.46120067561E+01  0.12472554636E+03  0.12554601130E+03  0.41800000000E+01 0. -1.
        -11    1    1    2    0    0 -0.29763807382E+02  0.17929440734E+02  0.74859432578E+02  0.82530501760E+02  0.00000000000E+00 0. -1.
         11    1    1    2    0    0 -0.24233223847E+02 -0.26764516451E+02 -0.15115902186E+02  0.39141780463E+02  0.00000000000E+00 0.  1.
</event>
<event>
 7    1  0.2556591E-009  0.1206851E+03  0.7561462E-02  0.1241971E+00
          1   -1    0    0  501    0  0.00000000000E+00  0.00000000000E+00  0.11807228582E+04  0.11807228582E+04  0.00000000000E+00 0. -1.
         -1   -1    0    0    0  501 -0.00000000000E+00 -0.00000000000E+00 -0.26444731409E+02  0.26444731409E+02  0.00000000000E+00 0.  1.
         25    2    1    2    0    0  0.50987131116E+02  0.94258208558E+02  0.92521622002E+03  0.93976220668E+03  0.12507459338E+03 0.  0.
          5    1    3    3  502    0  0.25736932863E+02 -0.16873026410E+01  0.57893728084E+03  0.57952660357E+03  0.41800000000E+01 0.  1.
         -5    1    3    3    0  502  0.25250198254E+02  0.95945511199E+02  0.34627893918E+03  0.36023560311E+03  0.41800000000E+01 0.  1.
        -11    1    1    2    0    0 -0.59237587497E+02 -0.83696884634E+02  0.23203124394E+03  0.25367845481E+03  0.00000000000E+00 0. -1.
         11    1    1    2    0    0  0.82504563808E+01 -0.10561323924E+02 -0.29693371285E+01  0.13726928152E+02  0.00000000000E+00 0.  1.
</event>
<event>
 7    1  0.2556591E-009  0.1551684E+03  0.7561462E-02  0.1194262E+00
         -2   -1    0    0    0  501 -0.00000000000E+00  0.00000000000E+00  0.44369655558E+03  0.44369655558E+03  0.00000000000E+00 0.  1.
          2   -1    0    0  501    0  0.00000000000E+00 -0.00000000000E+00 -0.68974702132E+02  0.68974702132E+02  0.00000000000E+00 0. -1.
         25    2    1    2    0    0  0.53999452400E+02  0.12206957166E+03  0.24092495062E+03  0.30250808550E+03  0.12509751707E+03 0.  0.
          5    1    3    3  502    0 -0.21838256654E+02  0.10374621234E+02  0.11585163253E+03  0.11842134680E+03  0.41800000000E+01 0.  1.
         -5    1    3    3    0  502  0.75837709054E+02  0.11169495043E+03  0.12507331809E+03  0.18408673870E+03  0.41800000000E+01 0.  1.
        -11    1    1    2    0    0 -0.57137130153E+02 -0.42782931397E+02  0.25265994557E+02  0.75719227030E+02  0.00000000000E+00 0. -1.
         11    1    1    2    0    0  0.31376777532E+01 -0.79286640264E+02  0.10853090827E+03  0.13444394518E+03  0.00000000000E+00 0.  1.
</event>
<event>
 7    1  0.2556591E-009  0.7795781E+02  0.7561462E-02  0.1334949E+00
         -1   -1    0    0    0  501 -0.00000000000E+00  0.00000000000E+00  0.40755933702E+02  0.40755933702E+02  0.00000000000E+00 0.  1.
          1   -1    0    0  501    0  0.00000000000E+00 -0.00000000000E+00 -0.47720473891E+03  0.47720473891E+03  0.00000000000E+00 0. -1.
         25    2    1    2    0    0 -0.65039609407E+00 -0.73706678320E+02 -0.32913729216E+03  0.35973761541E+03  0.12508675950E+03 0.  0.
          5    1    3    3  502    0  0.12234289492E+02 -0.88394125100E+01  0.69826501418E+01  0.17147677857E+02  0.41800000000E+01 0.  1.
         -5    1    3    3    0  502 -0.12884685586E+02 -0.64867265810E+02 -0.33611994230E+03  0.34258993755E+03  0.41800000000E+01 0.  1.
        -11    1    1    2    0    0 -0.28418316793E+01  0.39851403726E+02 -0.11634169243E+03  0.12301056777E+03  0.00000000000E+00 0. -1.
         11    1    1    2    0    0  0.34922277733E+01  0.33855274594E+02  0.90301793801E+01  0.35212489436E+02  0.00000000000E+00 0.  1.
</event>
<event>
 7    1  0.2556591E-009  0.1030716E+03  0.7561462E-02  0.1273966E+00
         -2   -1    0    0    0  501 -0.00000000000E+00  0.00000000000E+00  0.93145879862E+02  0.93145879862E+02  0.00000000000E+00 0.  1.
          2   -1    0    0  501    0  0.00000000000E+00 -0.00000000000E+00 -0.19054094833E+03  0.19054094833E+03  0.00000000000E+00 0. -1.
         25    2    1    2    0    0  0.67770333717E+01  0.32489027360E+02  0.19212308990E+02  0.13083686090E+03  0.12509079212E+03 0.  0.
          5    1    3    3  502    0 -0.55470801141E+02  0.28630741224E+02  0.26424268624E+02  0.67914972536E+02  0.41800000000E+01 0.  1.
         -5    1    3    3    0  502  0.62247834513E+02  0.38582861368E+01 -0.72119596345E+01  0.62921888363E+02  0.41800000000E+01 0.  1.
        -11    1    1    2    0    0 -0.39366376768E+02 -0.76656927044E+01 -0.14188153369E+02  0.42541487521E+02  0.00000000000E+00 0. -1.
         11    1    1    2    0    0  0.32589343397E+02 -0.24823334656E+02 -0.10241922409E+03  0.11030847977E+03  0.00000000000E+00 0.  1.
</event>
<event>
 7    1  0.2556591E-009  0.1774177E+03  0.7561462E-02  0.1170326E+00
          2   -1    0    0  501    0  0.00000000000E+00  0.00000000000E+00  0.69560654850E+02  0.69560654850E+02  0.00000000000E+00 0. -1.
         -2   -1    0    0    0  501 -0.00000000000E+00 -0.00000000000E+00 -0.46024841154E+03  0.46024841154E+03  0.00000000000E+00 0.  1.
         25    2    1    2    0    0 -0.96337631275E+02 -0.10043753430E+03 -0.23731608314E+03  0.30221675281E+03  0.12508958735E+03 0.  0.
          5    1    3    3  502    0  0.27689315313E+02 -0.40310576164E+02 -0.57119871541E+02  0.75311306309E+02  0.41800000000E+01 0. -1.
         -5    1    3    3    0  502 -0.12402694659E+03 -0.60126958141E+02 -0.18019621160E+03  0.22690544650E+03  0.41800000000E+01 0. -1.
        -11    1    1    2    0    0  0.11526679930E+03  0.82230364274E+02 -0.12427097061E+03  0.18839199019E+03  0.00000000000E+00 0. -1.
         11    1    1    2    0    0 -0.18929168029E+02  0.18207170031E+02 -0.29100702939E+02  0.39200323396E+02  0.00000000000E+00 0.  1.
</event>
<event>
 7    1  0.2750133E-009  0.9326491E+02  0.7561462E-02  0.1295132E+00
         -1   -1    0    0    0  501 -0.00000000000E+00  0.00000000000E+00  0.24028549869E+02  0.24028549869E+02  0.00000000000E+00 0.  1.
          1   -1    0    0  501    0  0.00000000000E+00 -0.00000000000E+00 -0.66769746318E+03  0.66769746318E+03  0.00000000000E+00 0. -1.
         25    2    1    2    0    0 -0.36445387329E+02 -0.11665904148E+02 -0.49921121691E+03  0.51606514353E+03  0.12508810374E+03 0.  0.
          5    1    3    3  502    0 -0.51110107944E+02  0.33609656046E+02 -0.41278235505E+03  0.41731115148E+03  0.41800000000E+01 0.  1.
         -5    1    3    3    0  502  0.14664720615E+02 -0.45275560194E+02 -0.86428861865E+02  0.98753992045E+02  0.41800000000E+01 0.  1.
        -11    1    1    2    0    0  0.10596123322E+02 -0.28089581783E+02 -0.78128235074E+01  0.31021648011E+02  0.00000000000E+00 0.  1.
         11    1    1    2    0    0  0.25849264007E+02  0.39755485930E+02 -0.13664487289E+03  0.14463922151E+03  0.00000000000E+00 0. -1.
</event>
<event>
 7    1  0.2556591E-009  0.1603717E+03  0.7561462E-02  0.1188278E+00
          2   -1    0    0  501    0  0.00000000000E+00  0.00000000000E+00  0.13565324759E+04  0.13565324759E+04  0.00000000000E+00 0. -1.
         -2   -1    0    0    0  501 -0.00000000000E+00 -0.00000000000E+00 -0.23330385549E+02  0.23330385549E+02  0.00000000000E+00 0.  1.
         25    2    1    2    0    0 -0.10497776690E+03  0.94525549755E+02  0.72911065891E+03  0.75313052526E+03  0.12509126282E+03 0.  0.
          5    1    3    3  502    0 -0.59242323241E+02 -0.52968341033E+01  0.43678240640E+03  0.44083336110E+03  0.41800000000E+01 0. -1.
         -5    1    3    3    0  502 -0.45735443659E+02  0.99822383858E+02  0.29232825251E+03  0.31229716416E+03  0.41800000000E+01 0. -1.
        -11    1    1    2    0    0  0.51092642493E+02 -0.11681946220E+02  0.98531363527E+02  0.11160356438E+03  0.00000000000E+00 0.  1.
         11    1    1    2    0    0  0.53885124408E+02 -0.82843603535E+02  0.50556006796E+03  0.51512877186E+03  0.00000000000E+00 0. -1.
</event>
<event>
 7    1  0.2556591E-009  0.1189671E+03  0.7561462E-02  0.1244811E+00
          3   -1    0    0  501    0  0.00000000000E+00  0.00000000000E+00  0.31658253288E+02  0.31658253288E+02  0.00000000000E+00 0. -1.
         -3   -1    0    0    0  501 -0.00000000000E+00 -0.00000000000E+00 -0.52662232175E+03  0.52662232175E+03  0.00000000000E+00 0.  1.
         25    2    1    2    0    0 -0.28972678882E+02  0.41537087791E+02 -0.17071929805E+03  0.21761802344E+03  0.12509108528E+03 0.  0.
          5    1    3    3  502    0 -0.68244846610E+02  0.60049271796E+02 -0.10804970413E+03  0.14126388461E+03  0.41800000000E+01 0. -1.
         -5    1    3    3    0  502  0.39272167728E+02 -0.18512184005E+02 -0.62669593915E+02  0.76354138828E+02  0.41800000000E+01 0. -1.
        -11    1    1    2    0    0  0.86732799368E-01 -0.65674763464E+02 -0.18072100351E+03  0.19228432902E+03  0.00000000000E+00 0. -1.
         11    1    1    2    0    0  0.28885946082E+02  0.24137675673E+02 -0.14352376691E+03  0.14837822258E+03  0.00000000000E+00 0.  1.
</event>
<event>
 7    1  0.2556591E-009  0.1422374E+03  0.7561462E-02  0.1210350E+00
          2   -1    0    0  501    0  0.00000000000E+00  0.00000000000E+00  0.15288722379E+04  0.15288722379E+04  0.00000000000E+00 0. -1.
         -2   -1    0    0    0  501 -0.00000000000E+00 -0.00000000000E+00 -0.17207434896E+02  0.17207434896E+02  0.00000000000E+00 0.  1.
         25    2    1    2    0    0  0.17416853380E+02  0.10276243709E+03  0.10994380110E+04  0.11114287244E+04  0.12508558699E+03 0.  0.
          5    1    3    3  502    0  0.33601847587E+02  0.12121757427E+03  0.10300036918E+04  0.10376646192E+04  0.41800000000E+01 0. -1.
         -5    1    3    3    0  502 -0.16184994207E+02 -0.18455137176E+02  0.69434319242E+02  0.73764105189E+02  0.41800000000E+01 0. -1.
        -11    1    1    2    0    0 -0.48401051838E+02 -0.85496897131E+02  0.25043841050E+03  0.26902003400E+03  0.00000000000E+00 0. -1.
         11    1    1    2    0    0  0.30984198458E+02 -0.17265539958E+02  0.16178838150E+03  0.16563091442E+03  0.00000000000E+00 0.  1.
</event>
<event>
 7    1  0.2556591E-009  0.2003148E+03  0.7561462E-02  0.1149474E+00
          1   -1    0    0  501    0  0.00000000000E+00  0.00000000000E+00  0.16754234277E+04  0.16754234277E+04  0.00000000000E+00 0. -1.
         -1   -1    0    0    0  501 -0.00000000000E+00 -0.00000000000E+00 -0.28147288392E+02  0.28147288392E+02  0.00000000000E+00 0.  1.
         25    2    1    2    0    0  0.12801449361E+03  0.13521140979E+03  0.75777808324E+03  0.79028098228E+03  0.12508625663E+03 0.  0.
          5    1    3    3  502    0  0.95494600150E+02  0.62678168677E+02  0.23329357656E+03  0.25979056324E+03  0.41800000000E+01 0.  1.
         -5    1    3    3    0  502  0.32519893459E+02  0.72533241112E+02  0.52448450669E+03  0.53049041904E+03  0.41800000000E+01 0.  1.
        -11    1    1    2    0    0 -0.85378384720E+02 -0.13983650337E+03  0.68171440193E+03  0.70112640947E+03  0.00000000000E+00 0.  1.
         11    1    1    2    0    0 -0.42636108888E+02  0.46250935821E+01  0.20778365412E+03  0.21216332433E+03  0.00000000000E+00 0. -1.
</event>
<event>
 7    1  0.2556591E-009  0.1241166E+03  0.7561462E-02  0.1236456E+00
          2   -1    0    0  501    0  0.00000000000E+00  0.00000000000E+00  0.40594174208E+03  0.40594174208E+03  0.00000000000E+00 0. -1.
         -2   -1    0    0    0  501 -0.00000000000E+00 -0.00000000000E+00 -0.47706277815E+02  0.47706277815E+02  0.00000000000E+00 0.  1.
         25    2    1    2    0    0  0.87858145690E+02  0.41345926649E+01  0.21330113051E+03  0.26245217845E+03  0.12509046757E+03 0.  0.
          5    1    3    3  502    0 -0.18296310450E+02  0.34803216082E+02  0.80159302614E+02  0.89381234167E+02  0.41800000000E+01 0.  1.
         -5    1    3    3    0  502  0.10615445614E+03 -0.30668623417E+02  0.13314182790E+03  0.17307094429E+03  0.41800000000E+01 0.  1.
        -11    1    1    2    0    0 -0.25806271187E+02  0.18836909660E+02  0.85706865384E-01  0.31949963127E+02  0.00000000000E+00 0.  1.
         11    1    1    2    0    0 -0.62051874503E+02 -0.22971502325E+02  0.14484862689E+03  0.15924587831E+03  0.00000000000E+00 0. -1.
</event>
<event>
 7    1  0.2556591E-009  0.1381420E+03  0.7561462E-02  0.1215851E+00
          1   -1    0    0  501    0  0.00000000000E+00  0.00000000000E+00  0.33352779491E+03  0.33352779491E+03  0.00000000000E+00 0. -1.
         -1   -1    0    0    0  501 -0.00000000000E+00 -0.00000000000E+00 -0.10763674739E+03  0.10763674739E+03  0.00000000000E+00 0.  1.
         25    2    1    2    0    0 -0.12933360749E+03  0.26158034684E+02  0.19427923689E+03  0.26608946013E+03  0.12509098330E+03 0.  0.
          5    1    3    3  502    0 -0.26675505794E+02 -0.63403345484E+01  0.14494176828E+03  0.14757157939E+03  0.41800000000E+01 0. -1.
         -5    1    3    3    0  502 -0.10265810170E+03  0.32498369232E+02  0.49337468611E+02  0.11851788074E+03  0.41800000000E+01 0. -1.
        -11    1    1    2    0    0  0.97235703785E+02 -0.40874420478E+02  0.67100714731E+02  0.12501202445E+03  0.00000000000E+00 0. -1.
         11    1    1    2    0    0  0.32097903708E+02  0.14716385794E+02 -0.35488904103E+02  0.50063057715E+02  0.00000000000E+00 0.  1.
</event>
<event>
 7    1  0.2556591E-009  0.1660231E+03  0.7561462E-02  0.1182060E+00
          1   -1    0    0  501    0  0.00000000000E+00  0.00000000000E+00  0.24545158160E+03  0.24545158160E+03  0.00000000000E+00 0. -1.
         -1   -1    0    0    0  501 -0.00000000000E+00 -0.00000000000E+00 -0.15325707248E+03  0.15325707248E+03  0.00000000000E+00 0.  1.
         25    2    1    2    0    0  0.27156020039E+02 -0.15170209253E+03  0.97190363559E+02  0.22100540546E+03  0.12508576326E+03 0.  0.
          5    1    3    3  502    0 -0.18282326009E+02 -0.97961146960E+02 -0.14628180434E+01  0.99750899718E+02  0.41800000000E+01 0. -1.
         -5    1    3    3    0  502  0.45438346048E+02 -0.53740945573E+02  0.98653181602E+02  0.12125450574E+03  0.41800000000E+01 0. -1.
        -11    1    1    2    0    0 -0.39869237090E+02  0.84770362007E+02  0.33455590554E+02  0.99472844939E+02  0.00000000000E+00 0. -1.
         11    1    1    2    0    0  0.12713217050E+02  0.66931730525E+02 -0.38451444986E+02  0.78230403683E+02  0.00000000000E+00 0.  1.
</event>
<event>
 7    1  0.2556591E-009  0.1309745E+03  0.7561462E-02  0.1226017E+00
         -2   -1    0    0    0  501 -0.00000000000E+00  0.00000000000E+00  0.63192895086E+02  0.63192895086E+02  0.00000000000E+00 0. -1.
          2   -1    0    0  501    0  0.00000000000E+00 -0.00000000000E+00 -0.39496260712E+03  0.39496260712E+03  0.00000000000E+00 0.  1.
         25    2    1    2    0    0  0.10177018373E+03 -0.48226632146E+02 -0.14690956556E+03  0.22341431493E+03  0.12509419378E+03 0.  0.
          5    1    3    3  502    0  0.51504528706E+02  0.19198139599E+02 -0.12468521926E+03  0.13632740496E+03  0.41800000000E+01 0.  1.
         -5    1    3    3    0  502  0.50265655023E+02 -0.67424771745E+02 -0.22224346308E+02  0.87086909972E+02  0.41800000000E+01 0.  1.
        -11    1    1    2    0    0 -0.16427460855E+02 -0.10069257863E+02 -0.97583019407E+02  0.99467065407E+02  0.00000000000E+00 0.  1.
         11    1    1    2    0    0 -0.85342722874E+02  0.58295890009E+02 -0.87277127064E+02  0.13527412187E+03  0.00000000000E+00 0. -1.
</event>
<event>
 7    1  0.2556591E-009  0.9409358E+02  0.7561462E-02  0.1293231E+00
          1   -1    0    0  501    0  0.00000000000E+00  0.00000000000E+00  0.45017735794E+02  0.45017735794E+02  0.00000000000E+00 0. -1.
         -1   -1    0    0    0  501 -0.00000000000E+00 -0.00000000000E+00 -0.31118338382E+03  0.31118338382E+03  0.00000000000E+00 0.  1.
         25    2    1    2    0    0 -0.50191780119E+02 -0.26561732313E+01 -0.15140047272E+03  0.20272295593E+03  0.12509286021E+03 0.  0.
          5    1    3    3  502    0 -0.77617767922E+02 -0.39124315812E+02 -0.11493705516E+03  0.14416389643E+03  0.41800000000E+01 0.  1.
         -5    1    3    3    0  502  0.27425987802E+02  0.36468142580E+02 -0.36463417562E+02  0.58559059508E+02  0.41800000000E+01 0.  1.
        -11    1    1    2    0    0  0.24370705253E+02  0.12889912720E+02 -0.12175474045E+03  0.12483708563E+03  0.00000000000E+00 0.  1.
         11    1    1    2    0    0  0.25821074867E+02 -0.10233739489E+02  0.69895651460E+01  0.28641078055E+02  0.00000000000E+00 0. -1.
</event>
<event>
 7    1  0.2556591E-009  0.1275778E+03  0.7561462E-02  0.1231095E+00
          1   -1    0    0  501    0  0.00000000000E+00  0.00000000000E+00  0.11776980422E+04  0.11776980422E+04  0.00000000000E+00 0. -1.
         -1   -1    0    0    0  501 -0.00000000000E+00 -0.00000000000E+00 -0.24485114304E+02  0.24485114304E+02  0.00000000000E+00 0.  1.
         25    2    1    2    0    0 -0.10064978368E+03 -0.58056752732E+02  0.81114146603E+03  0.82891448909E+03  0.12509111406E+03 0.  0.
          5    1    3    3  502    0 -0.47404512196E+02 -0.19749776310E+02  0.68261976209E+03  0.68456150449E+03  0.41800000000E+01 0.  1.
         -5    1    3    3    0  502 -0.53245271483E+02 -0.38306976422E+02  0.12852170395E+03  0.14435298460E+03  0.41800000000E+01 0.  1.
        -11    1    1    2    0    0  0.77688396939E+02  0.24306250147E+01  0.11832367316E+03  0.14156937023E+03  0.00000000000E+00 0.  1.
         11    1    1    2    0    0  0.22961386740E+02  0.55626127717E+02  0.22374778874E+03  0.23169929722E+03  0.00000000000E+00 0. -1.
</event>
<event>
 7    1  0.2556591E-009  0.1132017E+03  0.7561462E-02  0.1254753E+00
         -2   -1    0    0    0  501 -0.00000000000E+00  0.00000000000E+00  0.17032494549E+03  0.17032494549E+03  0.00000000000E+00 0.  1.
          2   -1    0    0  501    0  0.00000000000E+00 -0.00000000000E+00 -0.10350380892E+03  0.10350380892E+03  0.00000000000E+00 0. -1.
         25    2    1    2    0    0 -0.76908095997E+02 -0.77261657224E+01  0.42175546643E+02  0.15296910723E+03  0.12508485985E+03 0.  0.
          5    1    3    3  502    0 -0.89542524886E+02  0.39239740159E+02  0.33233279219E+02  0.10334188027E+03  0.41800000000E+01 0. -1.
         -5    1    3    3    0  502  0.12634428889E+02 -0.46965905881E+02  0.89422674237E+01  0.49627226955E+02  0.41800000000E+01 0. -1.
        -11    1    1    2    0    0  0.52154438646E+02  0.14386112563E+02 -0.29014409930E+02  0.61391218336E+02  0.00000000000E+00 0. -1.
         11    1    1    2    0    0  0.24753657351E+02 -0.66599468410E+01  0.53659999856E+02  0.59468428841E+02  0.00000000000E+00 0.  1.
</event>
<event>
 7    1  0.2556591E-009  0.1305996E+03  0.7561462E-02  0.1226569E+00
          2   -1    0    0  501    0  0.00000000000E+00  0.00000000000E+00  0.46485573014E+03  0.46485573014E+03  0.00000000000E+00 0. -1.
         -2   -1    0    0    0  501 -0.00000000000E+00 -0.00000000000E+00 -0.45289704628E+02  0.45289704628E+02  0.00000000000E+00 0.  1.
         25    2    1    2    0    0  0.26665248648E+02  0.87720308905E+02  0.27561334365E+03  0.31625420279E+03  0.12509243584E+03 0.  0.
          5    1    3    3  502    0 -0.49580393565E+02  0.41276442297E+02  0.97683041923E+02  0.11713841895E+03  0.41800000000E+01 0. -1.
         -5    1    3    3    0  502  0.76245642213E+02  0.46443866607E+02  0.17793030173E+03  0.19911578384E+03  0.41800000000E+01 0. -1.
        -11    1    1    2    0    0 -0.59116329999E+01 -0.86160997939E+02  0.54665304379E+02  0.10221037361E+03  0.00000000000E+00 0.  1.
         11    1    1    2    0    0 -0.20753615648E+02 -0.15593109660E+01  0.89287377482E+02  0.91680858366E+02  0.00000000000E+00 0. -1.
</event>
<event>
 7    1  0.2556591E-009  0.1203222E+03  0.7561462E-02  0.1242567E+00
         -4   -1    0    0    0  501 -0.00000000000E+00  0.00000000000E+00  0.94350384800E+02  0.94350384800E+02  0.00000000000E+00 0.  1.
          4   -1    0    0  501    0  0.00000000000E+00 -0.00000000000E+00 -0.22200815996E+03  0.22200815996E+03  0.00000000000E+00 0. -1.
         25    2    1    2    0    0  0.83275735265E+02  0.40828713736E+02 -0.91243790864E+02  0.18048250506E+03  0.12508666320E+03 0.  0.
          5    1    3    3  502    0 -0.82593589401E+01  0.94323471002E+01  0.25540747022E+02  0.28757404965E+02  0.41800000000E+01 0. -1.
         -5    1    3    3    0  502  0.91535094205E+02  0.31396366636E+02 -0.11678453789E+03  0.15172510009E+03  0.41800000000E+01 0. -1.
        -11    1    1    2    0    0 -0.65098344796E+02 -0.70382292824E+02 -0.31003140914E+02  0.10076039095E+03  0.00000000000E+00 0.  1.
         11    1    1    2    0    0 -0.18177390468E+02  0.29553579088E+02 -0.54108433871E+01  0.35115648753E+02  0.00000000000E+00 0. -1.
</event>
<event>
 7    1  0.2556591E-009  0.1065029E+03  0.7561462E-02  0.1267186E+00
         -2   -1    0    0    0  501 -0.00000000000E+00  0.00000000000E+00  0.44306982672E+03  0.44306982672E+03  0.00000000000E+00 0. -1.
          2   -1    0    0  501    0  0.00000000000E+00 -0.00000000000E+00 -0.32524281284E+02  0.32524281284E+02  0.00000000000E+00 0.  1.
         25    2    1    2    0    0  0.17256507263E+02 -0.73591351626E+01  0.13601009085E+03  0.18573659282E+03  0.12508954068E+03 0.  0.
          5    1    3    3  502    0  0.54837375186E+02 -0.42366423131E+02  0.10410469706E+03  0.12512918075E+03  0.41800000000E+01 0.  1.
         -5    1    3    3    0  502 -0.37580867923E+02  0.35007287968E+02  0.31905393786E+02  0.60607412066E+02  0.41800000000E+01 0.  1.
        -11    1    1    2    0    0  0.24704603840E+02 -0.27885277604E+02  0.91452701621E+02  0.98749697679E+02  0.00000000000E+00 0. -1.
         11    1    1    2    0    0 -0.41961111103E+02  0.35244412767E+02  0.18308275297E+03  0.19110781750E+03  0.00000000000E+00 0.  1.
</event>
<event>
 7    1  0.2556591E-009  0.3486661E+03  0.7561462E-02  0.1063164E+00
         -1   -1    0    0    0  501 -0.00000000000E+00  0.00000000000E+00  0.26154205735E+03  0.26154205735E+03  0.00000000000E+00 0.  1.
          1   -1    0    0  501    0  0.00000000000E+00 -0.00000000000E+00 -0.83926580642E+03  0.83926580642E+03  0.00000000000E+00 0. -1.
         25    2    1    2    0    0 -0.22524932996E+03 -0.24805157715E+03  0.71574957166E+02  0.36474267686E+03  0.12508956894E+03 0.  0.
          5    1    3    3  502    0 -0.13014344174E+03 -0.53232962074E+02  0.33251517312E+02  0.14454826005E+03  0.41800000000E+01 0.  1.
         -5    1    3    3    0  502 -0.95105888215E+02 -0.19481861508E+03  0.38323439854E+02  0.22019441681E+03  0.41800000000E+01 0.  1.
        -11    1    1    2    0    0  0.60240338432E+02  0.10679694936E+03 -0.30799617011E+03  0.33150584847E+03  0.00000000000E+00 0. -1.
         11    1    1    2    0    0  0.16500899153E+03  0.14125462779E+03 -0.34130253612E+03  0.40455933844E+03  0.00000000000E+00 0.  1.
</event>
<event>
 7    1  0.2556591E-009  0.1182319E+03  0.7561462E-02  0.1246043E+00
         -1   -1    0    0    0  501 -0.00000000000E+00  0.00000000000E+00  0.27062862076E+02  0.27062862076E+02  0.00000000000E+00 0.  1.
          1   -1    0    0  501    0  0.00000000000E+00 -0.00000000000E+00 -0.69309164656E+03  0.69309164656E+03  0.00000000000E+00 0. -1.
         25    2    1    2    0    0 -0.20822591095E+02 -0.39925883883E+02 -0.18367061390E+03  0.22673189489E+03  0.12507917991E+03 0.  0.
          5    1    3    3  502    0 -0.11917162116E+02 -0.85289543141E+02 -0.11200326714E+03  0.14134542501E+03  0.41800000000E+01 0. -1.
         -5    1    3    3    0  502 -0.89054289794E+01  0.45363659258E+02 -0.71667346761E+02  0.85386469879E+02  0.41800000000E+01 0. -1.
        -11    1    1    2    0    0  0.43912454399E+01  0.69689745002E+02 -0.33336201814E+03  0.34059679789E+03  0.00000000000E+00 0.  1.
         11    1    1    2    0    0  0.16431345655E+02 -0.29763861119E+02 -0.14899615244E+03  0.15282581585E+03  0.00000000000E+00 0. -1.
</event>
<event>
 7    1  0.2556591E-009  0.1854916E+03  0.7561462E-02  0.1162592E+00
          2   -1    0    0  501    0  0.00000000000E+00  0.00000000000E+00  0.17935311113E+03  0.17935311113E+03  0.00000000000E+00 0. -1.
         -2   -1    0    0    0  501 -0.00000000000E+00 -0.00000000000E+00 -0.21472675774E+03  0.21472675774E+03  0.00000000000E+00 0.  1.
         25    2    1    2    0    0 -0.15335557469E+03 -0.53274103041E+02 -0.20544273829E+02  0.20597449855E+03  0.12508942610E+03 0.  0.
          5    1    3    3  502    0 -0.11581816029E+03  0.40998363455E+01 -0.55881647848E+02  0.12872795297E+03  0.41800000000E+01 0.  1.
         -5    1    3    3    0  502 -0.37537414407E+02 -0.57373939387E+02  0.35337374019E+02  0.77246545578E+02  0.41800000000E+01 0.  1.
        -11    1    1    2    0    0  0.27638914493E+02  0.53939959655E+02 -0.14788558437E+02  0.62386940160E+02  0.00000000000E+00 0.  1.
         11    1    1    2    0    0  0.12571666020E+03 -0.66585661350E+00 -0.40814344433E-01  0.12571843016E+03  0.00000000000E+00 0. -1.
</event>
<event>
 7    1  0.2556591E-009  0.9861924E+02  0.7561462E-02  0.1283227E+00
          2   -1    0    0  501    0  0.00000000000E+00  0.00000000000E+00  0.10290438530E+03  0.10290438530E+03  0.00000000000E+00 0. -1.
         -2   -1    0    0    0  501 -0.00000000000E+00 -0.00000000000E+00 -0.13466492655E+03  0.13466492655E+03  0.00000000000E+00 0.  1.
         25    2    1    2    0    0  0.25760496809E+01 -0.46685885857E+02 -0.11602822697E+02  0.13405088640E+03  0.12509519048E+03 0.  0.
          5    1    3    3  502    0  0.41741782827E+01  0.28572407825E+02  0.34885936066E+02  0.45478645412E+02  0.41800000000E+01 0.  1.
         -5    1    3    3    0  502 -0.15981286018E+01 -0.75258293681E+02 -0.46488758763E+02  0.88572240991E+02  0.41800000000E+01 0.  1.
        -11    1    1    2    0    0 -0.22617541530E+02 -0.15444545959E+02  0.12978632603E+02  0.30307294320E+02  0.00000000000E+00 0.  1.
         11    1    1    2    0    0  0.20041491849E+02  0.62130431816E+02 -0.33136351152E+02  0.73211131127E+02  0.00000000000E+00 0. -1.
</event>
<event>
 7    1  0.2556591E-009  0.1140166E+03  0.7561462E-02  0.1253307E+00
         -2   -1    0    0    0  501 -0.00000000000E+00  0.00000000000E+00  0.75153566938E+02  0.75153566938E+02  0.00000000000E+00 0. -1.
          2   -1    0    0  501    0  0.00000000000E+00 -0.00000000000E+00 -0.21498826171E+03  0.21498826171E+03  0.00000000000E+00 0.  1.
         25    2    1    2    0    0  0.39421923093E+02 -0.47240030460E+02 -0.10205545970E+03  0.17276821889E+03  0.12509129508E+03 0.  0.
          5    1    3    3  502    0 -0.37260519806E+02 -0.16007121269E+02 -0.75344273002E+02  0.85666832215E+02  0.41800000000E+01 0. -1.
         -5    1    3    3    0  502  0.76682442899E+02 -0.31232909192E+02 -0.26711186697E+02  0.87101386673E+02  0.41800000000E+01 0. -1.
        -11    1    1    2    0    0 -0.11592029280E+02 -0.24667449609E+02 -0.28955526739E+02  0.39765320843E+02  0.00000000000E+00 0.  1.
         11    1    1    2    0    0 -0.27829893813E+02  0.71907480069E+02 -0.88237083315E+01  0.77608288915E+02  0.00000000000E+00 0. -1.
</event>
<event>
 7    1  0.2556591E-009  0.2657804E+03  0.7561462E-02  0.1103719E+00
         -2   -1    0    0    0  501 -0.00000000000E+00  0.00000000000E+00  0.11129025108E+03  0.11129025108E+03  0.00000000000E+00 0.  1.
          2   -1    0    0  501    0  0.00000000000E+00 -0.00000000000E+00 -0.66368256779E+03  0.66368256779E+03  0.00000000000E+00 0. -1.
         25    2    1    2    0    0  0.51352210382E+01 -0.24535784799E+03 -0.33893856551E+03  0.43675599232E+03  0.12509836760E+03 0.  0.
          5    1    3    3  502    0  0.57908044673E+02 -0.66307961988E+02 -0.95379054487E+02  0.12986425180E+03  0.41800000000E+01 0.  1.
         -5    1    3    3    0  502 -0.52772823635E+02 -0.17904988600E+03 -0.24355951102E+03  0.30689174052E+03  0.41800000000E+01 0.  1.
        -11    1    1    2    0    0  0.34133142667E+02  0.14464357096E+03 -0.15730108377E+03  0.21640347734E+03  0.00000000000E+00 0. -1.
         11    1    1    2    0    0 -0.39268363705E+02  0.10071427702E+03 -0.56152667430E+02  0.12181334920E+03  0.00000000000E+00 0.  1.
</event>
<event>
 7    1  0.2556591E-009  0.1068287E+03  0.7561462E-02  0.1266558E+00
         -2   -1    0    0    0  501 -0.00000000000E+00  0.00000000000E+00  0.63086084288E+02  0.63086084288E+02  0.00000000000E+00 0.  1.
          2   -1    0    0  501    0  0.00000000000E+00 -0.00000000000E+00 -0.19036618737E+03  0.19036618737E+03  0.00000000000E+00 0. -1.
         25    2    1    2    0    0 -0.41045721691E+01 -0.25879577100E+01 -0.90595159980E+02  0.15452863545E+03  0.12509225045E+03 0.  0.
          5    1    3    3  502    0  0.20781438659E+02  0.55973645986E+02 -0.31721649448E+02  0.67739594636E+02  0.41800000000E+01 0.  1.
         -5    1    3    3    0  502 -0.24886010828E+02 -0.58561603696E+02 -0.58873510533E+02  0.86789040811E+02  0.41800000000E+01 0.  1.
        -11    1    1    2    0    0  0.21763846245E+02  0.41747555440E+02 -0.93284658450E+01  0.47995246261E+02  0.00000000000E+00 0.  1.
         11    1    1    2    0    0 -0.17659274076E+02 -0.39159597730E+02 -0.27356477261E+02  0.50928389955E+02  0.00000000000E+00 0. -1.
</event>
<event>
 7    1  0.2556591E-009  0.1228339E+03  0.7561462E-02  0.1238494E+00
          2   -1    0    0  501    0  0.00000000000E+00  0.00000000000E+00  0.89059469564E+02  0.89059469564E+02  0.00000000000E+00 0.  1.
         -2   -1    0    0    0  501 -0.00000000000E+00 -0.00000000000E+00 -0.19841082648E+03  0.19841082648E+03  0.00000000000E+00 0. -1.
         25    2    1    2    0    0  0.19740949196E+02 -0.74270983817E+02 -0.61424526452E+02  0.15914494083E+03  0.12509298793E+03 0.  0.
          5    1    3    3  502    0  0.61869755297E+02 -0.74431968086E+02 -0.64991251012E+02  0.11665898852E+03  0.41800000000E+01 0.  1.
         -5    1    3    3    0  502 -0.42128806101E+02  0.16098426954E+00  0.35667245602E+01  0.42485952308E+02  0.41800000000E+01 0.  1.
        -11    1    1    2    0    0 -0.18860769317E+02  0.89364938781E+02 -0.15625493681E+02  0.92660546919E+02  0.00000000000E+00 0.  1.
         11    1    1    2    0    0 -0.88017987887E+00 -0.15093954964E+02 -0.32301336785E+02  0.35664808301E+02  0.00000000000E+00 0. -1.
</event>
<event>
 7    1  0.2556591E-009  0.9160101E+02  0.7561462E-02  0.1299020E+00
         -1   -1    0    0    0  501 -0.00000000000E+00  0.00000000000E+00  0.16447875897E+03  0.16447875897E+03  0.00000000000E+00 0.  1.
          1   -1    0    0  501    0  0.00000000000E+00 -0.00000000000E+00 -0.89863083712E+02  0.89863083712E+02  0.00000000000E+00 0. -1.
         25    2    1    2    0    0  0.17662482782E+02 -0.26903445544E+02 -0.37910635438E+01  0.12921536877E+03  0.12508589323E+03 0.  0.
          5    1    3    3  502    0  0.26140617337E+02 -0.52383520679E+02 -0.49005685229E+02  0.76461720477E+02  0.41800000000E+01 0. -1.
         -5    1    3    3    0  502 -0.84781345553E+01  0.25480075135E+02  0.45214621685E+02  0.52753648296E+02  0.41800000000E+01 0. -1.
        -11    1    1    2    0    0 -0.18159367957E+02 -0.32872248768E+02  0.34004164395E+02  0.50661924360E+02  0.00000000000E+00 0. -1.
         11    1    1    2    0    0  0.49688517551E+00  0.59775694312E+02  0.44402574404E+02  0.74464549546E+02  0.00000000000E+00 0.  1.
</event>
<event>
 7    1  0.2556591E-009  0.1764714E+03  0.7561462E-02  0.1171262E+00
          1   -1    0    0  501    0  0.00000000000E+00  0.00000000000E+00  0.15945734063E+04  0.15945734063E+04  0.00000000000E+00 0. -1.
         -1   -1    0    0    0  501 -0.00000000000E+00 -0.00000000000E+00 -0.21233703898E+02  0.21233703898E+02  0.00000000000E+00 0.  1.
         25    2    1    2    0    0 -0.99042093275E+02 -0.10470364670E+03  0.98510018394E+03  0.10034146040E+04  0.12508519239E+03 0.  0.
          5    1    3    3  502    0 -0.55219241735E+02  0.19742987198E+02  0.31330714082E+03  0.31877544932E+03  0.41800000000E+01 0.  1.
         -5    1    3    3    0  502 -0.43822851540E+02 -0.12444663390E+03  0.67179304311E+03  0.68463915472E+03  0.41800000000E+01 0.  1.
        -11    1    1    2    0    0  0.46591718011E+01  0.55527175669E+02  0.30003982632E+03  0.30517023527E+03  0.00000000000E+00 0. -1.
         11    1    1    2    0    0  0.94382921474E+02  0.49176471036E+02  0.28819969219E+03  0.30722227092E+03  0.00000000000E+00 0.  1.
</event>
<event>
 7    1  0.2556591E-009  0.1782134E+03  0.7561462E-02  0.1169543E+00
          2   -1    0    0  501    0  0.00000000000E+00  0.00000000000E+00  0.16833557988E+03  0.16833557988E+03  0.00000000000E+00 0. -1.
         -2   -1    0    0    0  501 -0.00000000000E+00 -0.00000000000E+00 -0.21288079786E+03  0.21288079786E+03  0.00000000000E+00 0.  1.
         25    2    1    2    0    0 -0.11821496971E+03  0.99301542050E+02 -0.25208506813E+02  0.20029635636E+03  0.12509031232E+03 0.  0.
          5    1    3    3  502    0 -0.91195286149E+02  0.11371115948E+03  0.18259139441E+02  0.14696147991E+03  0.41800000000E+01 0.  1.
         -5    1    3    3    0  502 -0.27019683565E+02 -0.14409617425E+02 -0.43467646254E+02  0.53334876443E+02  0.41800000000E+01 0.  1.
        -11    1    1    2    0    0  0.47044331954E+02 -0.97783077523E+02 -0.15690968195E+02  0.10963989193E+03  0.00000000000E+00 0. -1.
         11    1    1    2    0    0  0.71170637760E+02 -0.15184645273E+01 -0.36457429757E+01  0.71280129457E+02  0.00000000000E+00 0.  1.
</event>
<event>
 7    1  0.2556591E-009  0.2056403E+03  0.7561462E-02  0.1145066E+00
          2   -1    0    0  501    0  0.00000000000E+00  0.00000000000E+00  0.73354793306E+03  0.73354793306E+03  0.00000000000E+00 0. -1.
         -2   -1    0    0    0  501 -0.00000000000E+00 -0.00000000000E+00 -0.72516831921E+02  0.72516831921E+02  0.00000000000E+00 0.  1.
         25    2    1    2    0    0 -0.19172710750E+03  0.24316370089E+02  0.45013367467E+03  0.50558672975E+03  0.12508815544E+03 0.  0.
          5    1    3    3  502    0 -0.28880059423E+02  0.29740703046E+02  0.21799943540E+03  0.22194547413E+03  0.41800000000E+01 0. -1.
         -5    1    3    3    0  502 -0.16284704807E+03 -0.54243329570E+01  0.23213423926E+03  0.28364125563E+03  0.41800000000E+01 0. -1.
        -11    1    1    2    0    0  0.61455482885E+02 -0.43019555685E+02  0.11632119469E+03  0.13841271214E+03  0.00000000000E+00 0. -1.
         11    1    1    2    0    0  0.13027162461E+03  0.18703185597E+02  0.94576231786E+02  0.16206532309E+03  0.00000000000E+00 0.  1.
</event>
<event>
 7    1  0.2755106E-009  0.1519902E+03  0.7561462E-02  0.1198049E+00
         -2   -1    0    0    0  501 -0.00000000000E+00  0.00000000000E+00  0.24180136916E+02  0.24180136916E+02  0.00000000000E+00 0.  1.
          2   -1    0    0  501    0  0.00000000000E+00 -0.00000000000E+00 -0.12647235196E+04  0.12647235196E+04  0.00000000000E+00 0. -1.
         25    2    1    2    0    0 -0.12861841494E+03 -0.42975937811E+02 -0.59892907414E+03  0.62670116765E+03  0.12509472326E+03 0.  0.
          5    1    3    3  502    0 -0.20252757034E+02  0.23051973902E+02 -0.30440075869E+03  0.30597199539E+03  0.41800000000E+01 0.  1.
         -5    1    3    3    0  502 -0.10836565791E+03 -0.66027911713E+02 -0.29452831545E+03  0.32072917226E+03  0.41800000000E+01 0.  1.
        -11    1    1    2    0    0  0.78684153992E+02  0.53324620783E+02 -0.54223559327E+03  0.55050354211E+03  0.00000000000E+00 0.  1.
         11    1    1    2    0    0  0.49934260949E+02 -0.10348682972E+02 -0.99378715244E+02  0.11169894672E+03  0.00000000000E+00 0. -1.
</event>
<event>
 7    1  0.2556591E-009  0.8774869E+02  0.7561462E-02  0.1308397E+00
         -2   -1    0    0    0  501 -0.00000000000E+00  0.00000000000E+00  0.72629617301E+02  0.72629617301E+02  0.00000000000E+00 0.  1.
          2   -1    0    0  501    0  0.00000000000E+00 -0.00000000000E+00 -0.39956802095E+03  0.39956802095E+03  0.00000000000E+00 0. -1.
         25    2    1    2    0    0  0.64659462777E+02  0.25299134604E+02 -0.20336331913E+02  0.14449218708E+03  0.12507411160E+03 0.  0.
          5    1    3    3  502    0  0.59347974493E+02  0.17308352395E+02  0.46104241875E+02  0.77232342046E+02  0.41800000000E+01 0. -1.
         -5    1    3    3    0  502  0.53114882840E+01  0.79907822088E+01 -0.66440573788E+02  0.67259845030E+02  0.41800000000E+01 0. -1.
        -11    1    1    2    0    0 -0.74824019471E+02 -0.40271551322E+02 -0.29298326207E+03  0.30505675470E+03  0.00000000000E+00 0. -1.
         11    1    1    2    0    0  0.10164556694E+02  0.14972416719E+02 -0.13618809662E+02  0.22648696470E+02  0.00000000000E+00 0.  1.
</event>
<event>
 7    1  0.2556591E-009  0.1341912E+03  0.7561462E-02  0.1221366E+00
          4   -1    0    0  501    0  0.00000000000E+00  0.00000000000E+00  0.50824613581E+02  0.50824613581E+02  0.00000000000E+00 0. -1.
         -4   -1    0    0    0  501 -0.00000000000E+00 -0.00000000000E+00 -0.55449357377E+03  0.55449357377E+03  0.00000000000E+00 0.  1.
         25    2    1    2    0    0 -0.66772585785E+02  0.10329214017E+03 -0.32714432233E+03  0.37121283260E+03  0.12509082706E+03 0.  0.
          5    1    3    3  502    0 -0.25350283618E+02  0.20795922037E+02 -0.19137481433E+01  0.33109546733E+02  0.41800000000E+01 0. -1.
         -5    1    3    3    0  502 -0.41422302168E+02  0.82496218133E+02 -0.32523057419E+03  0.33810328586E+03  0.41800000000E+01 0. -1.
        -11    1    1    2    0    0 -0.10298318306E+02 -0.45337594655E+02 -0.10246017236E+03  0.11251506463E+03  0.00000000000E+00 0.  1.
         11    1    1    2    0    0  0.77070904091E+02 -0.57954545515E+02 -0.74064465494E+02  0.12159029012E+03  0.00000000000E+00 0. -1.
</event>
<event>
 7    1  0.2556591E-009  0.9128117E+02  0.7561462E-02  0.1299778E+00
          1   -1    0    0  501    0  0.00000000000E+00  0.00000000000E+00  0.11567064146E+03  0.11567064146E+03  0.00000000000E+00 0. -1.
         -1   -1    0    0    0  501 -0.00000000000E+00 -0.00000000000E+00 -0.10894671506E+03  0.10894671506E+03  0.00000000000E+00 0.  1.
         25    2    1    2    0    0 -0.31784809856E+01  0.38554016545E+02 -0.17234383089E+01  0.13094762807E+03  0.12509115126E+03 0.  0.
          5    1    3    3  502    0 -0.56085849232E+02 -0.11132352767E+02 -0.83843082325E+01  0.57942391966E+02  0.41800000000E+01 0.  1.
         -5    1    3    3    0  502  0.52907368247E+02  0.49686369312E+02  0.66608699236E+01  0.73005236102E+02  0.41800000000E+01 0.  1.
        -11    1    1    2    0    0  0.15113948940E+02 -0.37637101682E+02 -0.31889670464E+02  0.51593933344E+02  0.00000000000E+00 0.  1.
         11    1    1    2    0    0 -0.11935467954E+02 -0.91691486340E+00  0.40337035167E+02  0.42075795111E+02  0.00000000000E+00 0. -1.
</event>
<event>
 7    1  0.2556591E-009  0.7814642E+02  0.7561462E-02  0.1334395E+00
         -4   -1    0    0    0  501 -0.00000000000E+00  0.00000000000E+00  0.33581709283E+02  0.33581709283E+02  0.00000000000E+00 0.  1.
          4   -1    0    0  501    0  0.00000000000E+00 -0.00000000000E+00 -0.35988105554E+03  0.35988105554E+03  0.00000000000E+00 0. -1.
         25    2    1    2    0    0  0.85364574374E+01 -0.18156692239E+02 -0.16933186662E+03  0.21148207868E+03  0.12509537151E+03 0.  0.
          5    1    3    3  502    0  0.48600831898E+02  0.99211484803E-01 -0.15865665055E+03  0.16598631229E+03  0.41800000000E+01 0. -1.
         -5    1    3    3    0  502 -0.40064374460E+02 -0.18255903723E+02 -0.10675216070E+02  0.45495766394E+02  0.41800000000E+01 0. -1.
        -11    1    1    2    0    0 -0.25420961333E+02  0.32410307597E+02 -0.25015920026E+02  0.48191799804E+02  0.00000000000E+00 0.  1.
         11    1    1    2    0    0  0.16884503895E+02 -0.14253615359E+02 -0.13195155961E+03  0.13378888634E+03  0.00000000000E+00 0. -1.
</event>
<event>
 7    1  0.2556591E-009  0.1034164E+03  0.7561462E-02  0.1273271E+00
          2   -1    0    0  501    0  0.00000000000E+00  0.00000000000E+00  0.10121209499E+04  0.10121209499E+04  0.00000000000E+00 0.  1.
         -2   -1    0    0    0  501 -0.00000000000E+00 -0.00000000000E+00 -0.24644229757E+02  0.24644229757E+02  0.00000000000E+00 0. -1.
         25    2    1    2    0    0 -0.63697083375E+02  0.54201274063E+02  0.78988057384E+03  0.80408555201E+03  0.12508859857E+03 0.  0.
          5    1    3    3  502    0 -0.66843661178E+01  0.53858011018E+01  0.59696539195E+03  0.59704173991E+03  0.41800000000E+01 0.  1.
         -5    1    3    3    0  502 -0.57012717257E+02  0.48815472961E+02  0.19291518188E+03  0.20704381210E+03  0.41800000000E+01 0.  1.
        -11    1    1    2    0    0 -0.21833114789E+02 -0.21213112854E+02  0.60999653503E+02  0.68173593025E+02  0.00000000000E+00 0.  1.
         11    1    1    2    0    0  0.85530198164E+02 -0.32988161209E+02  0.13659649277E+03  0.16450603459E+03  0.00000000000E+00 0. -1.
</event>
<event>
 7    1  0.2556591E-009  0.1404038E+03  0.7561462E-02  0.1212787E+00
          1   -1    0    0  501    0  0.00000000000E+00  0.00000000000E+00  0.68443274846E+03  0.68443274846E+03  0.00000000000E+00 0. -1.
         -1   -1    0    0    0  501 -0.00000000000E+00 -0.00000000000E+00 -0.31983115067E+02  0.31983115067E+02  0.00000000000E+00 0.  1.
         25    2    1    2    0    0 -0.88637506352E+02 -0.78719988948E+02  0.41242293206E+03  0.44698191381E+03  0.12508681863E+03 0.  0.
          5    1    3    3  502    0 -0.66735919960E+02 -0.10560870018E+03  0.23522709688E+03  0.26637593749E+03  0.41800000000E+01 0.  1.
         -5    1    3    3    0  502 -0.21901586392E+02  0.26888711235E+02  0.17719583517E+03  0.18060597632E+03  0.41800000000E+01 0.  1.
        -11    1    1    2    0    0  0.24331062274E+02  0.36799841661E+02  0.10880414887E+03  0.11740771588E+03  0.00000000000E+00 0.  1.
         11    1    1    2    0    0  0.64306444078E+02  0.41920147287E+02  0.13122255247E+03  0.15202623384E+03  0.00000000000E+00 0. -1.
</event>
<event>
 7    1  0.2556591E-009  0.6326079E+02  0.7561462E-02  0.1384636E+00
         -1   -1    0    0    0  501 -0.00000000000E+00  0.00000000000E+00  0.25788839105E+02  0.25788839105E+02  0.00000000000E+00 0.  1.
          1   -1    0    0  501    0  0.00000000000E+00 -0.00000000000E+00 -0.60164077134E+03  0.60164077134E+03  0.00000000000E+00 0. -1.
         25    2    1    2    0    0 -0.15856298682E+02 -0.13870726571E+02 -0.55688678139E+03  0.57115095561E+03  0.12508680001E+03 0.  0.
          5    1    3    3  502    0 -0.19311910362E+02 -0.47380436825E+02 -0.94699167576E+02  0.10771843118E+03  0.41800000000E+01 0. -1.
         -5    1    3    3    0  502  0.34556116800E+01  0.33509710254E+02 -0.46218761382E+03  0.46343252443E+03  0.41800000000E+01 0. -1.
        -11    1    1    2    0    0  0.16245071177E+02  0.25157637265E+02 -0.28617777600E+02  0.41422050227E+02  0.00000000000E+00 0. -1.
         11    1    1    2    0    0 -0.38877249434E+00 -0.11286910693E+02  0.96526267621E+01  0.14856604607E+02  0.00000000000E+00 0.  1.
</event>
<event>
 7    1  0.2556591E-009  0.1005137E+03  0.7561462E-02  0.1279219E+00
          3   -1    0    0  501    0  0.00000000000E+00  0.00000000000E+00  0.36685180058E+02  0.36685180058E+02  0.00000000000E+00 0. -1.
         -3   -1    0    0    0  501 -0.00000000000E+00 -0.00000000000E+00 -0.45048755158E+03  0.45048755158E+03  0.00000000000E+00 0.  1.
         25    2    1    2    0    0  0.20674269476E+02  0.51744628548E+02 -0.30143528365E+03  0.33108459478E+03  0.12509535031E+03 0.  0.
          5    1    3    3  502    0 -0.35601110862E+02  0.48561392759E+02 -0.68086533356E+02  0.90988440946E+02  0.41800000000E+01 0. -1.
         -5    1    3    3    0  502  0.56275380339E+02  0.31832357890E+01 -0.23334875030E+03  0.24009615384E+03  0.41800000000E+01 0. -1.
        -11    1    1    2    0    0  0.90276138967E+00 -0.60758294473E+02 -0.11737723319E+03  0.13217337174E+03  0.00000000000E+00 0.  1.
         11    1    1    2    0    0 -0.21577030866E+02  0.90136659255E+01  0.50101453213E+01  0.23914765116E+02  0.00000000000E+00 0. -1.
</event>
<event>
 7    1  0.2556591E-009  0.1078652E+03  0.7561462E-02  0.1264575E+00
          2   -1    0    0  501    0  0.00000000000E+00  0.00000000000E+00  0.30605608298E+03  0.30605608298E+03  0.00000000000E+00 0. -1.
         -2   -1    0    0    0  501 -0.00000000000E+00 -0.00000000000E+00 -0.56210655215E+02  0.56210655215E+02  0.00000000000E+00 0.  1.
         25    2    1    2    0    0 -0.47007016009E+02 -0.37180951087E+01  0.62901395407E+02  0.14774053563E+03  0.12508875465E+03 0.  0.
          5    1    3    3  502    0 -0.41405794153E+02  0.54747393381E+02  0.11795407467E+02  0.69773353859E+02  0.41800000000E+01 0.  1.
         -5    1    3    3    0  502 -0.56012218553E+01 -0.58465488489E+02  0.51105987940E+02  0.77967181775E+02  0.41800000000E+01 0.  1.
        -11    1    1    2    0    0  0.19940626191E+01  0.33852284682E+02  0.13600480684E+03  0.14016868747E+03  0.00000000000E+00 0. -1.
         11    1    1    2    0    0  0.45012953390E+02 -0.30134189573E+02  0.50939225524E+02  0.74357515095E+02  0.00000000000E+00 0.  1.
</event>
<event>
 7    1  0.2556591E-009  0.1202784E+03  0.7561462E-02  0.1242638E+00
         -2   -1    0    0    0  501 -0.00000000000E+00  0.00000000000E+00  0.46164747899E+03  0.46164747899E+03  0.00000000000E+00 0.  1.
          2   -1    0    0  501    0  0.00000000000E+00 -0.00000000000E+00 -0.37127992905E+02  0.37127992905E+02  0.00000000000E+00 0. -1.
         25    2    1    2    0    0 -0.14740414039E+02  0.68469624591E+02  0.27377621726E+03  0.30903992090E+03  0.12508751448E+03 0.  0.
          5    1    3    3  502    0 -0.55052337851E+01 -0.28040369412E+02  0.14470253134E+03  0.14755631092E+03  0.41800000000E+01 0. -1.
         -5    1    3    3    0  502 -0.92351802540E+01  0.96509994003E+02  0.12907368591E+03  0.16148360998E+03  0.41800000000E+01 0. -1.
        -11    1    1    2    0    0  0.52247430977E+02 -0.27324477467E+02  0.67961835114E+02  0.89973508015E+02  0.00000000000E+00 0. -1.
         11    1    1    2    0    0 -0.37507016938E+02 -0.41145147124E+02  0.82781433720E+02  0.99762042983E+02  0.00000000000E+00 0.  1.
</event>
<event>
 7    1  0.2556591E-009  0.8310347E+02  0.7561462E-02  0.1320468E+00
          1   -1    0    0  501    0  0.00000000000E+00  0.00000000000E+00  0.22271275376E+03  0.22271275376E+03  0.00000000000E+00 0. -1.
         -1   -1    0    0    0  501 -0.00000000000E+00 -0.00000000000E+00 -0.72407995642E+02  0.72407995642E+02  0.00000000000E+00 0.  1.
         25    2    1    2    0    0 -0.52064757129E+02  0.26784732170E+02  0.48862676573E+02  0.14650144668E+03  0.12508777680E+03 0.  0.
          5    1    3    3  502    0 -0.13613367200E+02  0.11378975114E+02  0.87694901088E+02  0.89569374889E+02  0.41800000000E+01 0.  1.
         -5    1    3    3    0  502 -0.38451389929E+02  0.15405757057E+02 -0.38832224515E+02  0.56932071794E+02  0.41800000000E+01 0.  1.
        -11    1    1    2    0    0  0.29696181668E+02 -0.59624938837E+02  0.77651139451E+02  0.10230687169E+03  0.00000000000E+00 0. -1.
         11    1    1    2    0    0  0.22368575461E+02  0.32840206667E+02  0.23790942093E+02  0.46312431028E+02  0.00000000000E+00 0.  1.
</event>
<event>
 7    1  0.2556591E-009  0.8843186E+02  0.7561462E-02  0.1306694E+00
         -1   -1    0    0    0  501 -0.00000000000E+00  0.00000000000E+00  0.46363788518E+02  0.46363788518E+02  0.00000000000E+00 0.  1.
          1   -1    0    0  501    0  0.00000000000E+00 -0.00000000000E+00 -0.27164266335E+03  0.27164266335E+03  0.00000000000E+00 0. -1.
         25    2    1    2    0    0 -0.25260107774E+02  0.91950039021E+01 -0.13699054665E+03  0.18744507547E+03  0.12508647131E+03 0.  0.
          5    1    3    3  502    0  0.77667358601E+01  0.39517863503E+02  0.27940208334E+01  0.40586483885E+02  0.41800000000E+01 0.  1.
         -5    1    3    3    0  502 -0.33026843634E+02 -0.30322859601E+02 -0.13978456748E+03  0.14685859158E+03  0.41800000000E+01 0.  1.
        -11    1    1    2    0    0 -0.28678491917E+02 -0.21713240695E+02 -0.15658797118E+02  0.39231602661E+02  0.00000000000E+00 0.  1.
         11    1    1    2    0    0  0.53938599691E+02  0.12518236793E+02 -0.72629531071E+02  0.91329773747E+02  0.00000000000E+00 0. -1.
</event>
<event>
 7    1  0.2556591E-009  0.1471540E+03  0.7561462E-02  0.1204014E+00
          1   -1    0    0  501    0  0.00000000000E+00  0.00000000000E+00  0.12992064881E+03  0.12992064881E+03  0.00000000000E+00 0. -1.
         -1   -1    0    0    0  501 -0.00000000000E+00 -0.00000000000E+00 -0.23860065491E+03  0.23860065491E+03  0.00000000000E+00 0.  1.
         25    2    1    2    0    0  0.55573963632E+02 -0.11106928627E+03  0.45923215048E+01  0.17633332768E+03  0.12508997261E+03 0.  0.
          5    1    3    3  502    0  0.26241208906E+02  0.19537987468E+02 -0.22195283641E+02  0.39754710602E+02  0.41800000000E+01 0.  1.
         -5    1    3    3    0  502  0.29332754726E+02 -0.13060727374E+03  0.26787605146E+02  0.13657861707E+03  0.41800000000E+01 0.  1.
        -11    1    1    2    0    0 -0.49299738545E+01  0.39033208364E+02  0.10095040254E+02  0.40617801949E+02  0.00000000000E+00 0. -1.
         11    1    1    2    0    0 -0.50643989777E+02  0.72036077904E+02 -0.12336736786E+03  0.15157017409E+03  0.00000000000E+00 0.  1.
</event>
<event>
 7    1  0.2556591E-009  0.8899350E+02  0.7561462E-02  0.1305308E+00
         -1   -1    0    0    0  501 -0.00000000000E+00  0.00000000000E+00  0.91139452550E+02  0.91139452550E+02  0.00000000000E+00 0. -1.
          1   -1    0    0  501    0  0.00000000000E+00 -0.00000000000E+00 -0.22178450950E+03  0.22178450950E+03  0.00000000000E+00 0.  1.
         25    2    1    2    0    0 -0.67812945789E+02 -0.12436072723E+01 -0.14028481077E+03  0.19981734867E+03  0.12508797912E+03 0.  0.
          5    1    3    3  502    0 -0.83792721332E+02  0.15356015765E+02 -0.15149575090E+03  0.17385471610E+03  0.41800000000E+01 0. -1.
         -5    1    3    3    0  502  0.15979775543E+02 -0.16599623038E+02  0.11210940132E+02  0.25962632571E+02  0.41800000000E+01 0. -1.
        -11    1    1    2    0    0  0.29798578468E+02  0.75618902546E+01 -0.39883217902E+02  0.50356812183E+02  0.00000000000E+00 0.  1.
         11    1    1    2    0    0  0.38014367321E+02 -0.63182829823E+01  0.49522971720E+02  0.62749801200E+02  0.00000000000E+00 0. -1.
</event>
<event>
 7    1  0.2556591E-009  0.2847897E+03  0.7561462E-02  0.1093101E+00
         -2   -1    0    0    0  501 -0.00000000000E+00  0.00000000000E+00  0.17476280982E+03  0.17476280982E+03  0.00000000000E+00 0.  1.
          2   -1    0    0  501    0  0.00000000000E+00 -0.00000000000E+00 -0.51460617805E+03  0.51460617805E+03  0.00000000000E+00 0. -1.
         25    2    1    2    0    0  0.21995812157E+03 -0.16614000483E+03 -0.21624530428E+03  0.37201255145E+03  0.12508888986E+03 0.  0.
          5    1    3    3  502    0  0.12935990680E+02  0.16691766822E+01 -0.63209445242E+02  0.64676366421E+02  0.41800000000E+01 0. -1.
         -5    1    3    3    0  502  0.20702213089E+03 -0.16780918151E+03 -0.15303585904E+03  0.30733618503E+03  0.41800000000E+01 0. -1.
        -11    1    1    2    0    0 -0.13480550597E+03  0.46687516176E+02 -0.83405361180E+02  0.16525345043E+03  0.00000000000E+00 0.  1.
         11    1    1    2    0    0 -0.85152615602E+02  0.11945248865E+03 -0.40192702772E+02  0.15210298598E+03  0.00000000000E+00 0. -1.
</event>
<event>
 7    1  0.2556591E-009  0.1033570E+03  0.7561462E-02  0.1273391E+00
          1   -1    0    0  501    0  0.00000000000E+00  0.00000000000E+00  0.99020656370E+02  0.99020656370E+02  0.00000000000E+00 0. -1.
         -1   -1    0    0    0  501 -0.00000000000E+00 -0.00000000000E+00 -0.16739905754E+03  0.16739905754E+03  0.00000000000E+00 0.  1.
         25    2    1    2    0    0 -0.97205079606E+01  0.33926588227E+02  0.23107587318E+02  0.13201080650E+03  0.12508953105E+03 0.  0.
          5    1    3    3  502    0 -0.56702944300E+01  0.76230011179E+02 -0.11023836843E+02  0.77344451785E+02  0.41800000000E+01 0. -1.
         -5    1    3    3    0  502 -0.40502135307E+01 -0.42303422952E+02  0.34131424160E+02  0.54666354719E+02  0.41800000000E+01 0. -1.
        -11    1    1    2    0    0  0.48013322244E+01 -0.60369792246E+02 -0.88652677992E+02  0.10736322425E+03  0.00000000000E+00 0.  1.
         11    1    1    2    0    0  0.49191757362E+01  0.26443204018E+02 -0.28333104931E+01  0.27045683150E+02  0.00000000000E+00 0. -1.
</event>
<event>
 7    1  0.2556591E-009  0.7486483E+02  0.7561462E-02  0.1344290E+00
          1   -1    0    0  501    0  0.00000000000E+00  0.00000000000E+00  0.41869473363E+02  0.41869473363E+02  0.00000000000E+00 0. -1.
         -1   -1    0    0    0  501 -0.00000000000E+00 -0.00000000000E+00 -0.32054291909E+03  0.32054291909E+03  0.00000000000E+00 0.  1.
         25    2    1    2    0    0 -0.22976515731E+01  0.19630089968E+02 -0.10306779516E+03  0.16328482396E+03  0.12509333996E+03 0.  0.
          5    1    3    3  502    0 -0.13999324175E+02 -0.17715097078E+02 -0.11872609371E+03  0.12092627287E+03  0.41800000000E+01 0.  1.
         -5    1    3    3    0  502  0.11701672602E+02  0.37345187047E+02  0.15658298549E+02  0.42358551093E+02  0.41800000000E+01 0.  1.
        -11    1    1    2    0    0 -0.73227543377E+01  0.33053123825E+02 -0.35121206651E+02  0.48781460437E+02  0.00000000000E+00 0. -1.
         11    1    1    2    0    0  0.96204059108E+01 -0.52683213794E+02 -0.14048444391E+03  0.15034610805E+03  0.00000000000E+00 0.  1.
</event>
<event>
 7    1  0.2556591E-009  0.1019165E+03  0.7561462E-02  0.1276317E+00
          2   -1    0    0  501    0  0.00000000000E+00  0.00000000000E+00  0.32374192957E+03  0.32374192957E+03  0.00000000000E+00 0. -1.
         -2   -1    0    0    0  501 -0.00000000000E+00 -0.00000000000E+00 -0.54290333682E+02  0.54290333682E+02  0.00000000000E+00 0.  1.
         25    2    1    2    0    0  0.14947703648E+02  0.30894842102E+02  0.65491618243E+02  0.14530880431E+03  0.12509025317E+03 0.  0.
          5    1    3    3  502    0 -0.10819438589E+02  0.76066215900E+02  0.45800656695E+02  0.89544971977E+02  0.41800000000E+01 0.  1.
         -5    1    3    3    0  502  0.25767142237E+02 -0.45171373797E+02  0.19690961548E+02  0.55763832333E+02  0.41800000000E+01 0.  1.
        -11    1    1    2    0    0  0.15750960522E+01  0.20587219771E+02 -0.10788228505E+01  0.20675550880E+02  0.00000000000E+00 0.  1.
         11    1    1    2    0    0 -0.16522799700E+02 -0.51482061873E+02  0.20503880049E+03  0.21204790806E+03  0.00000000000E+00 0. -1.
</event>
<event>
 7    1  0.2556591E-009  0.1536068E+03  0.7561462E-02  0.1196110E+00
          1   -1    0    0  501    0  0.00000000000E+00  0.00000000000E+00  0.73954793025E+03  0.73954793025E+03  0.00000000000E+00 0. -1.
         -1   -1    0    0    0  501 -0.00000000000E+00 -0.00000000000E+00 -0.46151881799E+02  0.46151881799E+02  0.00000000000E+00 0.  1.
         25    2    1    2    0    0 -0.14338326647E+03 -0.15803517813E+02  0.27278104408E+03  0.33296434783E+03  0.12508895491E+03 0.  0.
          5    1    3    3  502    0 -0.37249167338E+02  0.15685656403E+02  0.23269614446E+01  0.40699231365E+02  0.41800000000E+01 0.  1.
         -5    1    3    3    0  502 -0.10613409913E+03 -0.31489174216E+02  0.27045408263E+03  0.29226511647E+03  0.41800000000E+01 0.  1.
        -11    1    1    2    0    0  0.96697619738E+02 -0.17736116384E+02  0.33858394514E+03  0.35256784793E+03  0.00000000000E+00 0.  1.
         11    1    1    2    0    0  0.46685646735E+02  0.33539634197E+02  0.82031059234E+02  0.10016761628E+03  0.00000000000E+00 0. -1.
</event>
<event>
 7    1  0.2556591E-009  0.8884362E+02  0.7561462E-02  0.1305676E+00
         -4   -1    0    0    0  501 -0.00000000000E+00  0.00000000000E+00  0.56368369046E+02  0.56368369046E+02  0.00000000000E+00 0.  1.
          4   -1    0    0  501    0  0.00000000000E+00 -0.00000000000E+00 -0.44011708907E+03  0.44011708907E+03  0.00000000000E+00 0. -1.
         25    2    1    2    0    0  0.42459096355E+02  0.23974629286E+02 -0.42359959038E+02  0.14078321328E+03  0.12509192339E+03 0.  0.
          5    1    3    3  502    0 -0.21107707159E+02  0.25239867941E+02 -0.65155538772E+02  0.73111578206E+02  0.41800000000E+01 0. -1.
         -5    1    3    3    0  502  0.63566803513E+02 -0.12652386543E+01  0.22795579734E+02  0.67671635071E+02  0.41800000000E+01 0. -1.
        -11    1    1    2    0    0 -0.59782096138E+02 -0.17250675818E+02 -0.32507129679E+03  0.33097255601E+03  0.00000000000E+00 0. -1.
         11    1    1    2    0    0  0.17322999783E+02 -0.67239534681E+01 -0.16317464192E+02  0.24729688825E+02  0.00000000000E+00 0.  1.
</event>
<event>
 7    1  0.2556591E-009  0.1365007E+03  0.7561462E-02  0.1218117E+00
         -1   -1    0    0    0  501 -0.00000000000E+00  0.00000000000E+00  0.20092223349E+03  0.20092223349E+03  0.00000000000E+00 0.  1.
          1   -1    0    0  501    0  0.00000000000E+00 -0.00000000000E+00 -0.14920902662E+03  0.14920902662E+03  0.00000000000E+00 0. -1.
         25    2    1    2    0    0  0.12822712455E+02 -0.13323347924E+03  0.20202695801E+02  0.18431074280E+03  0.12508684603E+03 0.  0.
          5    1    3    3  502    0  0.18411981624E+02 -0.47662505607E+02  0.68688584157E+02  0.85710614871E+02  0.41800000000E+01 0.  1.
         -5    1    3    3    0  502 -0.55892691693E+01 -0.85570973633E+02 -0.48485888357E+02  0.98600127932E+02  0.41800000000E+01 0.  1.
        -11    1    1    2    0    0  0.65068551297E+01  0.50575933361E+02 -0.31647169146E+02  0.60015060727E+02  0.00000000000E+00 0.  1.
         11    1    1    2    0    0 -0.19329567584E+02  0.82657545879E+02  0.63157680212E+02  0.10580545659E+03  0.00000000000E+00 0. -1.
</event>
<event>
 7    1  0.2556591E-009  0.1060251E+03  0.7561462E-02  0.1268113E+00
         -2   -1    0    0    0  501 -0.00000000000E+00  0.00000000000E+00  0.32656032338E+02  0.32656032338E+02  0.00000000000E+00 0.  1.
          2   -1    0    0  501    0  0.00000000000E+00 -0.00000000000E+00 -0.52668037482E+03  0.52668037482E+03  0.00000000000E+00 0. -1.
         25    2    1    2    0    0  0.17510216937E+02  0.66564662387E+01 -0.42194418534E+03  0.44049816050E+03  0.12510322786E+03 0.  0.
          5    1    3    3  502    0 -0.45974484842E+02 -0.27832224461E+02 -0.19319492866E+03  0.20057427261E+03  0.41800000000E+01 0. -1.
         -5    1    3    3    0  502  0.63484701779E+02  0.34488690699E+02 -0.22874925669E+03  0.23992388789E+03  0.41800000000E+01 0. -1.
        -11    1    1    2    0    0 -0.24211824111E+01  0.38289058222E+02 -0.81082604003E+01  0.39212982423E+02  0.00000000000E+00 0.  1.
         11    1    1    2    0    0 -0.15089034526E+02 -0.44945524460E+02 -0.63971896739E+02  0.79625264234E+02  0.00000000000E+00 0. -1.
</event>
<event>
 7    1  0.2556591E-009  0.9356785E+02  0.7561462E-02  0.1294435E+00
          1   -1    0    0  501    0  0.00000000000E+00  0.00000000000E+00  0.27976314176E+03  0.27976314176E+03  0.00000000000E+00 0. -1.
         -1   -1    0    0    0  501 -0.00000000000E+00 -0.00000000000E+00 -0.48028871431E+02  0.48028871431E+02  0.00000000000E+00 0.  1.
         25    2    1    2    0    0  0.98203293735E+00  0.34370820832E+02  0.10434422627E+03  0.16648886369E+03  0.12509399051E+03 0.  0.
          5    1    3    3  502    0 -0.14302151627E+02  0.63917556687E+02  0.10030964015E+02  0.66393510474E+02  0.41800000000E+01 0. -1.
         -5    1    3    3    0  502  0.15284184564E+02 -0.29546735854E+02  0.94313262256E+02  0.10009535321E+03  0.41800000000E+01 0. -1.
        -11    1    1    2    0    0 -0.40975802811E+02 -0.18254031685E+02  0.27785784021E+02  0.52766238093E+02  0.00000000000E+00 0. -1.
         11    1    1    2    0    0  0.39993769874E+02 -0.16116789147E+02  0.99604260034E+02  0.10853691141E+03  0.00000000000E+00 0.  1.
</event>
<event>
 7    1  0.2556591E-009  0.1145495E+03  0.7561462E-02  0.1252370E+00
          2   -1    0    0  501    0  0.00000000000E+00  0.00000000000E+00  0.34490592058E+03  0.34490592058E+03  0.00000000000E+00 0. -1.
         -2   -1    0    0    0  501 -0.00000000000E+00 -0.00000000000E+00 -0.49552452899E+02  0.49552452899E+02  0.00000000000E+00 0.  1.
         25    2    1    2    0    0  0.86019618788E+01 -0.41915807763E+02  0.73357437828E+02  0.15118239196E+03  0.12507547028E+03 0.  0.
          5    1    3    3  502    0 -0.42187233254E+02  0.22453409478E+02  0.40386273774E+02  0.62709183985E+02  0.41800000000E+01 0.  1.
         -5    1    3    3    0  502  0.50789195133E+02 -0.64369217241E+02  0.32971164054E+02  0.88473207976E+02  0.41800000000E+01 0.  1.
        -11    1    1    2    0    0 -0.48943187627E+02  0.18120396905E+02  0.10505711840E+03  0.11730636183E+03  0.00000000000E+00 0.  1.
         11    1    1    2    0    0  0.40341225748E+02  0.23795410858E+02  0.11693891145E+03  0.12596961969E+03  0.00000000000E+00 0. -1.
</event>
<event>
 7    1  0.2556591E-009  0.9502566E+02  0.7561462E-02  0.1291118E+00
          2   -1    0    0  501    0  0.00000000000E+00  0.00000000000E+00  0.15770775534E+03  0.15770775534E+03  0.00000000000E+00 0. -1.
         -2   -1    0    0    0  501 -0.00000000000E+00 -0.00000000000E+00 -0.88812482368E+02  0.88812482368E+02  0.00000000000E+00 0.  1.
         25    2    1    2    0    0  0.36096490948E+02 -0.15127926134E+01  0.70549506771E+02  0.14808647283E+03  0.12508847001E+03 0.  0.
          5    1    3    3  502    0  0.45100210975E+02 -0.40425959778E+02  0.85819040864E+02  0.10512215479E+03  0.41800000000E+01 0. -1.
         -5    1    3    3    0  502 -0.90037200271E+01  0.38913167164E+02 -0.15269534093E+02  0.42964318039E+02  0.41800000000E+01 0. -1.
        -11    1    1    2    0    0 -0.52903080823E+02 -0.24429260430E+02  0.18962253675E+02  0.61278803759E+02  0.00000000000E+00 0. -1.
         11    1    1    2    0    0  0.16806589876E+02  0.25942053043E+02 -0.20616487478E+02  0.37154961112E+02  0.00000000000E+00 0.  1.
</event>
<event>
 7    1  0.2688130E-009  0.1091607E+03  0.7561462E-02  0.1262132E+00
         -2   -1    0    0    0  501 -0.00000000000E+00  0.00000000000E+00  0.27383532795E+02  0.27383532795E+02  0.00000000000E+00 0.  1.
          2   -1    0    0  501    0  0.00000000000E+00 -0.00000000000E+00 -0.58697800547E+03  0.58697800547E+03  0.00000000000E+00 0. -1.
         25    2    1    2    0    0  0.55809245743E+02  0.57768180051E+01 -0.39341657077E+03  0.41661919902E+03  0.12508763048E+03 0.  0.
          5    1    3    3  502    0  0.83756948816E+02  0.23664816268E+02 -0.35566755014E+03  0.36618592085E+03  0.41800000000E+01 0. -1.
         -5    1    3    3    0  502 -0.27947703073E+02 -0.17887998262E+02 -0.37749020631E+02  0.50433278175E+02  0.41800000000E+01 0. -1.
        -11    1    1    2    0    0 -0.47605035467E+02  0.33116988348E+02 -0.13595931209E+03  0.14781038145E+03  0.00000000000E+00 0. -1.
         11    1    1    2    0    0 -0.82042102760E+01 -0.38893806353E+02 -0.30218589805E+02  0.49931957789E+02  0.00000000000E+00 0.  1.
</event>
<event>
 7    1  0.2556591E-009  0.1268705E+03  0.7561462E-02  0.1232175E+00
          2   -1    0    0  501    0  0.00000000000E+00  0.00000000000E+00  0.37855753385E+02  0.37855753385E+02  0.00000000000E+00 0.  1.
         -2   -1    0    0    0  501 -0.00000000000E+00 -0.00000000000E+00 -0.58022775725E+03  0.58022775725E+03  0.00000000000E+00 0. -1.
         25    2    1    2    0    0  0.65253770884E+00 -0.88699502720E+02 -0.19511996951E+03  0.24816885688E+03  0.12509177205E+03 0.  0.
          5    1    3    3  502    0  0.59820788319E+02 -0.61346777184E+02 -0.89433255855E+02  0.12392632262E+03  0.41800000000E+01 0. -1.
         -5    1    3    3    0  502 -0.59168250610E+02 -0.27352725536E+02 -0.10568671366E+03  0.12424253425E+03  0.41800000000E+01 0. -1.
        -11    1    1    2    0    0  0.22791245968E+02  0.66697897161E+02 -0.32029268406E+03  0.32795648163E+03  0.00000000000E+00 0. -1.
         11    1    1    2    0    0 -0.23443783677E+02  0.22001605559E+02 -0.26959350294E+02  0.41958172131E+02  0.00000000000E+00 0.  1.
</event>
<event>
 7    1  0.2556591E-009  0.1042796E+03  0.7561462E-02  0.1271545E+00
         -1   -1    0    0    0  501 -0.00000000000E+00  0.00000000000E+00  0.18305876229E+02  0.18305876229E+02  0.00000000000E+00 0.  1.
          1   -1    0    0  501    0  0.00000000000E+00 -0.00000000000E+00 -0.65674858798E+03  0.65674858798E+03  0.00000000000E+00 0. -1.
         25    2    1    2    0    0 -0.25675721681E+01  0.15195284486E+01 -0.30312586448E+03  0.32793560199E+03  0.12509023921E+03 0.  0.
          5    1    3    3  502    0  0.92607257455E+01  0.62102394303E+02 -0.14094987741E+03  0.15435934945E+03  0.41800000000E+01 0.  1.
         -5    1    3    3    0  502 -0.11828297914E+02 -0.60582865855E+02 -0.16217598707E+03  0.17357625255E+03  0.41800000000E+01 0.  1.
        -11    1    1    2    0    0 -0.31270444670E+02  0.25588633828E+02 -0.10024229522E+03  0.10807930718E+03  0.00000000000E+00 0. -1.
         11    1    1    2    0    0  0.33838016838E+02 -0.27108162277E+02 -0.23507455206E+03  0.23903955503E+03  0.00000000000E+00 0.  1.
</event>
<event>
 7    1  0.2556591E-009  0.1733559E+03  0.7561462E-02  0.1174393E+00
         -2   -1    0    0    0  501 -0.00000000000E+00  0.00000000000E+00  0.70935542576E+02  0.70935542576E+02  0.00000000000E+00 0.  1.
          2   -1    0    0  501    0  0.00000000000E+00 -0.00000000000E+00 -0.55967901947E+03  0.55967901947E+03  0.00000000000E+00 0. -1.
         25    2    1    2    0    0  0.11500698972E+01 -0.16279036429E+03 -0.31048685012E+03  0.37222470513E+03  0.12508845528E+03 0.  0.
          5    1    3    3  502    0 -0.34398859090E+02 -0.35220775600E+02 -0.20672436371E+02  0.53559374213E+02  0.41800000000E+01 0. -1.
         -5    1    3    3    0  502  0.35548928987E+02 -0.12756958869E+03 -0.28981441375E+03  0.31866533092E+03  0.41800000000E+01 0. -1.
        -11    1    1    2    0    0  0.81402996838E+01  0.18430104900E+02 -0.82463420119E+02  0.84889038770E+02  0.00000000000E+00 0. -1.
         11    1    1    2    0    0 -0.92903695810E+01  0.14436025939E+03 -0.95793206656E+02  0.17350081815E+03  0.00000000000E+00 0.  1.
</event>
<event>
 7    1  0.2556591E-009  0.1082276E+03  0.7561462E-02  0.1263888E+00
          2   -1    0    0  501    0  0.00000000000E+00  0.00000000000E+00  0.11472585491E+04  0.11472585491E+04  0.00000000000E+00 0. -1.
         -2   -1    0    0    0  501 -0.00000000000E+00 -0.00000000000E+00 -0.19461881917E+02  0.19461881917E+02  0.00000000000E+00 0.  1.
         25    2    1    2    0    0 -0.63182335404E+02  0.58438560958E+02  0.83203997138E+03  0.84578090615E+03  0.12509098420E+03 0.  0.
          5    1    3    3  502    0  0.50111634995E+01 -0.66203720718E+01  0.93984522209E+00  0.93432753908E+01  0.41800000000E+01 0. -1.
         -5    1    3    3    0  502 -0.68193498903E+02  0.65058933029E+02  0.83110012616E+03  0.83643763076E+03  0.41800000000E+01 0. -1.
        -11    1    1    2    0    0 -0.12997994710E+02 -0.27833207247E+02  0.15478823938E+03  0.15780695277E+03  0.00000000000E+00 0. -1.
         11    1    1    2    0    0  0.76180330114E+02 -0.30605353711E+02  0.14096845645E+03  0.16313257212E+03  0.00000000000E+00 0.  1.
</event>
<event>
 7    1  0.2556591E-009  0.6999875E+02  0.7561462E-02  0.1360097E+00
         -1   -1    0    0    0  501 -0.00000000000E+00  0.00000000000E+00  0.27084002672E+02  0.27084002672E+02  0.00000000000E+00 0.  1.
          1   -1    0    0  501    0  0.00000000000E+00 -0.00000000000E+00 -0.52207378757E+03  0.52207378757E+03  0.00000000000E+00 0. -1.
         25    2    1    2    0    0 -0.52051242312E+01 -0.42939897128E+02 -0.33267881848E+03  0.35804191571E+03  0.12509152273E+03 0.  0.
          5    1    3    3  502    0  0.38423993630E+01 -0.33161890922E+02 -0.34041924147E+03  0.34207777976E+03  0.41800000000E+01 0. -1.
         -5    1    3    3    0  502 -0.90475235942E+01 -0.97780062065E+01  0.77404229919E+01  0.15964135951E+02  0.41800000000E+01 0. -1.
        -11    1    1    2    0    0  0.10628021034E+02 -0.23467806942E+02 -0.86169807196E+02  0.89938470445E+02  0.00000000000E+00 0. -1.
         11    1    1    2    0    0 -0.54228968024E+01  0.66407704070E+02 -0.76141159224E+02  0.10117740409E+03  0.00000000000E+00 0.  1.
</event>
<event>
 7    1  0.2556591E-009  0.1299351E+03  0.7561462E-02  0.1227552E+00
         -1   -1    0    0    0  501 -0.00000000000E+00  0.00000000000E+00  0.66455672740E+03  0.66455672740E+03  0.00000000000E+00 0.  1.
          1   -1    0    0  501    0  0.00000000000E+00 -0.00000000000E+00 -0.47279070097E+02  0.47279070097E+02  0.00000000000E+00 0. -1.
         25    2    1    2    0    0  0.43986030158E+02 -0.82870963340E+02  0.53588400244E+03  0.55823007936E+03  0.12508712971E+03 0.  0.
          5    1    3    3  502    0  0.45392455309E+02 -0.10139107625E+03  0.52427602811E+03  0.53593231979E+03  0.41800000000E+01 0.  1.
         -5    1    3    3    0  502 -0.14064251506E+01  0.18520112911E+02  0.11607974326E+02  0.22297759571E+02  0.41800000000E+01 0.  1.
        -11    1    1    2    0    0 -0.71394399819E+02  0.67445402376E+02  0.67795070557E+02  0.11934074836E+03  0.00000000000E+00 0.  1.
         11    1    1    2    0    0  0.27408369661E+02  0.15425560965E+02  0.13598584306E+02  0.34264969775E+02  0.00000000000E+00 0. -1.
</event>
<event>
 7    1  0.2556591E-009  0.1050952E+03  0.7561462E-02  0.1269932E+00
          2   -1    0    0  501    0  0.00000000000E+00  0.00000000000E+00  0.10760405276E+04  0.10760405276E+04  0.00000000000E+00 0. -1.
         -2   -1    0    0    0  501 -0.00000000000E+00 -0.00000000000E+00 -0.17234616332E+02  0.17234616332E+02  0.00000000000E+00 0.  1.
         25    2    1    2    0    0 -0.85122983865E+02 -0.11742798752E+02  0.64490508477E+03  0.66252080253E+03  0.12508968672E+03 0.  0.
          5    1    3    3  502    0 -0.46030056097E+02  0.84516442026E+01  0.59076356537E+03  0.59262910738E+03  0.41800000000E+01 0. -1.
         -5    1    3    3    0  502 -0.39092927768E+02 -0.20194442954E+02  0.54141519403E+02  0.69891695150E+02  0.41800000000E+01 0. -1.
        -11    1    1    2    0    0  0.87034256306E+02  0.36353061859E+02  0.33995618294E+03  0.35279840305E+03  0.00000000000E+00 0.  1.
         11    1    1    2    0    0 -0.19112724406E+01 -0.24610263108E+02  0.73944643571E+02  0.77955938358E+02  0.00000000000E+00 0. -1.
</event>
<event>
 7    1  0.2556591E-009  0.1192795E+03  0.7561462E-02  0.1244290E+00
         -3   -1    0    0    0  501 -0.00000000000E+00  0.00000000000E+00  0.73470892989E+02  0.73470892989E+02  0.00000000000E+00 0.  1.
          3   -1    0    0  501    0  0.00000000000E+00 -0.00000000000E+00 -0.26587337043E+03  0.26587337043E+03  0.00000000000E+00 0. -1.
         25    2    1    2    0    0  0.14373671413E+02  0.82520793624E+02 -0.75167304608E+02  0.16826869529E+03  0.12509175162E+03 0.  0.
          5    1    3    3  502    0 -0.32532867842E+02  0.96089242176E+02 -0.51340716418E+02  0.11377553126E+03  0.41800000000E+01 0. -1.
         -5    1    3    3    0  502  0.46906539255E+02 -0.13568448552E+02 -0.23826588189E+02  0.54493164027E+02  0.41800000000E+01 0. -1.
        -11    1    1    2    0    0  0.95822965248E+00 -0.63855702403E+02 -0.14432652524E+02  0.65473432721E+02  0.00000000000E+00 0.  1.
         11    1    1    2    0    0 -0.15331901066E+02 -0.18665091222E+02 -0.10280252031E+03  0.10560213540E+03  0.00000000000E+00 0. -1.
</event>
<event>
 7    1  0.2556591E-009  0.9829449E+02  0.7561462E-02  0.1283924E+00
          2   -1    0    0  501    0  0.00000000000E+00  0.00000000000E+00  0.26339466087E+03  0.26339466087E+03  0.00000000000E+00 0. -1.
         -2   -1    0    0    0  501 -0.00000000000E+00 -0.00000000000E+00 -0.63591503070E+02  0.63591503070E+02  0.00000000000E+00 0.  1.
         25    2    1    2    0    0 -0.29210919934E+02 -0.99664026550E+01  0.19198348189E+03  0.23120886408E+03  0.12508906622E+03 0.  0.
          5    1    3    3  502    0  0.16775537376E+02 -0.41791312530E+02  0.16080496423E+03  0.16704383071E+03  0.41800000000E+01 0. -1.
         -5    1    3    3    0  502 -0.45986457310E+02  0.31824909875E+02  0.31178517659E+02  0.64165033374E+02  0.41800000000E+01 0. -1.
        -11    1    1    2    0    0  0.42592075027E+01 -0.39579436893E+02  0.40629875328E+00  0.39810020749E+02  0.00000000000E+00 0.  1.
         11    1    1    2    0    0  0.24951712431E+02  0.49545839548E+02  0.74133771565E+01  0.55967279107E+02  0.00000000000E+00 0. -1.
</event>
<event>
 7    1  0.2556591E-009  0.1351503E+03  0.7561462E-02  0.1220008E+00
          1   -1    0    0  501    0  0.00000000000E+00  0.00000000000E+00  0.10039751220E+04  0.10039751220E+04  0.00000000000E+00 0. -1.
         -1   -1    0    0    0  501 -0.00000000000E+00 -0.00000000000E+00 -0.47113132051E+02  0.47113132051E+02  0.00000000000E+00 0.  1.
         25    2    1    2    0    0  0.27371486321E+02  0.10169866968E+03  0.87204024280E+03  0.88723905306E+03  0.12508850681E+03 0.  0.
          5    1    3    3  502    0  0.63079514037E+02  0.99937490018E+02  0.51565703425E+03  0.52904269806E+03  0.41800000000E+01 0. -1.
         -5    1    3    3    0  502 -0.35708027716E+02  0.17611796577E+01  0.35638320855E+03  0.35819635500E+03  0.41800000000E+01 0. -1.
        -11    1    1    2    0    0 -0.19846229518E+02 -0.69850108564E+01  0.62921261481E+02  0.66345673176E+02  0.00000000000E+00 0. -1.
         11    1    1    2    0    0 -0.75252568031E+01 -0.94713658819E+02  0.21900485623E+02  0.97503527769E+02  0.00000000000E+00 0.  1.
</event>
<event>
 7    1  0.2806006E-009  0.1292106E+03  0.7561462E-02  0.1228632E+00
          2   -1    0    0  501    0  0.00000000000E+00  0.00000000000E+00  0.18069500816E+04  0.18069500816E+04  0.00000000000E+00 0.  1.
         -2   -1    0    0    0  501 -0.00000000000E+00 -0.00000000000E+00 -0.12098820841E+02  0.12098820841E+02  0.00000000000E+00 0. -1.
         25    2    1    2    0    0 -0.75515705387E+02 -0.58454689016E+02  0.11492360471E+04  0.11599614252E+04  0.12508974231E+03 0.  0.
          5    1    3    3  502    0 -0.73907675765E+02 -0.77064402085E+02  0.11195585483E+04  0.11246466477E+04  0.41800000000E+01 0. -1.
         -5    1    3    3    0  502 -0.16080296223E+01  0.18609713069E+02  0.29677498777E+02  0.35314777550E+02  0.41800000000E+01 0. -1.
        -11    1    1    2    0    0  0.45076204870E+01  0.61194897220E+02  0.31524677397E+03  0.32116298446E+03  0.00000000000E+00 0.  1.
         11    1    1    2    0    0  0.71008084900E+02 -0.27402082045E+01  0.33036843970E+03  0.33792449276E+03  0.00000000000E+00 0. -1.
</event>
<event>
 7    1  0.2556591E-009  0.1049314E+03  0.7561462E-02  0.1270255E+00
         -2   -1    0    0    0  501 -0.00000000000E+00  0.00000000000E+00  0.55077697763E+02  0.55077697763E+02  0.00000000000E+00 0.  1.
          2   -1    0    0  501    0  0.00000000000E+00 -0.00000000000E+00 -0.22603987746E+03  0.22603987746E+03  0.00000000000E+00 0. -1.
         25    2    1    2    0    0  0.22602770677E+02 -0.77029935119E+01 -0.11357637789E+03  0.17063762936E+03  0.12508951030E+03 0.  0.
          5    1    3    3  502    0  0.70490448340E+02 -0.13211131787E+02 -0.39006430566E+02  0.81746017248E+02  0.41800000000E+01 0. -1.
         -5    1    3    3    0  502 -0.47887677664E+02  0.55081382754E+01 -0.74569947325E+02  0.88891612109E+02  0.41800000000E+01 0. -1.
        -11    1    1    2    0    0  0.20861666656E+02 -0.26929079384E+02 -0.56081700260E+01  0.34522978191E+02  0.00000000000E+00 0.  1.
         11    1    1    2    0    0 -0.43464437333E+02  0.34632072896E+02 -0.51777631779E+02  0.75956967675E+02  0.00000000000E+00 0. -1.
</event>
<event>
 7    1  0.2556591E-009  0.8314086E+02  0.7561462E-02  0.1320367E+00
          2   -1    0    0  501    0  0.00000000000E+00  0.00000000000E+00  0.34111808732E+02  0.34111808732E+02  0.00000000000E+00 0. -1.
         -2   -1    0    0    0  501 -0.00000000000E+00 -0.00000000000E+00 -0.34740172182E+03  0.34740172182E+03  0.00000000000E+00 0.  1.
         25    2    1    2    0    0  0.55359492661E+01  0.31089206460E+02 -0.18010736313E+03  0.22154876007E+03  0.12509198753E+03 0.  0.
          5    1    3    3  502    0 -0.32762990598E+02  0.39228347010E+02 -0.17437231850E+03  0.18175658068E+03  0.41800000000E+01 0. -1.
         -5    1    3    3    0  502  0.38298939864E+02 -0.81391405496E+01 -0.57350446260E+01  0.39792179388E+02  0.41800000000E+01 0. -1.
        -11    1    1    2    0    0  0.22065459159E+02 -0.40783130550E+02 -0.11846550365E+03  0.12721723067E+03  0.00000000000E+00 0.  1.
         11    1    1    2    0    0 -0.27601408425E+02  0.96939240902E+01 -0.14717046313E+02  0.32747539808E+02  0.00000000000E+00 0. -1.
</event>
<event>
 7    1  0.2556591E-009  0.1361004E+03  0.7561462E-02  0.1218675E+00
          1   -1    0    0  501    0  0.00000000000E+00  0.00000000000E+00  0.84906145146E+03  0.84906145146E+03  0.00000000000E+00 0. -1.
         -1   -1    0    0    0  501 -0.00000000000E+00 -0.00000000000E+00 -0.27539615640E+02  0.27539615640E+02  0.00000000000E+00 0.  1.
         25    2    1    2    0    0 -0.68812774405E+02 -0.80185103465E+02  0.54099172247E+03  0.56522962725E+03  0.12509052320E+03 0.  0.
          5    1    3    3  502    0 -0.83710620729E+02 -0.27519030574E+02  0.45307739953E+03  0.46158570974E+03  0.41800000000E+01 0. -1.
         -5    1    3    3    0  502  0.14897846324E+02 -0.52666072891E+02  0.87914322941E+02  0.10364391751E+03  0.41800000000E+01 0. -1.
        -11    1    1    2    0    0  0.49165973608E+02  0.93305595129E+02  0.18488105166E+03  0.21284790416E+03  0.00000000000E+00 0.  1.
         11    1    1    2    0    0  0.19646800796E+02 -0.13120491664E+02  0.95649061693E+02  0.98523535695E+02  0.00000000000E+00 0. -1.
</event>
<event>
 7    1  0.2556591E-009  0.1028937E+03  0.7561462E-02  0.1274326E+00
          2   -1    0    0  501    0  0.00000000000E+00  0.00000000000E+00  0.13688376624E+03  0.13688376624E+03  0.00000000000E+00 0. -1.
         -2   -1    0    0    0  501 -0.00000000000E+00 -0.00000000000E+00 -0.16519412843E+03  0.16519412843E+03  0.00000000000E+00 0.  1.
         25    2    1    2    0    0 -0.92219125617E+02  0.81661776550E+01 -0.65983268199E+02  0.16903037713E+03  0.12508566314E+03 0.  0.
          5    1    3    3  502    0 -0.90871380524E+02  0.12018889638E+02 -0.99300957784E+02  0.13520434210E+03  0.41800000000E+01 0. -1.
         -5    1    3    3    0  502 -0.13477450923E+01 -0.38527119832E+01  0.33317689585E+02  0.33826035029E+02  0.41800000000E+01 0. -1.
        -11    1    1    2    0    0  0.26057489632E+02  0.23271323696E+02 -0.19605048267E+02  0.40061267953E+02  0.00000000000E+00 0.  1.
         11    1    1    2    0    0  0.66161635984E+02 -0.31437501351E+02  0.57277954274E+02  0.92986249592E+02  0.00000000000E+00 0. -1.
</event>
<event>
 7    1  0.2556591E-009  0.1013619E+03  0.7561462E-02  0.1277458E+00
         -2   -1    0    0    0  501 -0.00000000000E+00  0.00000000000E+00  0.22577673549E+02  0.22577673549E+02  0.00000000000E+00 0.  1.
          2   -1    0    0  501    0  0.00000000000E+00 -0.00000000000E+00 -0.69686169783E+03  0.69686169783E+03  0.00000000000E+00 0. -1.
         25    2    1    2    0    0  0.53043190181E+00 -0.54987409957E+02 -0.28359891607E+03  0.31480791223E+03  0.12510707331E+03 0.  0.
          5    1    3    3  502    0 -0.38127332442E+02  0.74907112375E-01 -0.21587287542E+03  0.21925389354E+03  0.41800000000E+01 0.  1.
         -5    1    3    3    0  502  0.38657764343E+02 -0.55062317069E+02 -0.67726040646E+02  0.95554018684E+02  0.41800000000E+01 0.  1.
        -11    1    1    2    0    0  0.39373790075E+02  0.33157716271E+02 -0.28442615534E+03  0.28904665252E+03  0.00000000000E+00 0. -1.
         11    1    1    2    0    0 -0.39904221976E+02  0.21829693686E+02 -0.10625895287E+03  0.11558480663E+03  0.00000000000E+00 0.  1.
</event>
<event>
 7    1  0.2556591E-009  0.1226875E+03  0.7561462E-02  0.1238728E+00
          2   -1    0    0  501    0  0.00000000000E+00  0.00000000000E+00  0.11052711921E+03  0.11052711921E+03  0.00000000000E+00 0. -1.
         -2   -1    0    0    0  501 -0.00000000000E+00 -0.00000000000E+00 -0.14220955568E+03  0.14220955568E+03  0.00000000000E+00 0.  1.
         25    2    1    2    0    0 -0.25160893355E+02  0.34986719579E+02 -0.80393226674E+01  0.13254906393E+03  0.12508989782E+03 0.  0.
          5    1    3    3  502    0  0.27948657321E+02 -0.34122671840E+02  0.39002397901E+01  0.44476605648E+02  0.41800000000E+01 0.  1.
         -5    1    3    3    0  502 -0.53109550676E+02  0.69109391419E+02 -0.11939562457E+02  0.88072458277E+02  0.41800000000E+01 0.  1.
        -11    1    1    2    0    0 -0.29719581306E+01 -0.69342175086E+02  0.98066856247E+00  0.69412761734E+02  0.00000000000E+00 0. -1.
         11    1    1    2    0    0  0.28132851486E+02  0.34355455507E+02 -0.24623782373E+02  0.50774849228E+02  0.00000000000E+00 0.  1.
</event>
<event>
 7    1  0.2556591E-009  0.1172643E+03  0.7561462E-02  0.1247680E+00
          2   -1    0    0  501    0  0.00000000000E+00  0.00000000000E+00  0.58127460363E+02  0.58127460363E+02  0.00000000000E+00 0. -1.
         -2   -1    0    0    0  501 -0.00000000000E+00 -0.00000000000E+00 -0.40915806213E+03  0.40915806213E+03  0.00000000000E+00 0.  1.
         25    2    1    2    0    0 -0.10570897306E+03 -0.83434739036E+01 -0.23163802948E+03  0.28381159200E+03  0.12509533369E+03 0.  0.
          5    1    3    3  502    0 -0.50660859621E+02 -0.21193240669E+02 -0.11198210396E+02  0.56200964971E+02  0.41800000000E+01 0. -1.
         -5    1    3    3    0  502 -0.55048113441E+02  0.12849766766E+02 -0.22043981908E+03  0.22761062703E+03  0.41800000000E+01 0. -1.
        -11    1    1    2    0    0  0.31091706298E+02 -0.26094976775E+02 -0.85369693899E+02  0.94528443602E+02  0.00000000000E+00 0.  1.
         11    1    1    2    0    0  0.74617266764E+02  0.34438450679E+02 -0.34022878393E+02  0.88945486893E+02  0.00000000000E+00 0. -1.
</event>
<event>
 7    1  0.2556591E-009  0.1051769E+03  0.7561462E-02  0.1269771E+00
          1   -1    0    0  501    0  0.00000000000E+00  0.00000000000E+00  0.12324538010E+03  0.12324538010E+03  0.00000000000E+00 0. -1.
         -1   -1    0    0    0  501 -0.00000000000E+00 -0.00000000000E+00 -0.18089538243E+03  0.18089538243E+03  0.00000000000E+00 0.  1.
         25    2    1    2    0    0  0.90991584416E+02  0.40956403929E+02 -0.54594925113E+02  0.16907074842E+03  0.12508963452E+03 0.  0.
          5    1    3    3  502    0  0.34781812675E+02 -0.77421283060E+01  0.36646277612E+02  0.51284862352E+02  0.41800000000E+01 0.  1.
         -5    1    3    3    0  502  0.56209771741E+02  0.48698532235E+02 -0.91241202725E+02  0.11778588606E+03  0.41800000000E+01 0.  1.
        -11    1    1    2    0    0 -0.65926699348E+02 -0.32754315204E+02 -0.44445412562E+02  0.85991683023E+02  0.00000000000E+00 0.  1.
         11    1    1    2    0    0 -0.25064885068E+02 -0.82020887247E+01  0.41390335345E+02  0.49078331093E+02  0.00000000000E+00 0. -1.
</event>
<event>
 7    1  0.2556591E-009  0.1088829E+03  0.7561462E-02  0.1262653E+00
         -1   -1    0    0    0  501 -0.00000000000E+00  0.00000000000E+00  0.57496856998E+02  0.57496856998E+02  0.00000000000E+00 0.  1.
          1   -1    0    0  501    0  0.00000000000E+00 -0.00000000000E+00 -0.28512673070E+03  0.28512673070E+03  0.00000000000E+00 0. -1.
         25    2    1    2    0    0  0.64838802022E+02  0.53924413439E+01 -0.10275039280E+03  0.17446774380E+03  0.12509277251E+03 0.  0.
          5    1    3    3  502    0  0.26595189959E+02 -0.51212731973E+02 -0.92463235714E+01  0.58591935833E+02  0.41800000000E+01 0. -1.
         -5    1    3    3    0  502  0.38243612063E+02  0.56605173317E+02 -0.93504069224E+02  0.11587580796E+03  0.41800000000E+01 0. -1.
        -11    1    1    2    0    0  0.12558460396E+02  0.47107887651E+01 -0.73489484692E+02  0.74703485987E+02  0.00000000000E+00 0. -1.
         11    1    1    2    0    0 -0.77397262418E+02 -0.10103230109E+02 -0.51389996212E+02  0.93452357911E+02  0.00000000000E+00 0.  1.
</event>
<event>
 7    1  0.2556591E-009  0.1053528E+03  0.7561462E-02  0.1269426E+00
          2   -1    0    0  501    0  0.00000000000E+00  0.00000000000E+00  0.93619893266E+02  0.93619893266E+02  0.00000000000E+00 0. -1.
         -2   -1    0    0    0  501 -0.00000000000E+00 -0.00000000000E+00 -0.12974515080E+03  0.12974515080E+03  0.00000000000E+00 0.  1.
         25    2    1    2    0    0 -0.15831071928E+01 -0.24726275675E+02 -0.11308148345E+02  0.12802634058E+03  0.12509586214E+03 0.  0.
          5    1    3    3  502    0  0.60609721942E+02 -0.16885821608E+02  0.45842958977E+01  0.63223077544E+02  0.41800000000E+01 0.  1.
         -5    1    3    3    0  502 -0.62192829135E+02 -0.78404540669E+01 -0.15892444243E+02  0.64803263034E+02  0.41800000000E+01 0.  1.
        -11    1    1    2    0    0  0.31884643893E+02  0.39787013813E+02 -0.32729956689E+02  0.60587845722E+02  0.00000000000E+00 0.  1.
         11    1    1    2    0    0 -0.30301536700E+02 -0.15060738138E+02  0.79128475038E+01  0.34750857763E+02  0.00000000000E+00 0. -1.
</event>
<event>
 7    1  0.2556591E-009  0.9334738E+02  0.7561462E-02  0.1294942E+00
          2   -1    0    0  501    0  0.00000000000E+00  0.00000000000E+00  0.67701103745E+03  0.67701103745E+03  0.00000000000E+00 0. -1.
         -2   -1    0    0    0  501 -0.00000000000E+00 -0.00000000000E+00 -0.34853592643E+02  0.34853592643E+02  0.00000000000E+00 0.  1.
         25    2    1    2    0    0 -0.32870377421E+01  0.81154660484E+02  0.51316102302E+03  0.53439675372E+03  0.12509504910E+03 0.  0.
          5    1    3    3  502    0  0.98263099850E+01  0.12984948202E+02  0.40784009664E+03  0.40818645504E+03  0.41800000000E+01 0. -1.
         -5    1    3    3    0  502 -0.13113347727E+02  0.68169712282E+02  0.10532092638E+03  0.12621029869E+03  0.41800000000E+01 0. -1.
        -11    1    1    2    0    0 -0.24291180804E+02 -0.62468172838E+02  0.12759241801E+03  0.14412549815E+03  0.00000000000E+00 0. -1.
         11    1    1    2    0    0  0.27578218546E+02 -0.18686487646E+02  0.14040037757E+01  0.33342378220E+02  0.00000000000E+00 0.  1.
</event>
<event>
 7    1  0.2556591E-009  0.1236976E+03  0.7561462E-02  0.1237119E+00
         -2   -1    0    0    0  501 -0.00000000000E+00  0.00000000000E+00  0.10895319642E+03  0.10895319642E+03  0.00000000000E+00 0.  1.
          2   -1    0    0  501    0  0.00000000000E+00 -0.00000000000E+00 -0.18184280424E+03  0.18184280424E+03  0.00000000000E+00 0. -1.
         25    2    1    2    0    0 -0.69978355821E+02 -0.15449099579E+01 -0.89181075459E+02  0.16881614935E+03  0.12508505519E+03 0.  0.
          5    1    3    3  502    0 -0.58979975254E+02 -0.49516186669E+02 -0.91130220308E+02  0.11938458727E+03  0.41800000000E+01 0. -1.
         -5    1    3    3    0  502 -0.10998380567E+02  0.47971276712E+02  0.19491448486E+01  0.49431562084E+02  0.41800000000E+01 0. -1.
        -11    1    1    2    0    0 -0.11374065937E+02 -0.31181171270E+02  0.38482337814E+01  0.33413226737E+02  0.00000000000E+00 0.  1.
         11    1    1    2    0    0  0.81352421758E+02  0.32726081228E+02  0.12443233860E+02  0.88566624567E+02  0.00000000000E+00 0. -1.
</event>
<event>
 7    1  0.2556591E-009  0.1329264E+03  0.7561462E-02  0.1223177E+00
         -1   -1    0    0    0  501 -0.00000000000E+00  0.00000000000E+00  0.13982854845E+04  0.13982854845E+04  0.00000000000E+00 0.  1.
          1   -1    0    0  501    0  0.00000000000E+00 -0.00000000000E+00 -0.13312400521E+02  0.13312400521E+02  0.00000000000E+00 0. -1.
         25    2    1    2    0    0  0.34861570339E+02  0.71927315987E+02  0.87820399351E+03  0.89066194666E+03  0.12509029197E+03 0.  0.
          5    1    3    3  502    0 -0.14999199448E+02 -0.30128502366E+02  0.24522380814E+03  0.24755785408E+03  0.41800000000E+01 0.  1.
         -5    1    3    3    0  502  0.49860769787E+02  0.10205581835E+03  0.63298018537E+03  0.64310409258E+03  0.41800000000E+01 0.  1.
        -11    1    1    2    0    0 -0.58969810679E+02 -0.22193336936E+02  0.32074122345E+03  0.32687140468E+03  0.00000000000E+00 0. -1.
         11    1    1    2    0    0  0.24108240340E+02 -0.49733979050E+02  0.18602786698E+03  0.19406453364E+03  0.00000000000E+00 0.  1.
</event>
<event>
 7    1  0.2556591E-009  0.1189215E+03  0.7561462E-02  0.1244887E+00
          1   -1    0    0  501    0  0.00000000000E+00  0.00000000000E+00  0.63991079415E+03  0.63991079415E+03  0.00000000000E+00 0. -1.
         -1   -1    0    0    0  501 -0.00000000000E+00 -0.00000000000E+00 -0.38295543778E+02  0.38295543778E+02  0.00000000000E+00 0.  1.
         25    2    1    2    0    0  0.87866626197E+02 -0.45565415963E+02  0.20708260346E+03  0.26139220658E+03  0.12508369150E+03 0.  0.
          5    1    3    3  502    0  0.43397026766E+02 -0.30063109226E+01 -0.16503162000E+01  0.43732548303E+02  0.41800000000E+01 0. -1.
         -5    1    3    3    0  502  0.44469599431E+02 -0.42559105041E+02  0.20873291966E+03  0.21765965828E+03  0.41800000000E+01 0. -1.
        -11    1    1    2    0    0  0.83320896107E+01 -0.16136201057E+02  0.33250814465E+02  0.37886902280E+02  0.00000000000E+00 0.  1.
         11    1    1    2    0    0 -0.96198715807E+02  0.61701617020E+02  0.36128183245E+03  0.37892722906E+03  0.00000000000E+00 0. -1.
</event>
<event>
 7    1  0.2556591E-009  0.1007335E+03  0.7561462E-02  0.1278761E+00
         -1   -1    0    0    0  501 -0.00000000000E+00  0.00000000000E+00  0.45064444420E+02  0.45064444420E+02  0.00000000000E+00 0.  1.
          1   -1    0    0  501    0  0.00000000000E+00 -0.00000000000E+00 -0.26637701667E+03  0.26637701667E+03  0.00000000000E+00 0. -1.
         25    2    1    2    0    0 -0.10095821320E+02  0.14673504702E+02 -0.14635365644E+03  0.19334719252E+03  0.12508599742E+03 0.  0.
          5    1    3    3  502    0  0.42918833270E+02  0.36702717233E+02 -0.11406641835E+03  0.12734887474E+03  0.41800000000E+01 0. -1.
         -5    1    3    3    0  502 -0.53014654590E+02 -0.22029212531E+02 -0.32287238095E+02  0.65998317780E+02  0.41800000000E+01 0. -1.
        -11    1    1    2    0    0  0.28420851493E+02  0.28578694950E+02 -0.52052614371E+02  0.65832828190E+02  0.00000000000E+00 0.  1.
         11    1    1    2    0    0 -0.18325030173E+02 -0.43252199652E+02 -0.22906301433E+02  0.52261440383E+02  0.00000000000E+00 0. -1.
</event>
<event>
 7    1  0.2556591E-009  0.1124145E+03  0.7561462E-02  0.1256163E+00
         -3   -1    0    0    0  501 -0.00000000000E+00  0.00000000000E+00  0.25615176210E+02  0.25615176210E+02  0.00000000000E+00 0.  1.
          3   -1    0    0  501    0  0.00000000000E+00 -0.00000000000E+00 -0.52261786758E+03  0.52261786758E+03  0.00000000000E+00 0. -1.
         25    2    1    2    0    0  0.42832937265E+02  0.26233543547E+01 -0.29527422604E+03  0.32353722500E+03  0.12509166597E+03 0.  0.
          5    1    3    3  502    0  0.37644922976E+02  0.60703126716E+02 -0.13252352126E+03  0.15060533160E+03  0.41800000000E+01 0. -1.
         -5    1    3    3    0  502  0.51880142888E+01 -0.58079772361E+02 -0.16275070478E+03  0.17293189340E+03  0.41800000000E+01 0. -1.
        -11    1    1    2    0    0  0.25940237501E+02  0.88340257538E+00 -0.87961536481E+02  0.91711003821E+02  0.00000000000E+00 0.  1.
         11    1    1    2    0    0 -0.68773174766E+02 -0.35067569301E+01 -0.11376692885E+03  0.13298481496E+03  0.00000000000E+00 0. -1.
</event>
<event>
 7    1  0.2556591E-009  0.8210172E+02  0.7561462E-02  0.1323191E+00
         -2   -1    0    0    0  501 -0.00000000000E+00  0.00000000000E+00  0.50753920123E+02  0.50753920123E+02  0.00000000000E+00 0.  1.
          2   -1    0    0  501    0  0.00000000000E+00 -0.00000000000E+00 -0.29271147411E+03  0.29271147411E+03  0.00000000000E+00 0. -1.
         25    2    1    2    0    0 -0.43123818108E+01  0.34656082198E+02 -0.76927601996E+02  0.15094486302E+03  0.12508738966E+03 0.  0.
          5    1    3    3  502    0 -0.40798464353E+02  0.51506438039E+02 -0.20630277398E+01  0.65872272896E+02  0.41800000000E+01 0.  1.
         -5    1    3    3    0  502  0.36486082542E+02 -0.16850355841E+02 -0.74864574257E+02  0.85072590121E+02  0.41800000000E+01 0.  1.
        -11    1    1    2    0    0 -0.20815361918E+02 -0.11467219657E+02  0.22420693224E+00  0.23766082706E+02  0.00000000000E+00 0.  1.
         11    1    1    2    0    0  0.25127743729E+02 -0.23188862541E+02 -0.16525415892E+03  0.16875444851E+03  0.00000000000E+00 0. -1.
</event>
<event>
 7    1  0.2556591E-009  0.1240491E+03  0.7561462E-02  0.1236563E+00
          1   -1    0    0  501    0  0.00000000000E+00  0.00000000000E+00  0.59288715660E+03  0.59288715660E+03  0.00000000000E+00 0. -1.
         -1   -1    0    0    0  501 -0.00000000000E+00 -0.00000000000E+00 -0.30225874346E+02  0.30225874346E+02  0.00000000000E+00 0.  1.
         25    2    1    2    0    0 -0.47098050933E+02 -0.38620214136E+02  0.19537652893E+03  0.23984390724E+03  0.12507343619E+03 0.  0.
          5    1    3    3  502    0 -0.16025501768E+02  0.45718596930E+02  0.58945438315E+02  0.76413636940E+02  0.41800000000E+01 0.  1.
         -5    1    3    3    0  502 -0.31072549164E+02 -0.84338811066E+02  0.13643109062E+03  0.16343027030E+03  0.41800000000E+01 0.  1.
        -11    1    1    2    0    0  0.62735467093E+02 -0.52167646342E+01  0.20622990535E+03  0.21562404163E+03  0.00000000000E+00 0.  1.
         11    1    1    2    0    0 -0.15637416160E+02  0.43836978771E+02  0.16105484797E+03  0.16764508208E+03  0.00000000000E+00 0. -1.
</event>
<event>
 7    1  0.2556591E-009  0.8317135E+02  0.7561462E-02  0.1320285E+00
         -1   -1    0    0    0  501 -0.00000000000E+00  0.00000000000E+00  0.34528907550E+03  0.34528907550E+03  0.00000000000E+00 0.  1.
          1   -1    0    0  501    0  0.00000000000E+00 -0.00000000000E+00 -0.36414697461E+02  0.36414697461E+02  0.00000000000E+00 0. -1.
         25    2    1    2    0    0 -0.10671626357E+02 -0.22584266021E+02  0.15383877888E+03  0.19984357483E+03  0.12508857594E+03 0.  0.
          5    1    3    3  502    0 -0.47715252034E+02 -0.20155253264E+02  0.15395171507E+03  0.16248563777E+03  0.41800000000E+01 0.  1.
         -5    1    3    3    0  502  0.37043625677E+02 -0.24290127575E+01 -0.11293618729E+00  0.37357937053E+02  0.41800000000E+01 0.  1.
        -11    1    1    2    0    0  0.40970326664E+02  0.22454352502E+02  0.35866629581E+02  0.58899751534E+02  0.00000000000E+00 0. -1.
         11    1    1    2    0    0 -0.30298700307E+02  0.12991351942E+00  0.11916896957E+03  0.12296044660E+03  0.00000000000E+00 0.  1.
</event>
<event>
 7    1  0.2556591E-009  0.1942330E+03  0.7561462E-02  0.1154698E+00
         -1   -1    0    0    0  501 -0.00000000000E+00  0.00000000000E+00  0.42952224113E+02  0.42952224113E+02  0.00000000000E+00 0.  1.
          1   -1    0    0  501    0  0.00000000000E+00 -0.00000000000E+00 -0.10966721178E+04  0.10966721178E+04  0.00000000000E+00 0. -1.
         25    2    1    2    0    0  0.83187993866E+02  0.16637080223E+03 -0.47451743790E+03  0.52479479447E+03  0.12507314369E+03 0.  0.
          5    1    3    3  502    0  0.67818120849E+02  0.61767877562E+02 -0.34776404061E+03  0.35968301121E+03  0.41800000000E+01 0. -1.
         -5    1    3    3    0  502  0.15369873017E+02  0.10460292467E+03 -0.12675339730E+03  0.16511178326E+03  0.41800000000E+01 0. -1.
        -11    1    1    2    0    0 -0.18928002551E+02 -0.85335109908E+02 -0.15251741887E+03  0.17578940048E+03  0.00000000000E+00 0.  1.
         11    1    1    2    0    0 -0.64259991315E+02 -0.81035692321E+02 -0.42668503687E+03  0.43904014691E+03  0.00000000000E+00 0. -1.
</event>
<event>
 7    1  0.2556591E-009  0.9588805E+02  0.7561462E-02  0.1289188E+00
         -2   -1    0    0    0  501 -0.00000000000E+00  0.00000000000E+00  0.29062946784E+02  0.29062946784E+02  0.00000000000E+00 0.  1.
          2   -1    0    0  501    0  0.00000000000E+00 -0.00000000000E+00 -0.44854332507E+03  0.44854332507E+03  0.00000000000E+00 0. -1.
         25    2    1    2    0    0 -0.20912002213E+02  0.35190351306E+02 -0.20199257983E+03  0.24108602140E+03  0.12508315132E+03 0.  0.
          5    1    3    3  502    0  0.14712009433E+02  0.58823087306E+02 -0.38273034220E+02  0.71825457674E+02  0.41800000000E+01 0. -1.
         -5    1    3    3    0  502 -0.35624011647E+02 -0.23632735999E+02 -0.16371954561E+03  0.16926056372E+03  0.41800000000E+01 0. -1.
        -11    1    1    2    0    0  0.39192263138E+01 -0.58813114701E+02 -0.10588119200E+03  0.12118238162E+03  0.00000000000E+00 0.  1.
         11    1    1    2    0    0  0.16992775900E+02  0.23622763395E+02 -0.11160660646E+03  0.11533786884E+03  0.00000000000E+00 0. -1.
</event>
<event>
 7    1  0.2556591E-009  0.1582767E+03  0.7561462E-02  0.1190656E+00
          1   -1    0    0  501    0  0.00000000000E+00  0.00000000000E+00  0.35624274662E+03  0.35624274662E+03  0.00000000000E+00 0. -1.
         -1   -1    0    0    0  501 -0.00000000000E+00 -0.00000000000E+00 -0.94882582673E+02  0.94882582673E+02  0.00000000000E+00 0.  1.
         25    2    1    2    0    0  0.64167106060E+02 -0.12199181142E+03  0.20251691270E+03  0.27506472289E+03  0.12509229510E+03 0.  0.
          5    1    3    3  502    0  0.21267621752E+02 -0.10231121299E+03  0.51083070790E+02  0.11639092989E+03  0.41800000000E+01 0. -1.
         -5    1    3    3    0  502  0.42899484309E+02 -0.19680598428E+02  0.15143384191E+03  0.15867379300E+03  0.41800000000E+01 0. -1.
        -11    1    1    2    0    0 -0.12604177431E+02  0.11119502666E+03  0.50297420394E+02  0.12269078914E+03  0.00000000000E+00 0.  1.
         11    1    1    2    0    0 -0.51562928629E+02  0.10796784760E+02  0.85458308497E+01  0.53369817265E+02  0.00000000000E+00 0. -1.
</event>
<event>
 7    1  0.2556591E-009  0.1337793E+03  0.7561462E-02  0.1221953E+00
          1   -1    0    0  501    0  0.00000000000E+00  0.00000000000E+00  0.36859074927E+03  0.36859074927E+03  0.00000000000E+00 0. -1.
         -1   -1    0    0    0  501 -0.00000000000E+00 -0.00000000000E+00 -0.63249613189E+02  0.63249613189E+02  0.00000000000E+00 0.  1.
         25    2    1    2    0    0  0.17910763290E+02  0.10315247039E+03  0.19299762983E+03  0.25269862349E+03  0.12508909465E+03 0.  0.
          5    1    3    3  502    0 -0.17707478040E+02  0.10566857064E+03  0.79047398053E+02  0.13321173048E+03  0.41800000000E+01 0.  1.
         -5    1    3    3    0  502  0.35618241331E+02 -0.25161002507E+01  0.11395023178E+03  0.11948689300E+03  0.41800000000E+01 0.  1.
        -11    1    1    2    0    0 -0.42475289628E+02 -0.48530957633E+02  0.17251221722E+02  0.66760832295E+02  0.00000000000E+00 0. -1.
         11    1    1    2    0    0  0.24564526338E+02 -0.54621512757E+02  0.95092284523E+02  0.11238090668E+03  0.00000000000E+00 0.  1.
</event>
<event>
 7    1  0.2556591E-009  0.1896703E+03  0.7561462E-02  0.1158759E+00
          2   -1    0    0  501    0  0.00000000000E+00  0.00000000000E+00  0.82749336991E+03  0.82749336991E+03  0.00000000000E+00 0. -1.
         -2   -1    0    0    0  501 -0.00000000000E+00 -0.00000000000E+00 -0.52009797528E+02  0.52009797528E+02  0.00000000000E+00 0.  1.
         25    2    1    2    0    0  0.15663542714E+03 -0.81362067590E+02  0.42123959855E+03  0.47354536319E+03  0.12509184040E+03 0.  0.
          5    1    3    3  502    0 -0.37799037272E+01 -0.10494593330E+02 -0.47702190798E+01  0.12831662068E+02  0.41800000000E+01 0.  1.
         -5    1    3    3    0  502  0.16041533086E+03 -0.70867474261E+02  0.42600981763E+03  0.46071370112E+03  0.41800000000E+01 0.  1.
        -11    1    1    2    0    0 -0.11505832750E+03  0.18347670494E+02  0.26214322874E+03  0.28686953152E+03  0.00000000000E+00 0. -1.
         11    1    1    2    0    0 -0.41577099639E+02  0.63014397097E+02  0.92100745093E+02  0.11908827273E+03  0.00000000000E+00 0.  1.
</event>
<event>
 7    1  0.2556591E-009  0.1214942E+03  0.7561462E-02  0.1240652E+00
         -1   -1    0    0    0  501 -0.00000000000E+00  0.00000000000E+00  0.58881010076E+03  0.58881010076E+03  0.00000000000E+00 0.  1.
          1   -1    0    0  501    0  0.00000000000E+00 -0.00000000000E+00 -0.33034423681E+02  0.33034423681E+02  0.00000000000E+00 0. -1.
         25    2    1    2    0    0 -0.73893901532E+02  0.73510034464E+01  0.20233264665E+03  0.24919931184E+03  0.12508977252E+03 0.  0.
          5    1    3    3  502    0 -0.62317067983E+02 -0.47121954753E+02  0.67773531588E+02  0.10351144654E+03  0.41800000000E+01 0. -1.
         -5    1    3    3    0  502 -0.11576833549E+02  0.54472958199E+02  0.13455911506E+03  0.14568786530E+03  0.41800000000E+01 0. -1.
        -11    1    1    2    0    0  0.39338935873E+02  0.36096153972E+02  0.24579040258E+03  0.25152217836E+03  0.00000000000E+00 0.  1.
         11    1    1    2    0    0  0.34554965658E+02 -0.43447157418E+02  0.10765262786E+03  0.12112303424E+03  0.00000000000E+00 0. -1.
</event>
<event>
 7    1  0.2556591E-009  0.9459139E+02  0.7561462E-02  0.1292099E+00
         -2   -1    0    0    0  501 -0.00000000000E+00  0.00000000000E+00  0.46112140984E+03  0.46112140984E+03  0.00000000000E+00 0.  1.
          2   -1    0    0  501    0  0.00000000000E+00 -0.00000000000E+00 -0.64696144851E+02  0.64696144851E+02  0.00000000000E+00 0. -1.
         25    2    1    2    0    0  0.17953623046E+02  0.45546794130E+01  0.40984401662E+03  0.42890899430E+03  0.12509088594E+03 0.  0.
          5    1    3    3  502    0  0.71864578075E+02  0.63996383225E+01  0.24191684449E+03  0.25248109831E+03  0.41800000000E+01 0. -1.
         -5    1    3    3    0  502 -0.53910955029E+02 -0.18449589095E+01  0.16792717212E+03  0.17642789599E+03  0.41800000000E+01 0. -1.
        -11    1    1    2    0    0  0.12238513060E+02 -0.23969325946E+02 -0.42775134721E+02  0.50537332128E+02  0.00000000000E+00 0. -1.
         11    1    1    2    0    0 -0.30192136106E+02  0.19414646533E+02  0.29356383089E+02  0.46371228264E+02  0.00000000000E+00 0.  1.
</event>
<event>
 7    1  0.2556591E-009  0.9856510E+02  0.7561462E-02  0.1283343E+00
          1   -1    0    0  501    0  0.00000000000E+00  0.00000000000E+00  0.69781964991E+02  0.69781964991E+02  0.00000000000E+00 0. -1.
         -1   -1    0    0    0  501 -0.00000000000E+00 -0.00000000000E+00 -0.17342787751E+03  0.17342787751E+03  0.00000000000E+00 0.  1.
         25    2    1    2    0    0 -0.71533069588E+01 -0.27959969675E+02 -0.63943466873E+02  0.14342158681E+03  0.12509218562E+03 0.  0.
          5    1    3    3  502    0  0.50593685069E+02  0.36981969689E+01  0.89669472917E+00  0.50908487417E+02  0.41800000000E+01 0. -1.
         -5    1    3    3    0  502 -0.57746992028E+02 -0.31658166644E+02 -0.64840161602E+02  0.92513099397E+02  0.41800000000E+01 0. -1.
        -11    1    1    2    0    0 -0.20619493401E+02  0.43698727127E+02  0.66534206476E+00  0.48323751310E+02  0.00000000000E+00 0. -1.
         11    1    1    2    0    0  0.27772800360E+02 -0.15738757453E+02 -0.40367787706E+02  0.51464504372E+02  0.00000000000E+00 0.  1.
</event>
<event>
 7    1  0.2556591E-009  0.1610914E+03  0.7561462E-02  0.1187470E+00
         -2   -1    0    0    0  501 -0.00000000000E+00  0.00000000000E+00  0.81100771524E+02  0.81100771524E+02  0.00000000000E+00 0.  1.
          2   -1    0    0  501    0  0.00000000000E+00 -0.00000000000E+00 -0.64085327133E+03  0.64085327133E+03  0.00000000000E+00 0. -1.
         25    2    1    2    0    0  0.18896083011E+02 -0.13001959687E+03 -0.50730349264E+02  0.18837292593E+03  0.12509449774E+03 0.  0.
          5    1    3    3  502    0  0.24602042656E+02 -0.15069967023E+03 -0.60674328393E+02  0.16436087623E+03  0.41800000000E+01 0. -1.
         -5    1    3    3    0  502 -0.57059596450E+01  0.20680073362E+02  0.99439791293E+01  0.24012049697E+02  0.41800000000E+01 0. -1.
        -11    1    1    2    0    0 -0.42750396785E+02  0.60528559753E+02 -0.15229724909E+03  0.16936869561E+03  0.00000000000E+00 0.  1.
         11    1    1    2    0    0  0.23854313774E+02  0.69491037115E+02 -0.35672490145E+03  0.36421242132E+03  0.00000000000E+00 0. -1.
</event>
<event>
 7    1  0.2556591E-009  0.1371044E+03  0.7561462E-02  0.1217279E+00
         -4   -1    0    0    0  501 -0.00000000000E+00  0.00000000000E+00  0.44311849131E+02  0.44311849131E+02  0.00000000000E+00 0.  1.
          4   -1    0    0  501    0  0.00000000000E+00 -0.00000000000E+00 -0.52532003820E+03  0.52532003820E+03  0.00000000000E+00 0. -1.
         25    2    1    2    0    0 -0.85246513437E+02  0.10333069543E+02 -0.37764156087E+03  0.40698177284E+03  0.12508906647E+03 0.  0.
          5    1    3    3  502    0  0.30847018338E+02  0.92193766878E+01 -0.52704314503E+02  0.61901151961E+02  0.41800000000E+01 0.  1.
         -5    1    3    3    0  502 -0.11609353178E+03  0.11136928550E+01 -0.32493724637E+03  0.34508062088E+03  0.41800000000E+01 0.  1.
        -11    1    1    2    0    0 -0.18564248458E+02  0.78894923301E+01 -0.17405326766E+02  0.26642462534E+02  0.00000000000E+00 0.  1.
         11    1    1    2    0    0  0.10381076190E+03 -0.18222561873E+02 -0.85961301436E+02  0.13600765196E+03  0.00000000000E+00 0. -1.
</event>
<event>
 7    1  0.2696125E-009  0.1329284E+03  0.7561462E-02  0.1223174E+00
         -1   -1    0    0    0  501 -0.00000000000E+00  0.00000000000E+00  0.26986978060E+02  0.26986978060E+02  0.00000000000E+00 0.  1.
          1   -1    0    0  501    0  0.00000000000E+00 -0.00000000000E+00 -0.95317542171E+03  0.95317542171E+03  0.00000000000E+00 0. -1.
         25    2    1    2    0    0 -0.66772116240E+02 -0.85894491119E+02 -0.35730810742E+03  0.39389401658E+03  0.12508810319E+03 0.  0.
          5    1    3    3  502    0 -0.18727153643E+02 -0.73385859081E+02 -0.32676802781E+03  0.33545641594E+03  0.41800000000E+01 0. -1.
         -5    1    3    3    0  502 -0.48044962596E+02 -0.12508632038E+02 -0.30540079612E+02  0.58437600644E+02  0.41800000000E+01 0. -1.
        -11    1    1    2    0    0  0.45237491617E+02 -0.61482225080E+01 -0.22790249079E+03  0.23243015424E+03  0.00000000000E+00 0.  1.
         11    1    1    2    0    0  0.21534624623E+02  0.92042713627E+02 -0.34097784544E+03  0.35383822895E+03  0.00000000000E+00 0. -1.
</event>
<event>
 7    1  0.2556591E-009  0.1420230E+03  0.7561462E-02  0.1210632E+00
         -1   -1    0    0    0  501 -0.00000000000E+00  0.00000000000E+00  0.12458083777E+03  0.12458083777E+03  0.00000000000E+00 0.  1.
          1   -1    0    0  501    0  0.00000000000E+00 -0.00000000000E+00 -0.17168201874E+03  0.17168201874E+03  0.00000000000E+00 0. -1.
         25    2    1    2    0    0 -0.95045308867E+02  0.81368745269E+01 -0.73496683436E+00  0.15731262951E+03  0.12508758437E+03 0.  0.
          5    1    3    3  502    0 -0.46591140854E+02 -0.55781745947E+02  0.17669971646E+02  0.74913536060E+02  0.41800000000E+01 0. -1.
         -5    1    3    3    0  502 -0.48454168012E+02  0.63918620474E+02 -0.18404938481E+02  0.82399093451E+02  0.41800000000E+01 0. -1.
        -11    1    1    2    0    0  0.10737874714E+03 -0.24792788693E+02 -0.37515671393E+02  0.11641436041E+03  0.00000000000E+00 0. -1.
         11    1    1    2    0    0 -0.12333438273E+02  0.16655914166E+02 -0.88505427377E+01  0.22535866593E+02  0.00000000000E+00 0.  1.
</event>
<event>
 7    1  0.2556591E-009  0.1140982E+03  0.7561462E-02  0.1253164E+00
         -1   -1    0    0    0  501 -0.00000000000E+00  0.00000000000E+00  0.32004896300E+03  0.32004896300E+03  0.00000000000E+00 0.  1.
          1   -1    0    0  501    0  0.00000000000E+00 -0.00000000000E+00 -0.71675154431E+02  0.71675154431E+02  0.00000000000E+00 0. -1.
         25    2    1    2    0    0  0.61676937055E+02 -0.70121302376E+02  0.69909622882E+02  0.17104349536E+03  0.12508988897E+03 0.  0.
          5    1    3    3  502    0  0.25072029362E+02  0.93950913365E+01 -0.28460238938E+02  0.39297989745E+02  0.41800000000E+01 0. -1.
         -5    1    3    3    0  502  0.36604907692E+02 -0.79516393712E+02  0.98369861820E+02  0.13174550562E+03  0.41800000000E+01 0. -1.
        -11    1    1    2    0    0 -0.56393521642E+02  0.15364074504E+02  0.14488494367E+03  0.15623037787E+03  0.00000000000E+00 0.  1.
         11    1    1    2    0    0 -0.52834154130E+01  0.54757227872E+02  0.33579242026E+02  0.64450244202E+02  0.00000000000E+00 0. -1.
</event>
<event>
 7    1  0.2556591E-009  0.1359590E+03  0.7561462E-02  0.1218872E+00
          2   -1    0    0  501    0  0.00000000000E+00  0.00000000000E+00  0.24657871070E+03  0.24657871070E+03  0.00000000000E+00 0.  1.
         -2   -1    0    0    0  501 -0.00000000000E+00 -0.00000000000E+00 -0.94619681559E+02  0.94619681559E+02  0.00000000000E+00 0. -1.
         25    2    1    2    0    0 -0.78149862242E+02  0.41781528560E+02  0.12416070694E+02  0.15380079366E+03  0.12508968072E+03 0.  0.
          5    1    3    3  502    0 -0.38603803057E+02 -0.41998850725E+02 -0.10779473015E+02  0.58205038538E+02  0.41800000000E+01 0. -1.
         -5    1    3    3    0  502 -0.39546059185E+02  0.83780379286E+02  0.23195543710E+02  0.95595755127E+02  0.41800000000E+01 0. -1.
        -11    1    1    2    0    0  0.48160344456E+02  0.20895915666E+02  0.39987752973E+02  0.65993018248E+02  0.00000000000E+00 0. -1.
         11    1    1    2    0    0  0.29989517785E+02 -0.62677444227E+02  0.99555205469E+02  0.12140458034E+03  0.00000000000E+00 0.  1.
</event>
<event>
 7    1  0.2949074E-009  0.1101223E+03  0.7561462E-02  0.1260344E+00
          1   -1    0    0  501    0  0.00000000000E+00  0.00000000000E+00  0.88117511941E+02  0.88117511941E+02  0.00000000000E+00 0. -1.
         -1   -1    0    0    0  501 -0.00000000000E+00 -0.00000000000E+00 -0.23578947850E+03  0.23578947850E+03  0.00000000000E+00 0.  1.
         25    2    1    2    0    0  0.86524523738E+02  0.20211011874E+02 -0.11336051436E+03  0.19076965774E+03  0.12508987924E+03 0.  0.
          5    1    3    3  502    0  0.92746604729E+02  0.43422547146E+02 -0.34376235750E+02  0.10810480227E+03  0.41800000000E+01 0. -1.
         -5    1    3    3    0  502 -0.62220809914E+01 -0.23211535272E+02 -0.78984278613E+02  0.82664855468E+02  0.41800000000E+01 0. -1.
        -11    1    1    2    0    0 -0.70037555999E+02 -0.38674565209E+01 -0.64338800450E+02  0.95182444356E+02  0.00000000000E+00 0.  1.
         11    1    1    2    0    0 -0.16486967739E+02 -0.16343555354E+02  0.30027348249E+02  0.37954888351E+02  0.00000000000E+00 0. -1.
</event>
<event>
 7    1  0.2556591E-009  0.1045079E+03  0.7561462E-02  0.1271092E+00
          1   -1    0    0  501    0  0.00000000000E+00  0.00000000000E+00  0.17815690630E+03  0.17815690630E+03  0.00000000000E+00 0. -1.
         -1   -1    0    0    0  501 -0.00000000000E+00 -0.00000000000E+00 -0.90659380615E+02  0.90659380615E+02  0.00000000000E+00 0.  1.
         25    2    1    2    0    0 -0.14802669347E+02 -0.52289942996E+02  0.10238054466E+02  0.13676839320E+03  0.12508964170E+03 0.  0.
          5    1    3    3  502    0  0.32337292771E+02  0.27475454002E+02  0.10931822500E+02  0.44017930659E+02  0.41800000000E+01 0.  1.
         -5    1    3    3    0  502 -0.47139962118E+02 -0.79765396998E+02 -0.69376803399E+00  0.92750462537E+02  0.41800000000E+01 0.  1.
        -11    1    1    2    0    0  0.26632453815E+02  0.55337720295E+02  0.93414753553E+02  0.11179385969E+03  0.00000000000E+00 0. -1.
         11    1    1    2    0    0 -0.11829784468E+02 -0.30477772988E+01 -0.16155282334E+02  0.20254034026E+02  0.00000000000E+00 0.  1.
</event>
<event>
 7    1  0.2556591E-009  0.1881063E+03  0.7561462E-02  0.1160180E+00
          2   -1    0    0  501    0  0.00000000000E+00  0.00000000000E+00  0.44750021669E+03  0.44750021669E+03  0.00000000000E+00 0. -1.
         -2   -1    0    0    0  501 -0.00000000000E+00 -0.00000000000E+00 -0.91651912972E+02  0.91651912972E+02  0.00000000000E+00 0.  1.
         25    2    1    2    0    0 -0.10680701107E+03  0.13186108194E+03  0.20155972109E+03  0.29166594730E+03  0.12509045170E+03 0.  0.
          5    1    3    3  502    0 -0.12631492329E+02  0.66966959520E+02  0.15261962455E+03  0.16719554558E+03  0.41800000000E+01 0. -1.
         -5    1    3    3    0  502 -0.94175518744E+02  0.64894122416E+02  0.48940096543E+02  0.12447040172E+03  0.41800000000E+01 0. -1.
        -11    1    1    2    0    0  0.10995079430E+03 -0.14387215608E+03  0.14511786085E+03  0.23205078754E+03  0.00000000000E+00 0.  1.
         11    1    1    2    0    0 -0.31437832248E+01  0.12011074146E+02  0.91707217794E+01  0.15435394814E+02  0.00000000000E+00 0. -1.
</event>
<event>
 7    1  0.2556591E-009  0.1687793E+03  0.7561462E-02  0.1179127E+00
         -1   -1    0    0    0  501 -0.00000000000E+00  0.00000000000E+00  0.41311343858E+02  0.41311343858E+02  0.00000000000E+00 0.  1.
          1   -1    0    0  501    0  0.00000000000E+00 -0.00000000000E+00 -0.72102895715E+03  0.72102895715E+03  0.00000000000E+00 0. -1.
         25    2    1    2    0    0 -0.27111011821E+02 -0.13097148899E+03 -0.34375194329E+03  0.38948679580E+03  0.12508408252E+03 0.  0.
          5    1    3    3  502    0 -0.59156258185E+02 -0.15589569467E+02 -0.14464912919E+03  0.15710932669E+03  0.41800000000E+01 0. -1.
         -5    1    3    3    0  502  0.32045246364E+02 -0.11538191953E+03 -0.19910281410E+03  0.23237746911E+03  0.41800000000E+01 0. -1.
        -11    1    1    2    0    0  0.56095344228E+01  0.13451018886E+03 -0.24752376594E+03  0.28176669869E+03  0.00000000000E+00 0.  1.
         11    1    1    2    0    0  0.21501477398E+02 -0.35386998676E+01 -0.88441904060E+02  0.91086806513E+02  0.00000000000E+00 0. -1.
</event>
<event>
 7    1  0.2556591E-009  0.1219608E+03  0.7561462E-02  0.1239897E+00
         -2   -1    0    0    0  501 -0.00000000000E+00  0.00000000000E+00  0.84472438622E+02  0.84472438622E+02  0.00000000000E+00 0.  1.
          2   -1    0    0  501    0  0.00000000000E+00 -0.00000000000E+00 -0.21322895561E+03  0.21322895561E+03  0.00000000000E+00 0. -1.
         25    2    1    2    0    0  0.35567055163E+02  0.51099403207E+02 -0.12385345253E+03  0.18671642113E+03  0.12508868772E+03 0.  0.
          5    1    3    3  502    0  0.47008338916E+02 -0.28858512979E+02 -0.30389740468E+02  0.63115817548E+02  0.41800000000E+01 0.  1.
         -5    1    3    3    0  502 -0.11441283754E+02  0.79957916186E+02 -0.93463712060E+02  0.12360060359E+03  0.41800000000E+01 0.  1.
        -11    1    1    2    0    0  0.19463522319E+02 -0.48919690705E+02 -0.15536789502E+02  0.54894049475E+02  0.00000000000E+00 0. -1.
         11    1    1    2    0    0 -0.55030577482E+02 -0.21797125025E+01  0.10633725044E+02  0.56090923623E+02  0.00000000000E+00 0.  1.
</event>
<event>
 7    1  0.2556591E-009  0.1073182E+03  0.7561462E-02  0.1265618E+00
          4   -1    0    0  501    0  0.00000000000E+00  0.00000000000E+00  0.72003353966E+02  0.72003353966E+02  0.00000000000E+00 0. -1.
         -4   -1    0    0    0  501 -0.00000000000E+00 -0.00000000000E+00 -0.16995212730E+03  0.16995212730E+03  0.00000000000E+00 0.  1.
         25    2    1    2    0    0 -0.13968869844E+02  0.98800700328E+01 -0.72276266782E+02  0.14547929061E+03  0.12509044786E+03 0.  0.
          5    1    3    3  502    0 -0.65740202295E+02  0.22062091383E+02 -0.57344467144E+02  0.90079800099E+02  0.41800000000E+01 0.  1.
         -5    1    3    3    0  502  0.51771332451E+02 -0.12182021350E+02 -0.14931799637E+02  0.55399490506E+02  0.41800000000E+01 0.  1.
        -11    1    1    2    0    0 -0.37740568099E+02 -0.13249589651E+02 -0.36280456211E+01  0.40162978243E+02  0.00000000000E+00 0.  1.
         11    1    1    2    0    0  0.51709437942E+02  0.33695196179E+01 -0.22044460928E+02  0.56313212414E+02  0.00000000000E+00 0. -1.
</event>
<event>
 7    1  0.2556591E-009  0.2546027E+03  0.7561462E-02  0.1110430E+00
         -2   -1    0    0    0  501 -0.00000000000E+00  0.00000000000E+00  0.55804322996E+02  0.55804322996E+02  0.00000000000E+00 0.  1.
          2   -1    0    0  501    0  0.00000000000E+00 -0.00000000000E+00 -0.11949182712E+04  0.11949182712E+04  0.00000000000E+00 0. -1.
         25    2    1    2    0    0 -0.65883148957E+02 -0.22541210885E+03 -0.59662324898E+03  0.65326761254E+03  0.12509222294E+03 0.  0.
          5    1    3    3  502    0 -0.92846106730E+02 -0.11256065463E+03 -0.27518250062E+03  0.31150149526E+03  0.41800000000E+01 0.  1.
         -5    1    3    3    0  502  0.26962957773E+02 -0.11285145422E+03 -0.32144074837E+03  0.34176611728E+03  0.41800000000E+01 0.  1.
        -11    1    1    2    0    0  0.40199440543E+02  0.21610551151E+03 -0.44683597160E+03  0.49797587556E+03  0.00000000000E+00 0.  1.
         11    1    1    2    0    0  0.25683708414E+02  0.93065973406E+01 -0.95654727594E+02  0.99479106063E+02  0.00000000000E+00 0. -1.
</event>
<event>
 7    1  0.2556591E-009  0.1202091E+03  0.7561462E-02  0.1242752E+00
         -2   -1    0    0    0  501 -0.00000000000E+00  0.00000000000E+00  0.29237155552E+02  0.29237155552E+02  0.00000000000E+00 0.  1.
          2   -1    0    0  501    0  0.00000000000E+00 -0.00000000000E+00 -0.80774669169E+03  0.80774669169E+03  0.00000000000E+00 0. -1.
         25    2    1    2    0    0 -0.40184737143E+02 -0.95730436456E+02 -0.50263161498E+03  0.52826621559E+03  0.12509006591E+03 0.  0.
          5    1    3    3  502    0 -0.20182158183E+02 -0.10251934187E+03 -0.20759653048E+03  0.23244639562E+03  0.41800000000E+01 0.  1.
         -5    1    3    3    0  502 -0.20002578960E+02  0.67889054182E+01 -0.29503508450E+03  0.29581981997E+03  0.41800000000E+01 0.  1.
        -11    1    1    2    0    0  0.42406541042E+02  0.39226026690E+02 -0.51719129869E+02  0.77536212748E+02  0.00000000000E+00 0.  1.
         11    1    1    2    0    0 -0.22218038989E+01  0.56504409767E+02 -0.22415879129E+03  0.23118141891E+03  0.00000000000E+00 0. -1.
</event>
<event>
 7    1  0.2556591E-009  0.1219539E+03  0.7561462E-02  0.1239908E+00
          1   -1    0    0  501    0  0.00000000000E+00  0.00000000000E+00  0.18876235122E+03  0.18876235122E+03  0.00000000000E+00 0. -1.
         -1   -1    0    0    0  501 -0.00000000000E+00 -0.00000000000E+00 -0.97347069237E+02  0.97347069237E+02  0.00000000000E+00 0.  1.
         25    2    1    2    0    0  0.36897043287E+02 -0.41248112362E+02 -0.63565100109E+01  0.13693454852E+03  0.12509143369E+03 0.  0.
          5    1    3    3  502    0 -0.17183495212E+02  0.34659585988E+02  0.14164087214E+02  0.41408370834E+02  0.41800000000E+01 0. -1.
         -5    1    3    3    0  502  0.54080538498E+02 -0.75907698350E+02 -0.20520597225E+02  0.95526177687E+02  0.41800000000E+01 0. -1.
        -11    1    1    2    0    0  0.12987284282E+02 -0.25355294500E+02  0.16826565905E+02  0.33086157716E+02  0.00000000000E+00 0. -1.
         11    1    1    2    0    0 -0.49884327569E+02  0.66603406862E+02  0.80945226090E+02  0.11608871422E+03  0.00000000000E+00 0.  1.
</event>
<event>
 7    1  0.2556591E-009  0.1140648E+03  0.7561462E-02  0.1253222E+00
          2   -1    0    0  501    0  0.00000000000E+00  0.00000000000E+00  0.42811016973E+03  0.42811016973E+03  0.00000000000E+00 0. -1.
         -2   -1    0    0    0  501 -0.00000000000E+00 -0.00000000000E+00 -0.31315299315E+02  0.31315299315E+02  0.00000000000E+00 0.  1.
         25    2    1    2    0    0  0.40670482527E+01 -0.53715042716E+02  0.23386014080E+03  0.27062909604E+03  0.12509074894E+03 0.  0.
          5    1    3    3  502    0 -0.72505136315E+01 -0.92648110643E+02  0.13759658988E+03  0.16609195134E+03  0.41800000000E+01 0. -1.
         -5    1    3    3    0  502  0.11317561884E+02  0.38933067927E+02  0.96263550923E+02  0.10453714470E+03  0.41800000000E+01 0. -1.
        -11    1    1    2    0    0  0.18187424799E+02  0.66319890983E+02  0.10562732269E+03  0.12604063495E+03  0.00000000000E+00 0.  1.
         11    1    1    2    0    0 -0.22254473052E+02 -0.12604848267E+02  0.57307406923E+02  0.62755738056E+02  0.00000000000E+00 0. -1.
</event>
<event>
 7    1  0.2556591E-009  0.1561196E+03  0.7561462E-02  0.1193149E+00
         -2   -1    0    0    0  501 -0.00000000000E+00  0.00000000000E+00  0.86877940660E+02  0.86877940660E+02  0.00000000000E+00 0.  1.
          2   -1    0    0  501    0  0.00000000000E+00 -0.00000000000E+00 -0.40518297164E+03  0.40518297164E+03  0.00000000000E+00 0. -1.
         25    2    1    2    0    0 -0.59962947943E+02  0.14001293861E+03 -0.15775489591E+03  0.25245458972E+03  0.12509010585E+03 0.  0.
          5    1    3    3  502    0 -0.38386741854E+02  0.39222050007E+02  0.95893752590E+01  0.55868950901E+02  0.41800000000E+01 0. -1.
         -5    1    3    3    0  502 -0.21576206089E+02  0.10079088860E+03 -0.16734427117E+03  0.19658563882E+03  0.41800000000E+01 0. -1.
        -11    1    1    2    0    0  0.48299707752E+02 -0.84632655448E+02 -0.37950744373E+02  0.10457440956E+03  0.00000000000E+00 0.  1.
         11    1    1    2    0    0  0.11663240191E+02 -0.55380283164E+02 -0.12259939069E+03  0.13503191301E+03  0.00000000000E+00 0. -1.
</event>
<event>
 7    1  0.2556591E-009  0.1833032E+03  0.7561462E-02  0.1164644E+00
          1   -1    0    0  501    0  0.00000000000E+00  0.00000000000E+00  0.12042706938E+04  0.12042706938E+04  0.00000000000E+00 0. -1.
         -1   -1    0    0    0  501 -0.00000000000E+00 -0.00000000000E+00 -0.30611942228E+02  0.30611942228E+02  0.00000000000E+00 0.  1.
         25    2    1    2    0    0 -0.12713167389E+03 -0.94685121952E+02  0.63111985698E+03  0.66263679485E+03  0.12509002035E+03 0.  0.
          5    1    3    3  502    0 -0.83429243255E+02  0.12743270903E+02  0.22845257958E+03  0.24357931583E+03  0.41800000000E+01 0.  1.
         -5    1    3    3    0  502 -0.43702430630E+02 -0.10742839285E+03  0.40266727739E+03  0.41905747901E+03  0.41800000000E+01 0.  1.
        -11    1    1    2    0    0  0.80714252455E+02  0.29300739220E+02  0.16199708277E+03  0.18334769891E+03  0.00000000000E+00 0.  1.
         11    1    1    2    0    0  0.46417421431E+02  0.65384382732E+02  0.38054181179E+03  0.38889814224E+03  0.00000000000E+00 0. -1.
</event>
<event>
 7    1  0.2556591E-009  0.7364266E+02  0.7561462E-02  0.1348127E+00
         -3   -1    0    0    0  501 -0.00000000000E+00  0.00000000000E+00  0.48807913477E+02  0.48807913477E+02  0.00000000000E+00 0.  1.
          3   -1    0    0  501    0  0.00000000000E+00 -0.00000000000E+00 -0.31322329687E+03  0.31322329687E+03  0.00000000000E+00 0. -1.
         25    2    1    2    0    0  0.38957696533E+02 -0.43884116046E+02 -0.12612529708E+03  0.18707910556E+03  0.12508990133E+03 0.  0.
          5    1    3    3  502    0  0.29117402145E+02 -0.23068911790E+02 -0.14944105679E+03  0.15404577129E+03  0.41800000000E+01 0. -1.
         -5    1    3    3    0  502  0.98402943876E+01 -0.20815204256E+02  0.23315759715E+02  0.33033334269E+02  0.41800000000E+01 0. -1.
        -11    1    1    2    0    0 -0.55903016947E+02  0.25328012299E+02 -0.39428968383E+02  0.72947234756E+02  0.00000000000E+00 0.  1.
         11    1    1    2    0    0  0.16945320414E+02  0.18556103747E+02 -0.98861117934E+02  0.10200487003E+03  0.00000000000E+00 0. -1.
</event>
<event>
 7    1  0.2556591E-009  0.1606952E+03  0.7561462E-02  0.1187914E+00
         -1   -1    0    0    0  501 -0.00000000000E+00  0.00000000000E+00  0.23290014379E+02  0.23290014379E+02  0.00000000000E+00 0.  1.
          1   -1    0    0  501    0  0.00000000000E+00 -0.00000000000E+00 -0.14129227954E+04  0.14129227954E+04  0.00000000000E+00 0. -1.
         25    2    1    2    0    0 -0.14338606785E+03 -0.18941363216E+02 -0.70875709186E+03  0.73410221486E+03  0.12510438401E+03 0.  0.
          5    1    3    3  502    0 -0.96061224461E+02 -0.31997088829E+02 -0.64801164516E+03  0.65588729001E+03  0.41800000000E+01 0. -1.
         -5    1    3    3    0  502 -0.47324843391E+02  0.13055725613E+02 -0.60745446707E+02  0.78214924848E+02  0.41800000000E+01 0. -1.
        -11    1    1    2    0    0  0.82089696767E+02  0.55799851818E+02 -0.42396956433E+03  0.43543373004E+03  0.00000000000E+00 0. -1.
         11    1    1    2    0    0  0.61296371085E+02 -0.36858488602E+02 -0.25690612486E+03  0.26667686492E+03  0.00000000000E+00 0.  1.
</event>
<event>
 7    1  0.2556591E-009  0.1215097E+03  0.7561462E-02  0.1240627E+00
          1   -1    0    0  501    0  0.00000000000E+00  0.00000000000E+00  0.53971205339E+02  0.53971205339E+02  0.00000000000E+00 0. -1.
         -1   -1    0    0    0  501 -0.00000000000E+00 -0.00000000000E+00 -0.41152168995E+03  0.41152168995E+03  0.00000000000E+00 0.  1.
         25    2    1    2    0    0  0.49851155686E+02 -0.55200660291E+02 -0.84655985825E+02  0.16837063572E+03  0.12509909839E+03 0.  0.
          5    1    3    3  502    0  0.78587764218E+02 -0.16160489167E+02 -0.88542923176E+02  0.11955969111E+03  0.41800000000E+01 0.  1.
         -5    1    3    3    0  502 -0.28736608531E+02 -0.39040171125E+02  0.38869373513E+01  0.48810944606E+02  0.41800000000E+01 0.  1.
        -11    1    1    2    0    0  0.58595527808E+01 -0.19769161696E+02 -0.26219775018E+02  0.33356119603E+02  0.00000000000E+00 0.  1.
         11    1    1    2    0    0 -0.55710708467E+02  0.74969821987E+02 -0.24667472377E+03  0.26376613997E+03  0.00000000000E+00 0. -1.
</event>
<event>
 7    1  0.2556591E-009  0.1830219E+03  0.7561462E-02  0.1164910E+00
          2   -1    0    0  501    0  0.00000000000E+00  0.00000000000E+00  0.52830472957E+03  0.52830472957E+03  0.00000000000E+00 0. -1.
         -2   -1    0    0    0  501 -0.00000000000E+00 -0.00000000000E+00 -0.82766992639E+02  0.82766992639E+02  0.00000000000E+00 0.  1.
         25    2    1    2    0    0  0.32026720484E+02 -0.17566824809E+03  0.23126688745E+03  0.31783167435E+03  0.12509019057E+03 0.  0.
          5    1    3    3  502    0  0.45236723255E+02 -0.10165299823E+03  0.50995085160E+02  0.12246495128E+03  0.41800000000E+01 0.  1.
         -5    1    3    3    0  502 -0.13210002771E+02 -0.74015249859E+02  0.18027180229E+03  0.19536672307E+03  0.41800000000E+01 0.  1.
        -11    1    1    2    0    0 -0.27678775740E+02  0.10463380911E+03  0.18885444895E+03  0.21767028167E+03  0.00000000000E+00 0. -1.
         11    1    1    2    0    0 -0.43479447441E+01  0.71034438983E+02  0.25416400529E+02  0.75569766183E+02  0.00000000000E+00 0.  1.
</event>
<event>
 7    1  0.2556591E-009  0.1132047E+03  0.7561462E-02  0.1254748E+00
         -2   -1    0    0    0  501 -0.00000000000E+00  0.00000000000E+00  0.85398931450E+02  0.85398931450E+02  0.00000000000E+00 0. -1.
          2   -1    0    0  501    0  0.00000000000E+00 -0.00000000000E+00 -0.18399226840E+03  0.18399226840E+03  0.00000000000E+00 0.  1.
         25    2    1    2    0    0  0.50042802899E+02  0.34454090946E+02 -0.24437997185E+02  0.14119469880E+03  0.12508941105E+03 0.  0.
          5    1    3    3  502    0  0.90978556949E+02  0.11465359894E+02 -0.13187752163E+02  0.92735869593E+02  0.41800000000E+01 0. -1.
         -5    1    3    3    0  502 -0.40935754050E+02  0.22988731053E+02 -0.11250245022E+02  0.48458829207E+02  0.41800000000E+01 0. -1.
        -11    1    1    2    0    0 -0.42186308681E+02  0.91564936193E+01 -0.16228960873E+01  0.43199071833E+02  0.00000000000E+00 0. -1.
         11    1    1    2    0    0 -0.78564942187E+01 -0.43610584566E+02 -0.72532443673E+02  0.84997429213E+02  0.00000000000E+00 0.  1.
</event>
<event>
 7    1  0.2556591E-009  0.9883504E+02  0.7561462E-02  0.1282765E+00
          2   -1    0    0  501    0  0.00000000000E+00  0.00000000000E+00  0.77444286882E+02  0.77444286882E+02  0.00000000000E+00 0.  1.
         -2   -1    0    0    0  501 -0.00000000000E+00 -0.00000000000E+00 -0.17607168624E+03  0.17607168624E+03  0.00000000000E+00 0. -1.
         25    2    1    2    0    0  0.12358135213E+02  0.31830016529E+02 -0.21834871774E+02  0.13149150304E+03  0.12508948912E+03 0.  0.
          5    1    3    3  502    0  0.17547395475E+02 -0.46889201601E+02 -0.13695861719E+02  0.52072616057E+02  0.41800000000E+01 0.  1.
         -5    1    3    3    0  502 -0.51892602629E+01  0.78719218130E+02 -0.81390100556E+01  0.79418886984E+02  0.41800000000E+01 0.  1.
        -11    1    1    2    0    0 -0.36422377035E+02 -0.20982421540E+02 -0.13041684957E+01  0.42054160532E+02  0.00000000000E+00 0.  1.
         11    1    1    2    0    0  0.24064241823E+02 -0.10847594989E+02 -0.75488359093E+02  0.79970309553E+02  0.00000000000E+00 0. -1.
</event>
<event>
 7    1  0.2556591E-009  0.1410311E+03  0.7561462E-02  0.1211948E+00
         -2   -1    0    0    0  501 -0.00000000000E+00  0.00000000000E+00  0.13867841426E+03  0.13867841426E+03  0.00000000000E+00 0.  1.
          2   -1    0    0  501    0  0.00000000000E+00 -0.00000000000E+00 -0.18706121218E+03  0.18706121218E+03  0.00000000000E+00 0. -1.
         25    2    1    2    0    0 -0.10564132016E+03  0.43419759537E+02  0.70123154362E+01  0.16953452533E+03  0.12508964253E+03 0.  0.
          5    1    3    3  502    0 -0.26244590950E+02  0.49621569891E+02 -0.46904247515E+02  0.73270455079E+02  0.41800000000E+01 0. -1.
         -5    1    3    3    0  502 -0.79396729208E+02 -0.62018103544E+01  0.53916562951E+02  0.96264070250E+02  0.41800000000E+01 0. -1.
        -11    1    1    2    0    0  0.12734668949E+02 -0.51230638407E+02 -0.21516581826E+02  0.57006257536E+02  0.00000000000E+00 0.  1.
         11    1    1    2    0    0  0.92906651208E+02  0.78108788707E+01 -0.33878531526E+02  0.99198843571E+02  0.00000000000E+00 0. -1.
</event>
<event>
 7    1  0.2556591E-009  0.7052658E+02  0.7561462E-02  0.1358311E+00
         -1   -1    0    0    0  501 -0.00000000000E+00  0.00000000000E+00  0.78604043917E+02  0.78604043917E+02  0.00000000000E+00 0.  1.
          1   -1    0    0  501    0  0.00000000000E+00 -0.00000000000E+00 -0.17156275595E+03  0.17156275595E+03  0.00000000000E+00 0. -1.
         25    2    1    2    0    0  0.17122011534E+02  0.94237117996E+01 -0.14844068544E+02  0.12747146924E+03  0.12508660790E+03 0.  0.
          5    1    3    3  502    0 -0.95130865826E+01  0.40773410774E+02  0.40490512457E+02  0.58394553184E+02  0.41800000000E+01 0.  1.
         -5    1    3    3    0  502  0.26635098116E+02 -0.31349698975E+02 -0.55334581001E+02  0.69076916058E+02  0.41800000000E+01 0.  1.
        -11    1    1    2    0    0 -0.43153647605E+01  0.22668084520E+02 -0.84468130396E+02  0.87563288434E+02  0.00000000000E+00 0. -1.
         11    1    1    2    0    0 -0.12806646773E+02 -0.32091796320E+02  0.63534869081E+01  0.35132042191E+02  0.00000000000E+00 0.  1.
</event>
<event>
 7    1  0.2556591E-009  0.2216768E+03  0.7561462E-02  0.1132639E+00
         -1   -1    0    0    0  501 -0.00000000000E+00  0.00000000000E+00  0.85392609456E+02  0.85392609456E+02  0.00000000000E+00 0.  1.
          1   -1    0    0  501    0  0.00000000000E+00 -0.00000000000E+00 -0.74065631424E+03  0.74065631424E+03  0.00000000000E+00 0. -1.
         25    2    1    2    0    0 -0.16131558807E+03 -0.14722098959E+03 -0.43614439756E+03  0.50355479464E+03  0.12509499173E+03 0.  0.
          5    1    3    3  502    0 -0.60138846951E+02 -0.90202440611E+02 -0.32546039493E+03  0.34306719789E+03  0.41800000000E+01 0. -1.
         -5    1    3    3    0  502 -0.10117674112E+03 -0.57018548976E+02 -0.11068400263E+03  0.16048759675E+03  0.41800000000E+01 0. -1.
        -11    1    1    2    0    0  0.12989291183E+03  0.11271586285E+03 -0.21546128637E+03  0.27568206363E+03  0.00000000000E+00 0. -1.
         11    1    1    2    0    0  0.31422676245E+02  0.34505126734E+02 -0.36580208628E+01  0.46812065431E+02  0.00000000000E+00 0.  1.
</event>
<event>
 7    1  0.2556591E-009  0.1148551E+03  0.7561462E-02  0.1251834E+00
         -3   -1    0    0    0  501 -0.00000000000E+00  0.00000000000E+00  0.43757000872E+03  0.43757000872E+03  0.00000000000E+00 0.  1.
          3   -1    0    0  501    0  0.00000000000E+00 -0.00000000000E+00 -0.69821702642E+02  0.69821702642E+02  0.00000000000E+00 0. -1.
         25    2    1    2    0    0 -0.38247188315E+02  0.40721819034E+02  0.22224459303E+03  0.26107559891E+03  0.12508675092E+03 0.  0.
          5    1    3    3  502    0  0.96771459273E+01 -0.40781889905E+02  0.61585689027E+02  0.74612862098E+02  0.41800000000E+01 0.  1.
         -5    1    3    3    0  502 -0.47924334242E+02  0.81503708940E+02  0.16065890401E+03  0.18646273681E+03  0.41800000000E+01 0.  1.
        -11    1    1    2    0    0  0.59394190295E+02 -0.18356363156E+02  0.18561919254E+03  0.19575267699E+03  0.00000000000E+00 0.  1.
         11    1    1    2    0    0 -0.21147001980E+02 -0.22365455878E+02 -0.40115479502E+02  0.50563435455E+02  0.00000000000E+00 0. -1.
</event>
<event>
 7    1  0.2556591E-009  0.1022051E+03  0.7561462E-02  0.1275726E+00
          2   -1    0    0  501    0  0.00000000000E+00  0.00000000000E+00  0.14589392110E+03  0.14589392110E+03  0.00000000000E+00 0. -1.
         -2   -1    0    0    0  501 -0.00000000000E+00 -0.00000000000E+00 -0.82614494477E+02  0.82614494477E+02  0.00000000000E+00 0.  1.
         25    2    1    2    0    0  0.62596466257E-01 -0.14171943861E+02  0.42213434620E+02  0.13278314853E+03  0.12509413479E+03 0.  0.
          5    1    3    3  502    0 -0.12825195075E+02 -0.66524087486E+02  0.69687754659E+01  0.68234713131E+02  0.41800000000E+01 0. -1.
         -5    1    3    3    0  502  0.12887791541E+02  0.52352143626E+02  0.35244659154E+02  0.64548435395E+02  0.41800000000E+01 0. -1.
        -11    1    1    2    0    0 -0.15840006556E+02 -0.30888154632E+02 -0.13008485688E+02  0.37070265769E+02  0.00000000000E+00 0.  1.
         11    1    1    2    0    0  0.15777410090E+02  0.45060098493E+02  0.34074477689E+02  0.58655001279E+02  0.00000000000E+00 0. -1.
</event>
<event>
 7    1  0.2556591E-009  0.1457280E+03  0.7561462E-02  0.1205823E+00
         -2   -1    0    0    0  501 -0.00000000000E+00  0.00000000000E+00  0.30595649680E+03  0.30595649680E+03  0.00000000000E+00 0.  1.
          2   -1    0    0  501    0  0.00000000000E+00 -0.00000000000E+00 -0.77134842558E+02  0.77134842558E+02  0.00000000000E+00 0. -1.
         25    2    1    2    0    0  0.37429843708E+01  0.10262415598E+03  0.16662525470E+03  0.23228668929E+03  0.12508958067E+03 0.  0.
          5    1    3    3  502    0  0.53027381886E+02  0.92826700902E+02  0.86336144857E+02  0.13747764160E+03  0.41800000000E+01 0.  1.
         -5    1    3    3    0  502 -0.49284397515E+02  0.97974550771E+01  0.80289109843E+02  0.94809047690E+02  0.41800000000E+01 0.  1.
        -11    1    1    2    0    0 -0.39030355893E+02 -0.87198714719E+02  0.58715526259E+02  0.11213606714E+03  0.00000000000E+00 0. -1.
         11    1    1    2    0    0  0.35287371523E+02 -0.15425441259E+02  0.34808732807E+01  0.38668582930E+02  0.00000000000E+00 0.  1.
</event>
<event>
 7    1  0.2556591E-009  0.9790278E+02  0.7561462E-02  0.1284769E+00
          2   -1    0    0  501    0  0.00000000000E+00  0.00000000000E+00  0.45639883519E+02  0.45639883519E+02  0.00000000000E+00 0.  1.
         -2   -1    0    0    0  501 -0.00000000000E+00 -0.00000000000E+00 -0.25967723560E+03  0.25967723560E+03  0.00000000000E+00 0. -1.
         25    2    1    2    0    0  0.33292081686E+02 -0.96872040997E+01 -0.16933364926E+03  0.21336989620E+03  0.12510245085E+03 0.  0.
          5    1    3    3  502    0  0.48426113727E+02 -0.51487176378E+02 -0.52063986996E+02  0.87887137648E+02  0.41800000000E+01 0. -1.
         -5    1    3    3    0  502 -0.15134032041E+02  0.41799972279E+02 -0.11726966226E+03  0.12548275856E+03  0.41800000000E+01 0. -1.
        -11    1    1    2    0    0  0.17335990214E+02 -0.15987038481E+02 -0.13232452756E+02  0.27041075460E+02  0.00000000000E+00 0. -1.
         11    1    1    2    0    0 -0.50628071900E+02  0.25674242580E+02 -0.31471250070E+02  0.64906147454E+02  0.00000000000E+00 0.  1.
</event>
<event>
 7    1  0.2556591E-009  0.1468816E+03  0.7561462E-02  0.1204358E+00
          1   -1    0    0  501    0  0.00000000000E+00  0.00000000000E+00  0.62047404205E+03  0.62047404205E+03  0.00000000000E+00 0. -1.
         -1   -1    0    0    0  501 -0.00000000000E+00 -0.00000000000E+00 -0.51430668734E+02  0.51430668734E+02  0.00000000000E+00 0.  1.
         25    2    1    2    0    0  0.10350091092E+03 -0.89528801782E+02  0.36299379162E+03  0.40760260376E+03  0.12509014722E+03 0.  0.
          5    1    3    3  502    0  0.47214032336E+02 -0.66395357094E+02  0.67513394301E+02  0.10589163849E+03  0.41800000000E+01 0. -1.
         -5    1    3    3    0  502  0.56286878584E+02 -0.23133444688E+02  0.29548039732E+03  0.30171096527E+03  0.41800000000E+01 0. -1.
        -11    1    1    2    0    0 -0.10288864671E+03  0.55026954968E+02  0.19644446653E+03  0.22848297054E+03  0.00000000000E+00 0. -1.
         11    1    1    2    0    0 -0.61226421348E+00  0.34501846814E+02  0.96051151646E+01  0.35819136483E+02  0.00000000000E+00 0.  1.
</event>
<event>
 7    1  0.2556591E-009  0.1658160E+03  0.7561462E-02  0.1182283E+00
         -1   -1    0    0    0  501 -0.00000000000E+00  0.00000000000E+00  0.37314325851E+03  0.37314325851E+03  0.00000000000E+00 0.  1.
          1   -1    0    0  501    0  0.00000000000E+00 -0.00000000000E+00 -0.76417066887E+02  0.76417066887E+02  0.00000000000E+00 0. -1.
         25    2    1    2    0    0 -0.88402145729E+02  0.83181015376E+02  0.11936276531E+03  0.21125224351E+03  0.12508405157E+03 0.  0.
          5    1    3    3  502    0 -0.11796488752E+03  0.46599861157E+02  0.82723841778E+02  0.15148586781E+03  0.41800000000E+01 0.  1.
         -5    1    3    3    0  502  0.29562741794E+02  0.36581154219E+02  0.36638923529E+02  0.59766375695E+02  0.41800000000E+01 0.  1.
        -11    1    1    2    0    0  0.10996182423E+03 -0.57869087888E+02  0.15292121443E+03  0.19704144728E+03  0.00000000000E+00 0.  1.
         11    1    1    2    0    0 -0.21559678505E+02 -0.25311927488E+02  0.24442211883E+02  0.41266634611E+02  0.00000000000E+00 0. -1.
</event>
<event>
 7    1  0.2556591E-009  0.1898581E+03  0.7561462E-02  0.1158589E+00
          1   -1    0    0  501    0  0.00000000000E+00  0.00000000000E+00  0.82335399012E+03  0.82335399012E+03  0.00000000000E+00 0. -1.
         -1   -1    0    0    0  501 -0.00000000000E+00 -0.00000000000E+00 -0.50754727876E+02  0.50754727876E+02  0.00000000000E+00 0.  1.
         25    2    1    2    0    0 -0.31585125017E+02 -0.15971699590E+03  0.28328740690E+03  0.34986632632E+03  0.12509017743E+03 0.  0.
          5    1    3    3  502    0 -0.76445189720E+02 -0.65026530233E+02  0.13987274436E+03  0.17220387243E+03  0.41800000000E+01 0. -1.
         -5    1    3    3    0  502  0.44860064703E+02 -0.94690465662E+02  0.14341466253E+03  0.17766245389E+03  0.41800000000E+01 0. -1.
        -11    1    1    2    0    0  0.50604784644E+02  0.12426246203E+03  0.44310851329E+03  0.46297641220E+03  0.00000000000E+00 0. -1.
         11    1    1    2    0    0 -0.19019659626E+02  0.35454533867E+02  0.46203342051E+02  0.61265979472E+02  0.00000000000E+00 0.  1.
</event>
<event>
 7    1  0.2556591E-009  0.1096310E+03  0.7561462E-02  0.1261255E+00
         -2   -1    0    0    0  501 -0.00000000000E+00  0.00000000000E+00  0.54368205167E+02  0.54368205167E+02  0.00000000000E+00 0.  1.
          2   -1    0    0  501    0  0.00000000000E+00 -0.00000000000E+00 -0.27674345690E+03  0.27674345690E+03  0.00000000000E+00 0. -1.
         25    2    1    2    0    0 -0.55187891826E+02  0.32716336004E+02 -0.71871381646E+02  0.15789009163E+03  0.12509086094E+03 0.  0.
          5    1    3    3  502    0  0.32765777357E+02  0.35414803713E+02 -0.44162469141E+02  0.65540831308E+02  0.41800000000E+01 0.  1.
         -5    1    3    3    0  502 -0.87953669183E+02 -0.26984677094E+01 -0.27708912505E+02  0.92349260327E+02  0.41800000000E+01 0.  1.
        -11    1    1    2    0    0  0.53111043589E+02 -0.32607757673E+01 -0.11718933290E+03  0.12870413884E+03  0.00000000000E+00 0. -1.
         11    1    1    2    0    0  0.20768482369E+01 -0.29455560236E+02 -0.33314537189E+02  0.44517431592E+02  0.00000000000E+00 0.  1.
</event>
<event>
 7    1  0.2556591E-009  0.1292692E+03  0.7561462E-02  0.1228544E+00
          1   -1    0    0  501    0  0.00000000000E+00  0.00000000000E+00  0.11634987777E+03  0.11634987777E+03  0.00000000000E+00 0. -1.
         -1   -1    0    0    0  501 -0.00000000000E+00 -0.00000000000E+00 -0.30134570432E+03  0.30134570432E+03  0.00000000000E+00 0.  1.
         25    2    1    2    0    0  0.94648754414E+02 -0.60970386748E+02  0.15532476198E+02  0.16900903073E+03  0.12508804851E+03 0.  0.
          5    1    3    3  502    0  0.42003739025E+02 -0.31719803254E+02  0.70012538781E+02  0.87690866099E+02  0.41800000000E+01 0.  1.
         -5    1    3    3    0  502  0.52645015389E+02 -0.29250583493E+02 -0.54480062583E+02  0.81318164631E+02  0.41800000000E+01 0.  1.
        -11    1    1    2    0    0 -0.11006959418E+03  0.66945493507E+02 -0.16368841338E+03  0.20830485194E+03  0.00000000000E+00 0.  1.
         11    1    1    2    0    0  0.15420839770E+02 -0.59751067600E+01 -0.36839889358E+02  0.40381699419E+02  0.00000000000E+00 0. -1.
</event>
<event>
 7    1  0.2556591E-009  0.1221020E+03  0.7561462E-02  0.1239669E+00
          1   -1    0    0  501    0  0.00000000000E+00  0.00000000000E+00  0.86780567125E+03  0.86780567125E+03  0.00000000000E+00 0. -1.
         -1   -1    0    0    0  501 -0.00000000000E+00 -0.00000000000E+00 -0.20203733209E+02  0.20203733209E+02  0.00000000000E+00 0.  1.
         25    2    1    2    0    0  0.55542019851E+02 -0.15013509069E+02  0.63849867439E+03  0.65317558280E+03  0.12508982110E+03 0.  0.
          5    1    3    3  502    0  0.29803510197E+02  0.55053428528E+02  0.27464104263E+03  0.28171670861E+03  0.41800000000E+01 0.  1.
         -5    1    3    3    0  502  0.25738509654E+02 -0.70066937597E+02  0.36385763176E+03  0.37145887418E+03  0.41800000000E+01 0.  1.
        -11    1    1    2    0    0 -0.79610480579E+02  0.20080345199E+02  0.16641417639E+03  0.18556596398E+03  0.00000000000E+00 0.  1.
         11    1    1    2    0    0  0.24068460728E+02 -0.50668361301E+01  0.42689087262E+02  0.49267857691E+02  0.00000000000E+00 0. -1.
</event>
<event>
 7    1  0.2556591E-009  0.1771899E+03  0.7561462E-02  0.1170551E+00
          1   -1    0    0  501    0  0.00000000000E+00  0.00000000000E+00  0.28452059706E+03  0.28452059706E+03  0.00000000000E+00 0. -1.
         -1   -1    0    0    0  501 -0.00000000000E+00 -0.00000000000E+00 -0.11726014243E+03  0.11726014243E+03  0.00000000000E+00 0.  1.
         25    2    1    2    0    0  0.11456825055E+03 -0.81933113849E+02  0.13134929248E+03  0.22964913423E+03  0.12508864471E+03 0.  0.
          5    1    3    3  502    0 -0.84666045585E+01  0.22836122466E+02  0.69450919458E+01  0.25668630352E+02  0.41800000000E+01 0. -1.
         -5    1    3    3    0  502  0.12303485511E+03 -0.10476923632E+03  0.12440420053E+03  0.20398050387E+03  0.41800000000E+01 0. -1.
        -11    1    1    2    0    0  0.49313279080E+01  0.41602853460E+02  0.43388260147E+01  0.42118176861E+02  0.00000000000E+00 0.  1.
         11    1    1    2    0    0 -0.11949957846E+03  0.40330260389E+02  0.31572336139E+02  0.13001342840E+03  0.00000000000E+00 0. -1.
</event>
<event>
 7    1  0.2556591E-009  0.1272214E+03  0.7561462E-02  0.1231638E+00
          2   -1    0    0  501    0  0.00000000000E+00  0.00000000000E+00  0.86632870949E+03  0.86632870949E+03  0.00000000000E+00 0. -1.
         -2   -1    0    0    0  501 -0.00000000000E+00 -0.00000000000E+00 -0.28454299015E+02  0.28454299015E+02  0.00000000000E+00 0.  1.
         25    2    1    2    0    0 -0.59329044924E+02  0.11222839489E+03  0.46567775127E+03  0.49861545778E+03  0.12508580460E+03 0.  0.
          5    1    3    3  502    0 -0.18899125151E+02  0.33808757210E+02  0.19102143168E+02  0.43388630644E+02  0.41800000000E+01 0.  1.
         -5    1    3    3    0  502 -0.40429919773E+02  0.78419637682E+02  0.44657560811E+03  0.45522682713E+03  0.41800000000E+01 0.  1.
        -11    1    1    2    0    0  0.11374543252E+02 -0.28222945606E+02  0.40517221528E+02  0.50671097613E+02  0.00000000000E+00 0.  1.
         11    1    1    2    0    0  0.47954501672E+02 -0.84005449285E+02  0.33167943767E+03  0.34549645311E+03  0.00000000000E+00 0. -1.
</event>
<event>
 7    1  0.2556591E-009  0.8048180E+02  0.7561462E-02  0.1327690E+00
          2   -1    0    0  501    0  0.00000000000E+00  0.00000000000E+00  0.60221064174E+03  0.60221064174E+03  0.00000000000E+00 0.  1.
         -2   -1    0    0    0  501 -0.00000000000E+00 -0.00000000000E+00 -0.22111609939E+02  0.22111609939E+02  0.00000000000E+00 0. -1.
         25    2    1    2    0    0  0.34932619234E+02  0.12485185541E+02  0.30818881981E+03  0.33466899012E+03  0.12508723575E+03 0.  0.
          5    1    3    3  502    0 -0.11123000022E+02 -0.51818429483E+01 -0.75977254236E+01  0.15025659967E+02  0.41800000000E+01 0.  1.
         -5    1    3    3    0  502  0.46055619256E+02  0.17667028490E+02  0.31578654524E+03  0.31964333016E+03  0.41800000000E+01 0.  1.
        -11    1    1    2    0    0 -0.43781535386E+02  0.31303842428E+02  0.17165472239E+03  0.17989468338E+03  0.00000000000E+00 0.  1.
         11    1    1    2    0    0  0.88489161520E+01 -0.43789027970E+02  0.10025548960E+03  0.10975857817E+03  0.00000000000E+00 0. -1.
</event>
<event>
 7    1  0.2556591E-009  0.9487034E+02  0.7561462E-02  0.1291468E+00
          2   -1    0    0  501    0  0.00000000000E+00  0.00000000000E+00  0.11516918578E+03  0.11516918578E+03  0.00000000000E+00 0. -1.
         -2   -1    0    0    0  501 -0.00000000000E+00 -0.00000000000E+00 -0.12066852942E+03  0.12066852942E+03  0.00000000000E+00 0.  1.
         25    2    1    2    0    0  0.28165293272E+02  0.72768845570E+01 -0.39476740428E+02  0.13435647774E+03  0.12508802214E+03 0.  0.
          5    1    3    3  502    0 -0.17604911127E+02 -0.49846909504E+02 -0.47838210699E+01  0.53244761498E+02  0.41800000000E+01 0. -1.
         -5    1    3    3    0  502  0.45770204399E+02  0.57123794061E+02 -0.34692919358E+02  0.81111716246E+02  0.41800000000E+01 0. -1.
        -11    1    1    2    0    0 -0.41719615024E+02 -0.18651154791E+02  0.56609440884E+02  0.72753148729E+02  0.00000000000E+00 0. -1.
         11    1    1    2    0    0  0.13554321752E+02  0.11374270234E+02 -0.22632044099E+02  0.28728088722E+02  0.00000000000E+00 0.  1.
</event>
<event>
 7    1  0.2556591E-009  0.1201434E+03  0.7561462E-02  0.1242861E+00
         -1   -1    0    0    0  501 -0.00000000000E+00  0.00000000000E+00  0.66938325848E+03  0.66938325848E+03  0.00000000000E+00 0.  1.
          1   -1    0    0  501    0  0.00000000000E+00 -0.00000000000E+00 -0.35554239994E+02  0.35554239994E+02  0.00000000000E+00 0. -1.
         25    2    1    2    0    0 -0.71838822542E+02  0.83014011631E+02  0.31314763069E+03  0.35463042993E+03  0.12509660536E+03 0.  0.
          5    1    3    3  502    0 -0.16572186267E+02  0.17023625461E+02  0.24109760604E+03  0.24230140160E+03  0.41800000000E+01 0. -1.
         -5    1    3    3    0  502 -0.55266636275E+02  0.65990386170E+02  0.72050024657E+02  0.11232902833E+03  0.41800000000E+01 0. -1.
        -11    1    1    2    0    0  0.11665627609E+02 -0.66600524675E+02  0.23363131050E+03  0.24321863827E+03  0.00000000000E+00 0.  1.
         11    1    1    2    0    0  0.60173194933E+02 -0.16413486955E+02  0.87050077288E+02  0.10708843027E+03  0.00000000000E+00 0. -1.
</event>
<event>
 7    1  0.2556591E-009  0.8827710E+02  0.7561462E-02  0.1307078E+00
         -1   -1    0    0    0  501 -0.00000000000E+00  0.00000000000E+00  0.97371985222E+02  0.97371985222E+02  0.00000000000E+00 0.  1.
          1   -1    0    0  501    0  0.00000000000E+00 -0.00000000000E+00 -0.12528933201E+03  0.12528933201E+03  0.00000000000E+00 0. -1.
         25    2    1    2    0    0 -0.10288482511E+01 -0.19529661630E+02 -0.27920650897E+02  0.12965272445E+03  0.12509116675E+03 0.  0.
          5    1    3    3  502    0 -0.37390875321E+02 -0.38330883676E+02 -0.57722622823E+02  0.78846101909E+02  0.41800000000E+01 0.  1.
         -5    1    3    3    0  502  0.36362027070E+02  0.18801222046E+02  0.29801971925E+02  0.50806622538E+02  0.41800000000E+01 0.  1.
        -11    1    1    2    0    0 -0.11047914521E+02 -0.29342601270E+02  0.21761465669E+02  0.38165508678E+02  0.00000000000E+00 0.  1.
         11    1    1    2    0    0  0.12076762772E+02  0.48872262900E+02 -0.21758161560E+02  0.54843084108E+02  0.00000000000E+00 0. -1.
</event>
<event>
 7    1  0.2556591E-009  0.1052971E+03  0.7561462E-02  0.1269535E+00
          2   -1    0    0  501    0  0.00000000000E+00  0.00000000000E+00  0.26854939706E+03  0.26854939706E+03  0.00000000000E+00 0. -1.
         -2   -1    0    0    0  501 -0.00000000000E+00 -0.00000000000E+00 -0.52934813322E+02  0.52934813322E+02  0.00000000000E+00 0.  1.
         25    2    1    2    0    0  0.17319808872E+02 -0.45372278747E+02  0.13481470970E+03  0.19021299254E+03  0.12508939652E+03 0.  0.
          5    1    3    3  502    0 -0.22405628941E+02  0.36409504887E+02  0.48335884044E+02  0.64664475105E+02  0.41800000000E+01 0.  1.
         -5    1    3    3    0  502  0.39725437813E+02 -0.81781783634E+02  0.86478825656E+02  0.12554851744E+03  0.41800000000E+01 0.  1.
        -11    1    1    2    0    0  0.89034513055E+01  0.49308977789E+02  0.42821463877E+01  0.50288999924E+02  0.00000000000E+00 0.  1.
         11    1    1    2    0    0 -0.26223260177E+02 -0.39366990412E+01  0.76517727655E+02  0.80982217920E+02  0.00000000000E+00 0. -1.
</event>
<event>
 7    1  0.2556591E-009  0.7884504E+02  0.7561462E-02  0.1332361E+00
          1   -1    0    0  501    0  0.00000000000E+00  0.00000000000E+00  0.39251140733E+02  0.39251140733E+02  0.00000000000E+00 0. -1.
         -1   -1    0    0    0  501 -0.00000000000E+00 -0.00000000000E+00 -0.20869239657E+03  0.20869239657E+03  0.00000000000E+00 0.  1.
         25    2    1    2    0    0 -0.41464499285E+01  0.10240288245E+02 -0.75053686370E+02  0.14629369596E+03  0.12508690215E+03 0.  0.
          5    1    3    3  502    0 -0.61692874628E+02  0.80016648952E+01 -0.17480796067E+02  0.64754058190E+02  0.41800000000E+01 0. -1.
         -5    1    3    3    0  502  0.57546424699E+02  0.22386233498E+01 -0.57572890302E+02  0.81539637772E+02  0.41800000000E+01 0. -1.
        -11    1    1    2    0    0 -0.11328307684E+02 -0.17228519869E+02 -0.55972657130E+02  0.59649734267E+02  0.00000000000E+00 0.  1.
         11    1    1    2    0    0  0.15474757612E+02  0.69882316238E+01 -0.38414912337E+02  0.42000107075E+02  0.00000000000E+00 0. -1.
</event>
<event>
 7    1  0.2556591E-009  0.1332935E+03  0.7561462E-02  0.1222649E+00
          1   -1    0    0  501    0  0.00000000000E+00  0.00000000000E+00  0.26618151312E+03  0.26618151312E+03  0.00000000000E+00 0. -1.
         -1   -1    0    0    0  501 -0.00000000000E+00 -0.00000000000E+00 -0.68784055534E+02  0.68784055534E+02  0.00000000000E+00 0.  1.
         25    2    1    2    0    0 -0.69478550383E+02 -0.40772816850E+02  0.12742797721E+03  0.19589720278E+03  0.12509249828E+03 0.  0.
          5    1    3    3  502    0  0.24033624688E+02 -0.46846291719E+02  0.62435202207E+02  0.81779074573E+02  0.41800000000E+01 0.  1.
         -5    1    3    3    0  502 -0.93512175070E+02  0.60734748688E+01  0.64992775007E+02  0.11411812821E+03  0.41800000000E+01 0.  1.
        -11    1    1    2    0    0 -0.14362074865E+02  0.32729310021E+02  0.17075497327E+02  0.39611229946E+02  0.00000000000E+00 0. -1.
         11    1    1    2    0    0  0.83840625247E+02  0.80435068294E+01  0.52893983047E+02  0.99457135926E+02  0.00000000000E+00 0.  1.
</event>
<event>
 7    1  0.2556591E-009  0.1194877E+03  0.7561462E-02  0.1243945E+00
         -2   -1    0    0    0  501 -0.00000000000E+00  0.00000000000E+00  0.11687581947E+03  0.11687581947E+03  0.00000000000E+00 0.  1.
          2   -1    0    0  501    0  0.00000000000E+00 -0.00000000000E+00 -0.17202657195E+03  0.17202657195E+03  0.00000000000E+00 0. -1.
         25    2    1    2    0    0  0.12493319971E+02 -0.68414884070E+02  0.32347653151E+02  0.14673092727E+03  0.12508762907E+03 0.  0.
          5    1    3    3  502    0 -0.56013874175E+02 -0.38920739797E+02  0.17921806953E+02  0.70647304626E+02  0.41800000000E+01 0.  1.
         -5    1    3    3    0  502  0.68507194146E+02 -0.29494144273E+02  0.14425846198E+02  0.76083622644E+02  0.41800000000E+01 0.  1.
        -11    1    1    2    0    0  0.11047807763E+02  0.71360749604E+02 -0.93072949450E+02  0.11780061358E+03  0.00000000000E+00 0. -1.
         11    1    1    2    0    0 -0.23541127734E+02 -0.29458655336E+01  0.55745438161E+01  0.24370850570E+02  0.00000000000E+00 0.  1.
</event>
<event>
 7    1  0.2556591E-009  0.1349790E+03  0.7561462E-02  0.1220249E+00
         -2   -1    0    0    0  501 -0.00000000000E+00  0.00000000000E+00  0.18640417848E+03  0.18640417848E+03  0.00000000000E+00 0.  1.
          2   -1    0    0  501    0  0.00000000000E+00 -0.00000000000E+00 -0.13247468076E+03  0.13247468076E+03  0.00000000000E+00 0. -1.
         25    2    1    2    0    0 -0.89541397160E+02 -0.61935173674E+02  0.64605853676E+02  0.17797668505E+03  0.12509259190E+03 0.  0.
          5    1    3    3  502    0 -0.81724417934E+02  0.82430288152E+01  0.68641411979E+02  0.10712583185E+03  0.41800000000E+01 0.  1.
         -5    1    3    3    0  502 -0.78169792267E+01 -0.70178202490E+02 -0.40355583036E+01  0.70850853204E+02  0.41800000000E+01 0.  1.
        -11    1    1    2    0    0  0.78984614249E+02  0.31975355658E+02 -0.43117113671E+02  0.95499100252E+02  0.00000000000E+00 0. -1.
         11    1    1    2    0    0  0.10556782911E+02  0.29959818017E+02  0.32440757716E+02  0.45403073929E+02  0.00000000000E+00 0.  1.
</event>
<event>
 7    1  0.2556591E-009  0.1129800E+03  0.7561462E-02  0.1255149E+00
         -2   -1    0    0    0  501 -0.00000000000E+00  0.00000000000E+00  0.92657067685E+01  0.92657067685E+01  0.00000000000E+00 0.  1.
          2   -1    0    0  501    0  0.00000000000E+00 -0.00000000000E+00 -0.14998002417E+04  0.14998002417E+04  0.00000000000E+00 0. -1.
         25    2    1    2    0    0  0.43039011982E+02 -0.14219481215E+02 -0.94157633877E+03  0.95093032517E+03  0.12509169200E+03 0.  0.
          5    1    3    3  502    0  0.81722966343E+02  0.47082481702E+01 -0.44603812183E+03  0.45350665856E+03  0.41800000000E+01 0. -1.
         -5    1    3    3    0  502 -0.38683954360E+02 -0.18927729385E+02 -0.49553821693E+03  0.49742366661E+03  0.41800000000E+01 0. -1.
        -11    1    1    2    0    0 -0.21354892455E+02  0.52529945132E+02 -0.31944975119E+03  0.32444347751E+03  0.00000000000E+00 0.  1.
         11    1    1    2    0    0 -0.21684119527E+02 -0.38310463917E+02 -0.22950844499E+03  0.23369214580E+03  0.00000000000E+00 0. -1.
</event>
<event>
 7    1  0.2556591E-009  0.8232761E+02  0.7561462E-02  0.1322573E+00
          2   -1    0    0  501    0  0.00000000000E+00  0.00000000000E+00  0.88388531673E+03  0.88388531673E+03  0.00000000000E+00 0. -1.
         -2   -1    0    0    0  501 -0.00000000000E+00 -0.00000000000E+00 -0.14433415225E+02  0.14433415225E+02  0.00000000000E+00 0.  1.
         25    2    1    2    0    0  0.16624358287E+02  0.17633186851E+02  0.57941277394E+03  0.59325850064E+03  0.12509671223E+03 0.  0.
          5    1    3    3  502    0 -0.69222890692E+00 -0.25353486571E+02  0.50393456481E+03  0.50458973085E+03  0.41800000000E+01 0.  1.
         -5    1    3    3    0  502  0.17316587194E+02  0.42986673421E+02  0.75478209130E+02  0.88668769797E+02  0.41800000000E+01 0.  1.
        -11    1    1    2    0    0 -0.53394946377E+02 -0.54041354115E+01  0.19916101444E+03  0.20626520466E+03  0.00000000000E+00 0.  1.
         11    1    1    2    0    0  0.36770588090E+02 -0.12229051439E+02  0.90878113118E+02  0.98795026653E+02  0.00000000000E+00 0. -1.
</event>
<event>
 7    1  0.2556591E-009  0.1209061E+03  0.7561462E-02  0.1241610E+00
          3   -1    0    0  501    0  0.00000000000E+00  0.00000000000E+00  0.19111091967E+03  0.19111091967E+03  0.00000000000E+00 0. -1.
         -3   -1    0    0    0  501 -0.00000000000E+00 -0.00000000000E+00 -0.21339230445E+03  0.21339230445E+03  0.00000000000E+00 0.  1.
         25    2    1    2    0    0  0.70274207721E+02  0.29149823362E+02  0.14062977986E+03  0.20300558358E+03  0.12508539286E+03 0.  0.
          5    1    3    3  502    0  0.10018820473E+03  0.94738260869E+01  0.66842349941E+02  0.12088342274E+03  0.41800000000E+01 0. -1.
         -5    1    3    3    0  502 -0.29913997011E+02  0.19675997275E+02  0.73787429921E+02  0.82122160835E+02  0.41800000000E+01 0. -1.
        -11    1    1    2    0    0  0.15320350366E+02 -0.42101406762E+01 -0.11604855945E+00  0.15888734598E+02  0.00000000000E+00 0. -1.
         11    1    1    2    0    0 -0.85594558087E+02 -0.24939682686E+02 -0.16279511608E+03  0.18560890594E+03  0.00000000000E+00 0.  1.
</event>
<event>
 7    1  0.2556591E-009  0.6135610E+02  0.7561462E-02  0.1392227E+00
         -2   -1    0    0    0  501 -0.00000000000E+00  0.00000000000E+00  0.83100270858E+01  0.83100270858E+01  0.00000000000E+00 0. -1.
          2   -1    0    0  501    0  0.00000000000E+00 -0.00000000000E+00 -0.19850828179E+04  0.19850828179E+04  0.00000000000E+00 0.  1.
         25    2    1    2    0    0 -0.29061434619E+02  0.49687700287E+01 -0.15801801213E+04  0.15853979138E+04  0.12509226049E+03 0.  0.
          5    1    3    3  502    0 -0.36891416615E+01 -0.16195655849E+01 -0.87671287754E+00  0.58714380140E+01  0.41800000000E+01 0. -1.
         -5    1    3    3    0  502 -0.25372292957E+02  0.65883356136E+01 -0.15793034084E+04  0.15795264758E+04  0.41800000000E+01 0. -1.
        -11    1    1    2    0    0 -0.23641450370E+02  0.20987997883E+02 -0.80420546104E+02  0.86411101522E+02  0.00000000000E+00 0.  1.
         11    1    1    2    0    0  0.52702884989E+02 -0.25956767911E+02 -0.31617212339E+03  0.32158382965E+03  0.00000000000E+00 0. -1.
</event>
<event>
 7    1  0.2556591E-009  0.1715987E+03  0.7561462E-02  0.1176191E+00
          1   -1    0    0  501    0  0.00000000000E+00  0.00000000000E+00  0.19726561720E+03  0.19726561720E+03  0.00000000000E+00 0. -1.
         -1   -1    0    0    0  501 -0.00000000000E+00 -0.00000000000E+00 -0.16028768140E+03  0.16028768140E+03  0.00000000000E+00 0.  1.
         25    2    1    2    0    0 -0.13964896783E+03  0.17187882329E+02  0.14301086617E+00  0.18826825334E+03  0.12509059617E+03 0.  0.
          5    1    3    3  502    0 -0.13569064680E+03  0.50300087178E+02  0.24405530007E+02  0.14681673165E+03  0.41800000000E+01 0.  1.
         -5    1    3    3    0  502 -0.39583210303E+01 -0.33112204849E+02 -0.24262519140E+02  0.41451521689E+02  0.41800000000E+01 0.  1.
        -11    1    1    2    0    0  0.20448432877E+02 -0.38622821414E+02  0.15104393961E+02  0.46238549480E+02  0.00000000000E+00 0. -1.
         11    1    1    2    0    0  0.11920053495E+03  0.21434939085E+02  0.21730530968E+02  0.12304649577E+03  0.00000000000E+00 0.  1.
</event>
<event>
 7    1  0.2556591E-009  0.1485701E+03  0.7561462E-02  0.1202241E+00
          3   -1    0    0  501    0  0.00000000000E+00  0.00000000000E+00  0.49047709381E+03  0.49047709381E+03  0.00000000000E+00 0. -1.
         -3   -1    0    0    0  501 -0.00000000000E+00 -0.00000000000E+00 -0.54770053904E+02  0.54770053904E+02  0.00000000000E+00 0.  1.
         25    2    1    2    0    0  0.56688827546E+02  0.10761997770E+03  0.23508704068E+03  0.29276291986E+03  0.12509407573E+03 0.  0.
          5    1    3    3  502    0 -0.96179178746E+01  0.10303187493E+03  0.17347392404E+03  0.20203649748E+03  0.41800000000E+01 0. -1.
         -5    1    3    3    0  502  0.66306745420E+02  0.45881027747E+01  0.61613116645E+02  0.90726422381E+02  0.41800000000E+01 0. -1.
        -11    1    1    2    0    0 -0.30855991505E+02 -0.91420700887E+02  0.19991797907E+03  0.22198431277E+03  0.00000000000E+00 0. -1.
         11    1    1    2    0    0 -0.25832836041E+02 -0.16199276813E+02  0.70202015410E+00  0.30499915073E+02  0.00000000000E+00 0.  1.
</event>
<event>
 7    1  0.2556591E-009  0.1714464E+03  0.7561462E-02  0.1176348E+00
         -2   -1    0    0    0  501 -0.00000000000E+00  0.00000000000E+00  0.20986961331E+02  0.20986961331E+02  0.00000000000E+00 0. -1.
          2   -1    0    0  501    0  0.00000000000E+00 -0.00000000000E+00 -0.17606205658E+04  0.17606205658E+04  0.00000000000E+00 0.  1.
         25    2    1    2    0    0 -0.11271438327E+03 -0.10817402042E+03 -0.10116671748E+04  0.10312731341E+04  0.12509058221E+03 0.  0.
          5    1    3    3  502    0 -0.12324848879E+03 -0.11498922281E+03 -0.99841047009E+03  0.10125480979E+04  0.41800000000E+01 0.  1.
         -5    1    3    3    0  502  0.10534105516E+02  0.68152023924E+01 -0.13256704664E+02  0.18725036214E+02  0.41800000000E+01 0.  1.
        -11    1    1    2    0    0  0.85344959543E+02  0.55818086968E+02 -0.60930209239E+03  0.61777703157E+03  0.00000000000E+00 0.  1.
         11    1    1    2    0    0  0.27369423728E+02  0.52355933454E+02 -0.11866433735E+03  0.13255736148E+03  0.00000000000E+00 0. -1.
</event>
<event>
 7    1  0.2556591E-009  0.7773866E+02  0.7561462E-02  0.1335594E+00
          1   -1    0    0  501    0  0.00000000000E+00  0.00000000000E+00  0.86364857954E+02  0.86364857954E+02  0.00000000000E+00 0. -1.
         -1   -1    0    0    0  501 -0.00000000000E+00 -0.00000000000E+00 -0.15693447522E+03  0.15693447522E+03  0.00000000000E+00 0.  1.
         25    2    1    2    0    0 -0.79309914358E+01 -0.25221278251E+02 -0.75022474439E+02  0.14822963358E+03  0.12507853173E+03 0.  0.
          5    1    3    3  502    0  0.23174376269E+02 -0.62043703337E+02 -0.98931963318E+01  0.67095607701E+02  0.41800000000E+01 0. -1.
         -5    1    3    3    0  502 -0.31105367704E+02  0.36822425085E+02 -0.65129278107E+02  0.81134025883E+02  0.41800000000E+01 0. -1.
        -11    1    1    2    0    0  0.19289858652E+02  0.21249021874E+02  0.44667975050E+02  0.53092820348E+02  0.00000000000E+00 0. -1.
         11    1    1    2    0    0 -0.11358867216E+02  0.39722563771E+01 -0.40215117879E+02  0.41976879245E+02  0.00000000000E+00 0.  1.
</event>
<event>
 7    1  0.2556591E-009  0.1848423E+03  0.7561462E-02  0.1163197E+00
         -2   -1    0    0    0  501 -0.00000000000E+00  0.00000000000E+00  0.18529267548E+02  0.18529267548E+02  0.00000000000E+00 0.  1.
          2   -1    0    0  501    0  0.00000000000E+00 -0.00000000000E+00 -0.25493656495E+04  0.25493656495E+04  0.00000000000E+00 0. -1.
         25    2    1    2    0    0 -0.38338231865E+02 -0.15556428679E+03 -0.18535789002E+04  0.18646896404E+04  0.12507057396E+03 0.  0.
          5    1    3    3  502    0 -0.45732859560E+02 -0.16325975992E+03 -0.13029154419E+04  0.13139069087E+04  0.41800000000E+01 0.  1.
         -5    1    3    3    0  502  0.73946276950E+01  0.76954731310E+01 -0.55066345830E+03  0.55078273170E+03  0.41800000000E+01 0.  1.
        -11    1    1    2    0    0 -0.25173627384E+02  0.10345539646E+03 -0.35346644197E+03  0.36915478619E+03  0.00000000000E+00 0. -1.
         11    1    1    2    0    0  0.63511859248E+02  0.52108890333E+02 -0.32379103983E+03  0.33405049048E+03  0.00000000000E+00 0.  1.
</event>
<event>
 7    1  0.2556591E-009  0.7672315E+02  0.7561462E-02  0.1338617E+00
         -1   -1    0    0    0  501 -0.00000000000E+00  0.00000000000E+00  0.98362957433E+02  0.98362957433E+02  0.00000000000E+00 0.  1.
          1   -1    0    0  501    0  0.00000000000E+00 -0.00000000000E+00 -0.17962195998E+03  0.17962195998E+03  0.00000000000E+00 0. -1.
         25    2    1    2    0    0  0.35526205921E+02  0.15828999613E+02 -0.10830773809E+03  0.16997407872E+03  0.12509177739E+03 0.  0.
          5    1    3    3  502    0  0.81167801947E+01  0.45916172747E+02  0.72627237295E+01  0.47375063023E+02  0.41800000000E+01 0.  1.
         -5    1    3    3    0  502  0.27409425726E+02 -0.30087173134E+02 -0.11557046182E+03  0.12259901570E+03  0.41800000000E+01 0.  1.
        -11    1    1    2    0    0  0.10396529909E+01 -0.27357074061E+02 -0.29143175927E+02  0.39985185790E+02  0.00000000000E+00 0. -1.
         11    1    1    2    0    0 -0.36565858912E+02  0.11528074448E+02  0.56191911467E+02  0.68025652902E+02  0.00000000000E+00 0.  1.
</event>
<event>
 7    1  0.2556591E-009  0.1167048E+03  0.7561462E-02  0.1248634E+00
         -1   -1    0    0    0  501 -0.00000000000E+00  0.00000000000E+00  0.27944162330E+02  0.27944162330E+02  0.00000000000E+00 0.  1.
          1   -1    0    0  501    0  0.00000000000E+00 -0.00000000000E+00 -0.54640916162E+03  0.54640916162E+03  0.00000000000E+00 0. -1.
         25    2    1    2    0    0  0.40377050600E+02  0.29258498792E+02 -0.20509548465E+03  0.24535382855E+03  0.12509187581E+03 0.  0.
          5    1    3    3  502    0 -0.11967569407E+02  0.67413026129E+02 -0.89267932025E+02  0.11257874976E+03  0.41800000000E+01 0. -1.
         -5    1    3    3    0  502  0.52344620007E+02 -0.38154527338E+02 -0.11582755262E+03  0.13277507879E+03  0.41800000000E+01 0. -1.
        -11    1    1    2    0    0 -0.64617169791E+02 -0.36998679118E+02 -0.24410495386E+03  0.25520875648E+03  0.00000000000E+00 0.  1.
         11    1    1    2    0    0  0.24240119191E+02  0.77401803267E+01 -0.69264560787E+02  0.73790738923E+02  0.00000000000E+00 0. -1.
</event>
<event>
 7    1  0.2556591E-009  0.9842600E+02  0.7561462E-02  0.1283641E+00
          1   -1    0    0  501    0  0.00000000000E+00  0.00000000000E+00  0.84565283589E+02  0.84565283589E+02  0.00000000000E+00 0. -1.
         -1   -1    0    0    0  501 -0.00000000000E+00 -0.00000000000E+00 -0.15588079015E+03  0.15588079015E+03  0.00000000000E+00 0.  1.
         25    2    1    2    0    0  0.37275138141E+02 -0.76249013758E+01 -0.28807180204E+02  0.13388382410E+03  0.12508976649E+03 0.  0.
          5    1    3    3  502    0 -0.73565980172E+01 -0.53451235199E+02  0.15099324611E+02  0.56183770632E+02  0.41800000000E+01 0.  1.
         -5    1    3    3    0  502  0.44631736158E+02  0.45826333824E+02 -0.43906504815E+02  0.77700053470E+02  0.41800000000E+01 0.  1.
        -11    1    1    2    0    0 -0.51890678941E+01  0.35651294018E+02 -0.51665735306E+02  0.62986422310E+02  0.00000000000E+00 0.  1.
         11    1    1    2    0    0 -0.32086070247E+02 -0.28026392642E+02  0.91574089504E+01  0.43575827326E+02  0.00000000000E+00 0. -1.
</event>
<event>
 7    1  0.2556591E-009  0.1736983E+03  0.7561462E-02  0.1174045E+00
          2   -1    0    0  501    0  0.00000000000E+00  0.00000000000E+00  0.25590503245E+03  0.25590503245E+03  0.00000000000E+00 0. -1.
         -2   -1    0    0    0  501 -0.00000000000E+00 -0.00000000000E+00 -0.13733498023E+03  0.13733498023E+03  0.00000000000E+00 0.  1.
         25    2    1    2    0    0 -0.13565032861E+03  0.67027786387E+02  0.40900777173E+02  0.20053482948E+03  0.12509040117E+03 0.  0.
          5    1    3    3  502    0 -0.93133425210E+02  0.10365030375E+03  0.21750438174E+02  0.14109491245E+03  0.41800000000E+01 0.  1.
         -5    1    3    3    0  502 -0.42516903395E+02 -0.36622517368E+02  0.19150338999E+02  0.59439917029E+02  0.41800000000E+01 0.  1.
        -11    1    1    2    0    0  0.47651731637E+02 -0.17672256880E+02 -0.17752660986E+02  0.53834497892E+02  0.00000000000E+00 0.  1.
         11    1    1    2    0    0  0.87998596968E+02 -0.49355529507E+02  0.95421936029E+02  0.13887068530E+03  0.00000000000E+00 0. -1.
</event>
<event>
 7    1  0.3191533E-009  0.8458170E+02  0.7561462E-02  0.1316530E+00
          2   -1    0    0  501    0  0.00000000000E+00  0.00000000000E+00  0.15483125500E+04  0.15483125500E+04  0.00000000000E+00 0.  1.
         -2   -1    0    0    0  501 -0.00000000000E+00 -0.00000000000E+00 -0.18300396407E+02  0.18300396407E+02  0.00000000000E+00 0. -1.
         25    2    1    2    0    0  0.51928305648E+02 -0.34189037253E+02  0.13354575406E+04  0.13427436351E+04  0.12509271601E+03 0.  0.
          5    1    3    3  502    0  0.15744486507E+02 -0.48848829692E+02  0.12141200703E+04  0.12152115513E+04  0.41800000000E+01 0.  1.
         -5    1    3    3    0  502  0.36183819141E+02  0.14659792439E+02  0.12133747028E+03  0.12753208372E+03  0.41800000000E+01 0.  1.
        -11    1    1    2    0    0  0.47488061181E+01  0.19202729476E+02 -0.91028793913E+00  0.19802136324E+02  0.00000000000E+00 0. -1.
         11    1    1    2    0    0 -0.56677111766E+02  0.14986307777E+02  0.19546490097E+03  0.20406717504E+03  0.00000000000E+00 0.  1.
</event>
<event>
 7    1  0.2556591E-009  0.1454390E+03  0.7561462E-02  0.1206192E+00
         -2   -1    0    0    0  501 -0.00000000000E+00  0.00000000000E+00  0.67549389907E+03  0.67549389907E+03  0.00000000000E+00 0.  1.
          2   -1    0    0  501    0  0.00000000000E+00 -0.00000000000E+00 -0.34320120517E+02  0.34320120517E+02  0.00000000000E+00 0. -1.
         25    2    1    2    0    0  0.53974188051E+02 -0.80592704304E+02  0.24460573659E+03  0.29135599440E+03  0.12509177486E+03 0.  0.
          5    1    3    3  502    0 -0.14354286228E+02 -0.88000049333E+02  0.14484568184E+03  0.17014052475E+03  0.41800000000E+01 0. -1.
         -5    1    3    3    0  502  0.68328474279E+02  0.74073450288E+01  0.99760054752E+02  0.12121546965E+03  0.41800000000E+01 0. -1.
        -11    1    1    2    0    0  0.18667209724E+02  0.51025491075E+02  0.18534256669E+03  0.19314225971E+03  0.00000000000E+00 0.  1.
         11    1    1    2    0    0 -0.72641397775E+02  0.29567213229E+02  0.21122547528E+03  0.22531576548E+03  0.00000000000E+00 0. -1.
</event>
<event>
 7    1  0.2556591E-009  0.1540269E+03  0.7561462E-02  0.1195610E+00
         -1   -1    0    0    0  501 -0.00000000000E+00  0.00000000000E+00  0.76615124708E+02  0.76615124708E+02  0.00000000000E+00 0.  1.
          1   -1    0    0  501    0  0.00000000000E+00 -0.00000000000E+00 -0.46810975002E+03  0.46810975002E+03  0.00000000000E+00 0. -1.
         25    2    1    2    0    0 -0.12323744710E+03 -0.76335835277E+02 -0.28043263685E+03  0.33956622608E+03  0.12509248564E+03 0.  0.
          5    1    3    3  502    0 -0.66403559965E+02 -0.61742608597E+02 -0.54001192959E+02  0.10561810325E+03  0.41800000000E+01 0.  1.
         -5    1    3    3    0  502 -0.56833887136E+02 -0.14593226680E+02 -0.22643144390E+03  0.23394812283E+03  0.41800000000E+01 0.  1.
        -11    1    1    2    0    0  0.92943188514E+02  0.20868420925E+02 -0.25181753615E+02  0.98529427067E+02  0.00000000000E+00 0.  1.
         11    1    1    2    0    0  0.30294258588E+02  0.55467414353E+02 -0.85880234841E+02  0.10662922158E+03  0.00000000000E+00 0. -1.
</event>
<event>
 7    1  0.2556591E-009  0.1541108E+03  0.7561462E-02  0.1195511E+00
         -2   -1    0    0    0  501 -0.00000000000E+00  0.00000000000E+00  0.25936419300E+02  0.25936419300E+02  0.00000000000E+00 0.  1.
          2   -1    0    0  501    0  0.00000000000E+00 -0.00000000000E+00 -0.98983655054E+03  0.98983655054E+03  0.00000000000E+00 0. -1.
         25    2    1    2    0    0  0.99456450263E+02  0.58053044659E+02 -0.57890744128E+03  0.60336114501E+03  0.12509637982E+03 0.  0.
          5    1    3    3  502    0  0.99293039386E+01  0.73710347653E+02 -0.19309265241E+03  0.20696388874E+03  0.41800000000E+01 0.  1.
         -5    1    3    3    0  502  0.89527146325E+02 -0.15657302994E+02 -0.38581478887E+03  0.39639725627E+03  0.41800000000E+01 0.  1.
        -11    1    1    2    0    0 -0.47611687790E+02 -0.74448048253E+02 -0.18287241366E+03  0.20310515597E+03  0.00000000000E+00 0.  1.
         11    1    1    2    0    0 -0.51844762473E+02  0.16395003594E+02 -0.20212027630E+03  0.20930666886E+03  0.00000000000E+00 0. -1.
</event>
<event>
 7    1  0.2556591E-009  0.1064721E+03  0.7561462E-02  0.1267246E+00
         -1   -1    0    0    0  501 -0.00000000000E+00  0.00000000000E+00  0.13665243696E+02  0.13665243696E+02  0.00000000000E+00 0.  1.
          1   -1    0    0  501    0  0.00000000000E+00 -0.00000000000E+00 -0.10548375523E+04  0.10548375523E+04  0.00000000000E+00 0. -1.
         25    2    1    2    0    0 -0.33772696555E+02 -0.24869821952E+02 -0.71855579701E+03  0.73056795696E+03  0.12509197915E+03 0.  0.
          5    1    3    3  502    0 -0.74692733688E+02 -0.14300544957E+02 -0.28723748409E+03  0.29716385164E+03  0.41800000000E+01 0. -1.
         -5    1    3    3    0  502  0.40920037133E+02 -0.10569276995E+02 -0.43131831291E+03  0.43340410532E+03  0.41800000000E+01 0. -1.
        -11    1    1    2    0    0  0.61197172828E+02  0.70421712176E+01 -0.26103751940E+03  0.26820751793E+03  0.00000000000E+00 0. -1.
         11    1    1    2    0    0 -0.27424476273E+02  0.17827650734E+02 -0.61578992211E+02  0.69727321125E+02  0.00000000000E+00 0.  1.
</event>
<event>
 7    1  0.2556591E-009  0.1113523E+03  0.7561462E-02  0.1258086E+00
          2   -1    0    0  501    0  0.00000000000E+00  0.00000000000E+00  0.15796946059E+04  0.15796946059E+04  0.00000000000E+00 0. -1.
         -2   -1    0    0    0  501 -0.00000000000E+00 -0.00000000000E+00 -0.12868473011E+02  0.12868473011E+02  0.00000000000E+00 0.  1.
         25    2    1    2    0    0 -0.28589809581E+02  0.37132305077E+02  0.13186698631E+04  0.13254184595E+04  0.12509076494E+03 0.  0.
          5    1    3    3  502    0 -0.70447974197E+02  0.56185528717E+00  0.94283392396E+03  0.94547158250E+03  0.41800000000E+01 0. -1.
         -5    1    3    3    0  502  0.41858164616E+02  0.36570449790E+02  0.37583593919E+03  0.37994687699E+03  0.41800000000E+01 0. -1.
        -11    1    1    2    0    0 -0.33503844329E+01  0.25693682414E+02  0.42818255041E+02  0.50047910612E+02  0.00000000000E+00 0. -1.
         11    1    1    2    0    0  0.31940194014E+02 -0.62825987491E+02  0.20533801472E+03  0.21709670884E+03  0.00000000000E+00 0.  1.
</event>
<event>
 7    1  0.2556591E-009  0.1500275E+03  0.7561462E-02  0.1200439E+00
          1   -1    0    0  501    0  0.00000000000E+00  0.00000000000E+00  0.95427195553E+02  0.95427195553E+02  0.00000000000E+00 0. -1.
         -1   -1    0    0    0  501 -0.00000000000E+00 -0.00000000000E+00 -0.31806378876E+03  0.31806378876E+03  0.00000000000E+00 0.  1.
         25    2    1    2    0    0  0.89345145389E+02 -0.10201721557E+03 -0.12958849990E+03  0.22544888565E+03  0.12507579086E+03 0.  0.
          5    1    3    3  502    0  0.82743680959E+02 -0.10585304254E+03 -0.15110323870E+03  0.20224006650E+03  0.41800000000E+01 0.  1.
         -5    1    3    3    0  502  0.66014644305E+01  0.38358269672E+01  0.21514738795E+02  0.23208819155E+02  0.41800000000E+01 0.  1.
        -11    1    1    2    0    0 -0.49786443527E+02  0.25118402851E+01 -0.55424197134E+02  0.74544221296E+02  0.00000000000E+00 0.  1.
         11    1    1    2    0    0 -0.39558701863E+02  0.99505375284E+02 -0.37623896175E+02  0.11349787737E+03  0.00000000000E+00 0. -1.
</event>
<event>
 7    1  0.2556591E-009  0.6795709E+02  0.7561462E-02  0.1367181E+00
         -2   -1    0    0    0  501 -0.00000000000E+00  0.00000000000E+00  0.62008273055E+03  0.62008273055E+03  0.00000000000E+00 0.  1.
          2   -1    0    0  501    0  0.00000000000E+00 -0.00000000000E+00 -0.21154267792E+02  0.21154267792E+02  0.00000000000E+00 0. -1.
         25    2    1    2    0    0 -0.23138067791E+02 -0.27881148062E+02  0.37372229325E+03  0.39576260629E+03  0.12508780704E+03 0.  0.
          5    1    3    3  502    0 -0.73617642181E+01 -0.19389359122E+01 -0.85949240000E+01  0.12218844603E+02  0.41800000000E+01 0. -1.
         -5    1    3    3    0  502 -0.15776303573E+02 -0.25942212150E+02  0.38231721725E+03  0.38354376169E+03  0.41800000000E+01 0. -1.
        -11    1    1    2    0    0  0.56037779217E+02  0.30092086869E+02  0.13014519796E+03  0.14485696028E+03  0.00000000000E+00 0.  1.
         11    1    1    2    0    0 -0.32899711426E+02 -0.22109388064E+01  0.95060971548E+02  0.10061743176E+03  0.00000000000E+00 0. -1.
</event>
<event>
 7    1  0.2556591E-009  0.8543395E+02  0.7561462E-02  0.1314302E+00
          1   -1    0    0  501    0  0.00000000000E+00  0.00000000000E+00  0.40165646051E+03  0.40165646051E+03  0.00000000000E+00 0. -1.
         -1   -1    0    0    0  501 -0.00000000000E+00 -0.00000000000E+00 -0.29434322201E+02  0.29434322201E+02  0.00000000000E+00 0.  1.
         25    2    1    2    0    0 -0.10074809555E+02  0.12154604256E+02  0.24145095358E+03  0.27238843608E+03  0.12509061088E+03 0.  0.
          5    1    3    3  502    0  0.22616798663E+02  0.61285793967E+02  0.10603207106E+03  0.12461035517E+03  0.41800000000E+01 0.  1.
         -5    1    3    3    0  502 -0.32691608218E+02 -0.49131189711E+02  0.13541888253E+03  0.14777808090E+03  0.41800000000E+01 0.  1.
        -11    1    1    2    0    0 -0.89540402761E+01  0.12329437890E+02 -0.75093097848E+01  0.16987631070E+02  0.00000000000E+00 0.  1.
         11    1    1    2    0    0  0.19028849831E+02 -0.24484042145E+02  0.13828049451E+03  0.14171471557E+03  0.00000000000E+00 0. -1.
</event>
<event>
 7    1  0.2556591E-009  0.1635623E+03  0.7561462E-02  0.1184733E+00
          1   -1    0    0  501    0  0.00000000000E+00  0.00000000000E+00  0.97049047762E+02  0.97049047762E+02  0.00000000000E+00 0. -1.
         -1   -1    0    0    0  501 -0.00000000000E+00 -0.00000000000E+00 -0.34625544273E+03  0.34625544273E+03  0.00000000000E+00 0.  1.
         25    2    1    2    0    0 -0.12439046128E+03 -0.60200245588E+01 -0.36401977478E+02  0.18022375007E+03  0.12508504535E+03 0.  0.
          5    1    3    3  502    0  0.17770157193E+02 -0.23009575934E+02 -0.21122077711E+02  0.36177805878E+02  0.41800000000E+01 0. -1.
         -5    1    3    3    0  502 -0.14216061847E+03  0.16989551375E+02 -0.15279899767E+02  0.14404594419E+03  0.41800000000E+01 0. -1.
        -11    1    1    2    0    0  0.99541774986E+02  0.44241720041E+02 -0.15538366616E+03  0.18976295336E+03  0.00000000000E+00 0.  1.
         11    1    1    2    0    0  0.24848686296E+02 -0.38221695482E+02 -0.57420751331E+02  0.73317787061E+02  0.00000000000E+00 0. -1.
</event>
<event>
 7    1  0.2556591E-009  0.8526702E+02  0.7561462E-02  0.1314736E+00
         -1   -1    0    0    0  501 -0.00000000000E+00  0.00000000000E+00  0.46971384083E+02  0.46971384083E+02  0.00000000000E+00 0.  1.
          1   -1    0    0  501    0  0.00000000000E+00 -0.00000000000E+00 -0.27829443481E+03  0.27829443481E+03  0.00000000000E+00 0. -1.
         25    2    1    2    0    0  0.16877859490E+02  0.16810365356E+02 -0.90818845266E+02  0.15640874313E+03  0.12509269263E+03 0.  0.
          5    1    3    3  502    0 -0.38313399385E+02  0.22540654764E+02  0.56876150696E+01  0.45009099689E+02  0.41800000000E+01 0. -1.
         -5    1    3    3    0  502  0.55191258875E+02 -0.57302894084E+01 -0.96506460336E+02  0.11139964344E+03  0.41800000000E+01 0. -1.
        -11    1    1    2    0    0 -0.33001404755E+02  0.13699827603E+02 -0.15100177531E+02  0.38791666033E+02  0.00000000000E+00 0.  1.
         11    1    1    2    0    0  0.16123545265E+02 -0.30510192959E+02 -0.12540402793E+03  0.13006540972E+03  0.00000000000E+00 0. -1.
</event>
<event>
 7    1  0.2556591E-009  0.6976967E+02  0.7561462E-02  0.1360878E+00
         -2   -1    0    0    0  501 -0.00000000000E+00  0.00000000000E+00  0.18254548207E+02  0.18254548207E+02  0.00000000000E+00 0.  1.
          2   -1    0    0  501    0  0.00000000000E+00 -0.00000000000E+00 -0.82298721304E+03  0.82298721304E+03  0.00000000000E+00 0. -1.
         25    2    1    2    0    0 -0.12527309002E+02 -0.42687059327E+02 -0.56807379458E+03  0.58338284545E+03  0.12509432347E+03 0.  0.
          5    1    3    3  502    0 -0.10426903731E+02 -0.49430193989E+02 -0.76679239086E+02  0.91919761238E+02  0.41800000000E+01 0.  1.
         -5    1    3    3    0  502 -0.21004052710E+01  0.67431346614E+01 -0.49139455550E+03  0.49146308421E+03  0.41800000000E+01 0.  1.
        -11    1    1    2    0    0 -0.26746895794E+02  0.27970966859E+02 -0.35974373901E+02  0.52838688470E+02  0.00000000000E+00 0.  1.
         11    1    1    2    0    0  0.39274204796E+02  0.14716092468E+02 -0.20068449635E+03  0.20502022733E+03  0.00000000000E+00 0. -1.
</event>
<event>
 7    1  0.2556591E-009  0.1491656E+03  0.7561462E-02  0.1201502E+00
         -2   -1    0    0    0  501 -0.00000000000E+00  0.00000000000E+00  0.44710916583E+02  0.44710916583E+02  0.00000000000E+00 0.  1.
          2   -1    0    0  501    0  0.00000000000E+00 -0.00000000000E+00 -0.65307215760E+03  0.65307215760E+03  0.00000000000E+00 0. -1.
         25    2    1    2    0    0  0.10607802978E+03  0.78094395623E+02 -0.35420379893E+03  0.39806914049E+03  0.12508967346E+03 0.  0.
          5    1    3    3  502    0  0.43122685524E+02  0.88965716780E+02 -0.12138978157E+03  0.15661231190E+03  0.41800000000E+01 0. -1.
         -5    1    3    3    0  502  0.62955344256E+02 -0.10871321157E+02 -0.23281401736E+03  0.24145682859E+03  0.41800000000E+01 0. -1.
        -11    1    1    2    0    0 -0.55414091269E+02 -0.21616552548E+02 -0.37891121837E+02  0.70524704673E+02  0.00000000000E+00 0.  1.
         11    1    1    2    0    0 -0.50663938511E+02 -0.56477843076E+02 -0.21626632025E+03  0.22918922902E+03  0.00000000000E+00 0. -1.
</event>
<event>
 7    1  0.2556591E-009  0.2275807E+03  0.7561462E-02  0.1128354E+00
         -1   -1    0    0    0  501 -0.00000000000E+00  0.00000000000E+00  0.12322496240E+03  0.12322496240E+03  0.00000000000E+00 0.  1.
          1   -1    0    0  501    0  0.00000000000E+00 -0.00000000000E+00 -0.45352427985E+03  0.45352427985E+03  0.00000000000E+00 0. -1.
         25    2    1    2    0    0  0.18616147601E+03  0.89837060842E+02 -0.21483603774E+03  0.32330903102E+03  0.12508962298E+03 0.  0.
          5    1    3    3  502    0  0.15656038641E+02  0.58895392974E+02 -0.24347856537E+02  0.65757656417E+02  0.41800000000E+01 0.  1.
         -5    1    3    3    0  502  0.17050543736E+03  0.30941667868E+02 -0.19048818120E+03  0.25755137460E+03  0.41800000000E+01 0.  1.
        -11    1    1    2    0    0 -0.28565392978E+02 -0.50954183520E+02 -0.84638248751E+01  0.59024967816E+02  0.00000000000E+00 0. -1.
         11    1    1    2    0    0 -0.15759608303E+03 -0.38882877322E+02 -0.10699945483E+03  0.19441524341E+03  0.00000000000E+00 0.  1.
</event>
<event>
 7    1  0.2556591E-009  0.1102516E+03  0.7561462E-02  0.1260105E+00
          2   -1    0    0  501    0  0.00000000000E+00  0.00000000000E+00  0.32167332632E+03  0.32167332632E+03  0.00000000000E+00 0.  1.
         -2   -1    0    0    0  501 -0.00000000000E+00 -0.00000000000E+00 -0.39309724760E+02  0.39309724760E+02  0.00000000000E+00 0. -1.
         25    2    1    2    0    0  0.28065706871E+01  0.33803974866E+02  0.14990869394E+03  0.19817303982E+03  0.12509736862E+03 0.  0.
          5    1    3    3  502    0 -0.98841820787E+01  0.80065191198E+02  0.83905274065E+02  0.11647188207E+03  0.41800000000E+01 0. -1.
         -5    1    3    3    0  502  0.12690752766E+02 -0.46261216332E+02  0.66003419872E+02  0.81701157746E+02  0.41800000000E+01 0. -1.
        -11    1    1    2    0    0  0.39448448823E+02 -0.35645168149E+01  0.78361737560E+02  0.87803461254E+02  0.00000000000E+00 0.  1.
         11    1    1    2    0    0 -0.42255019510E+02 -0.30239458051E+02  0.54093170063E+02  0.75006550011E+02  0.00000000000E+00 0. -1.
</event>
<event>
 7    1  0.2556591E-009  0.1087280E+03  0.7561462E-02  0.1262944E+00
         -2   -1    0    0    0  501 -0.00000000000E+00  0.00000000000E+00  0.30438031825E+02  0.30438031825E+02  0.00000000000E+00 0.  1.
          2   -1    0    0  501    0  0.00000000000E+00 -0.00000000000E+00 -0.78085742126E+03  0.78085742126E+03  0.00000000000E+00 0. -1.
         25    2    1    2    0    0  0.16274011589E+02 -0.93387566241E+02 -0.46168436765E+03  0.48763236154E+03  0.12508710448E+03 0.  0.
          5    1    3    3  502    0  0.26326180289E+02 -0.88202824361E+02 -0.46584974269E+03  0.47487499530E+03  0.41800000000E+01 0.  1.
         -5    1    3    3    0  502 -0.10052168700E+02 -0.51847418800E+01  0.41653750491E+01  0.12757366234E+02  0.41800000000E+01 0.  1.
        -11    1    1    2    0    0  0.23463073360E+02  0.25981442713E+02 -0.13498424220E+02  0.37520109720E+02  0.00000000000E+00 0.  1.
         11    1    1    2    0    0 -0.39737084949E+02  0.67406123528E+02 -0.27523659757E+03  0.28614298183E+03  0.00000000000E+00 0. -1.
</event>
<event>
 7    1  0.2556591E-009  0.9857438E+02  0.7561462E-02  0.1283323E+00
          2   -1    0    0  501    0  0.00000000000E+00  0.00000000000E+00  0.21791027533E+03  0.21791027533E+03  0.00000000000E+00 0. -1.
         -2   -1    0    0    0  501 -0.00000000000E+00 -0.00000000000E+00 -0.64375358470E+02  0.64375358470E+02  0.00000000000E+00 0.  1.
         25    2    1    2    0    0  0.15812228286E+02 -0.22612143972E+01  0.14104133175E+03  0.18920003611E+03  0.12509539060E+03 0.  0.
          5    1    3    3  502    0 -0.34159128101E+02 -0.38282899136E+02  0.10689478239E+03  0.11864397710E+03  0.41800000000E+01 0. -1.
         -5    1    3    3    0  502  0.49971356387E+02  0.36021684738E+02  0.34146549355E+02  0.70556059013E+02  0.41800000000E+01 0. -1.
        -11    1    1    2    0    0  0.25918281246E+02 -0.23417566251E+02  0.24465114902E+02  0.42646002849E+02  0.00000000000E+00 0. -1.
         11    1    1    2    0    0 -0.41730509533E+02  0.25678780648E+02 -0.11971529795E+02  0.50439594834E+02  0.00000000000E+00 0.  1.
</event>
<event>
 7    1  0.2556591E-009  0.1354889E+03  0.7561462E-02  0.1219531E+00
          1   -1    0    0  501    0  0.00000000000E+00  0.00000000000E+00  0.78793482616E+03  0.78793482616E+03  0.00000000000E+00 0. -1.
         -1   -1    0    0    0  501 -0.00000000000E+00 -0.00000000000E+00 -0.24757333420E+02  0.24757333420E+02  0.00000000000E+00 0.  1.
         25    2    1    2    0    0 -0.11044751436E+02  0.84903436627E+02  0.48062790622E+03  0.50396649788E+03  0.12509383143E+03 0.  0.
          5    1    3    3  502    0 -0.57424734520E+02  0.83359088902E+02  0.27345327770E+03  0.29161705253E+03  0.41800000000E+01 0. -1.
         -5    1    3    3    0  502  0.46379983084E+02  0.15443477248E+01  0.20717462852E+03  0.21234944535E+03  0.41800000000E+01 0. -1.
        -11    1    1    2    0    0 -0.38738800812E+02 -0.44157586329E+02  0.15751473158E+03  0.16811150402E+03  0.00000000000E+00 0.  1.
         11    1    1    2    0    0  0.49783552248E+02 -0.40745850298E+02  0.12503485494E+03  0.14061415768E+03  0.00000000000E+00 0. -1.
</event>
<event>
 7    1  0.2556591E-009  0.1186676E+03  0.7561462E-02  0.1245311E+00
          1   -1    0    0  501    0  0.00000000000E+00  0.00000000000E+00  0.11518136851E+03  0.11518136851E+03  0.00000000000E+00 0. -1.
         -1   -1    0    0    0  501 -0.00000000000E+00 -0.00000000000E+00 -0.19369048523E+03  0.19369048523E+03  0.00000000000E+00 0.  1.
         25    2    1    2    0    0  0.45040997012E+02  0.90144328033E+02 -0.23708282047E+02  0.16236702448E+03  0.12508507789E+03 0.  0.
          5    1    3    3  502    0  0.63337589199E+02  0.75847763039E+02 -0.62476424304E+02  0.11698422696E+03  0.41800000000E+01 0.  1.
         -5    1    3    3    0  502 -0.18296592187E+02  0.14296564993E+02  0.38768142257E+02  0.45382797516E+02  0.41800000000E+01 0.  1.
        -11    1    1    2    0    0  0.65668407784E+01 -0.47327973008E+02 -0.62867691987E+02  0.78964594108E+02  0.00000000000E+00 0.  1.
         11    1    1    2    0    0 -0.51607837790E+02 -0.42816355025E+02  0.80668573128E+01  0.67540235163E+02  0.00000000000E+00 0. -1.
</event>
<event>
 7    1  0.2556591E-009  0.1296739E+03  0.7561462E-02  0.1227940E+00
          2   -1    0    0  501    0  0.00000000000E+00  0.00000000000E+00  0.37562465532E+03  0.37562465532E+03  0.00000000000E+00 0. -1.
         -2   -1    0    0    0  501 -0.00000000000E+00 -0.00000000000E+00 -0.54844461284E+02  0.54844461284E+02  0.00000000000E+00 0.  1.
         25    2    1    2    0    0 -0.51380771572E+02  0.74055460545E+02  0.21347616535E+03  0.26333346632E+03  0.12509295100E+03 0.  0.
          5    1    3    3  502    0 -0.80811917652E+02  0.12697037904E+02  0.14600764815E+03  0.16741411686E+03  0.41800000000E+01 0. -1.
         -5    1    3    3    0  502  0.29431146080E+02  0.61358422641E+02  0.67468517201E+02  0.95919349465E+02  0.41800000000E+01 0. -1.
        -11    1    1    2    0    0  0.59065305043E+01  0.11183397132E+02 -0.93075522586E+01  0.15703057124E+02  0.00000000000E+00 0.  1.
         11    1    1    2    0    0  0.45474241067E+02 -0.85238857676E+02  0.11661158094E+03  0.15143259315E+03  0.00000000000E+00 0. -1.
</event>
<event>
 7    1  0.2556591E-009  0.9496097E+02  0.7561462E-02  0.1291264E+00
         -1   -1    0    0    0  501 -0.00000000000E+00  0.00000000000E+00  0.60569454892E+02  0.60569454892E+02  0.00000000000E+00 0.  1.
          1   -1    0    0  501    0  0.00000000000E+00 -0.00000000000E+00 -0.34456585571E+03  0.34456585571E+03  0.00000000000E+00 0. -1.
         25    2    1    2    0    0 -0.86772458972E+02  0.98948375231E+01 -0.20514873107E+03  0.25565681889E+03  0.12508812789E+03 0.  0.
          5    1    3    3  502    0  0.92104162047E+00  0.13731544780E+02  0.13675473362E+02  0.19846778363E+02  0.41800000000E+01 0.  1.
         -5    1    3    3    0  502 -0.87693500593E+02 -0.38367072567E+01 -0.21882420443E+03  0.23581004053E+03  0.41800000000E+01 0.  1.
        -11    1    1    2    0    0  0.20091914343E+02 -0.55280120597E+01 -0.79975313758E+02  0.82645597281E+02  0.00000000000E+00 0. -1.
         11    1    1    2    0    0  0.66680544630E+02 -0.43668254634E+01  0.11276440115E+01  0.66832894429E+02  0.00000000000E+00 0.  1.
</event>
<event>
 7    1  0.2556591E-009  0.9709866E+02  0.7561462E-02  0.1286518E+00
          2   -1    0    0  501    0  0.00000000000E+00  0.00000000000E+00  0.77571749480E+02  0.77571749480E+02  0.00000000000E+00 0. -1.
         -2   -1    0    0    0  501 -0.00000000000E+00 -0.00000000000E+00 -0.20329616634E+03  0.20329616634E+03  0.00000000000E+00 0.  1.
         25    2    1    2    0    0  0.24980656721E+02  0.18595950467E+02 -0.92749949180E+01  0.12924239457E+03  0.12509088072E+03 0.  0.
          5    1    3    3  502    0  0.58410042339E+02 -0.79150565563E+01 -0.44324507184E+02  0.73868230678E+02  0.41800000000E+01 0. -1.
         -5    1    3    3    0  502 -0.33429385618E+02  0.26511007023E+02  0.35049512266E+02  0.55374163888E+02  0.41800000000E+01 0. -1.
        -11    1    1    2    0    0  0.27822602783E+02  0.12990568804E+02 -0.63155615930E+02  0.70224525110E+02  0.00000000000E+00 0.  1.
         11    1    1    2    0    0 -0.52803259504E+02 -0.31586519271E+02 -0.53293806013E+02  0.81400996144E+02  0.00000000000E+00 0. -1.
</event>
<event>
 7    1  0.2556591E-009  0.1369368E+03  0.7561462E-02  0.1217511E+00
         -2   -1    0    0    0  501 -0.00000000000E+00  0.00000000000E+00  0.27062356694E+02  0.27062356694E+02  0.00000000000E+00 0.  1.
          2   -1    0    0  501    0  0.00000000000E+00 -0.00000000000E+00 -0.86390139198E+03  0.86390139198E+03  0.00000000000E+00 0. -1.
         25    2    1    2    0    0  0.70596079581E+02 -0.79048651043E+02 -0.48667816336E+03  0.51355203934E+03  0.12509023436E+03 0.  0.
          5    1    3    3  502    0  0.74474371765E+02 -0.14737870611E+02 -0.12617697648E+03  0.14731509995E+03  0.41800000000E+01 0. -1.
         -5    1    3    3    0  502 -0.38782921833E+01 -0.64310780432E+02 -0.36050118688E+03  0.36623693939E+03  0.41800000000E+01 0. -1.
        -11    1    1    2    0    0 -0.53444638562E+02  0.10920728906E+01 -0.20386338201E+03  0.21075530963E+03  0.00000000000E+00 0. -1.
         11    1    1    2    0    0 -0.17151441019E+02  0.77956578152E+02 -0.14629748992E+03  0.16665639971E+03  0.00000000000E+00 0.  1.
</event>
<event>
 7    1  0.3413614E-009  0.1214376E+03  0.7561462E-02  0.1240744E+00
         -1   -1    0    0    0  501 -0.00000000000E+00  0.00000000000E+00  0.55621154567E+02  0.55621154567E+02  0.00000000000E+00 0.  1.
          1   -1    0    0  501    0  0.00000000000E+00 -0.00000000000E+00 -0.41356971091E+03  0.41356971091E+03  0.00000000000E+00 0. -1.
         25    2    1    2    0    0 -0.95897552020E+02  0.16121883339E+02 -0.13010128639E+03  0.20501279959E+03  0.12509055787E+03 0.  0.
          5    1    3    3  502    0 -0.81715447292E+02  0.34669260484E+02 -0.14980355965E+03  0.17417792866E+03  0.41800000000E+01 0.  1.
         -5    1    3    3    0  502 -0.14182104728E+02 -0.18547377145E+02  0.19702273258E+02  0.30834870926E+02  0.41800000000E+01 0.  1.
        -11    1    1    2    0    0  0.30291679706E+02  0.35604369862E+02 -0.54877428036E+02  0.72088758628E+02  0.00000000000E+00 0.  1.
         11    1    1    2    0    0  0.65605872314E+02 -0.51726253202E+02 -0.17296984191E+03  0.19208930726E+03  0.00000000000E+00 0. -1.
</event>
<event>
 7    1  0.2556591E-009  0.1065572E+03  0.7561462E-02  0.1267082E+00
          2   -1    0    0  501    0  0.00000000000E+00  0.00000000000E+00  0.51925907396E+02  0.51925907396E+02  0.00000000000E+00 0.  1.
         -2   -1    0    0    0  501 -0.00000000000E+00 -0.00000000000E+00 -0.44837747547E+03  0.44837747547E+03  0.00000000000E+00 0. -1.
         25    2    1    2    0    0 -0.49756841478E+02  0.14723900894E+02 -0.58216199477E+02  0.14740850737E+03  0.12509038985E+03 0.  0.
          5    1    3    3  502    0 -0.69809723828E+02  0.55616711029E+02 -0.33549738768E+02  0.95444609371E+02  0.41800000000E+01 0. -1.
         -5    1    3    3    0  502  0.20052882350E+02 -0.40892810136E+02 -0.24666460709E+02  0.51963897999E+02  0.41800000000E+01 0. -1.
        -11    1    1    2    0    0  0.62369276379E+02 -0.18146986458E+02 -0.33221593690E+03  0.33850652650E+03  0.00000000000E+00 0. -1.
         11    1    1    2    0    0 -0.12612434901E+02  0.34230855643E+01 -0.60194316995E+01  0.14388348998E+02  0.00000000000E+00 0.  1.
</event>
<event>
 7    1  0.2556591E-009  0.1183219E+03  0.7561462E-02  0.1245891E+00
         -3   -1    0    0    0  501 -0.00000000000E+00  0.00000000000E+00  0.57177862488E+02  0.57177862488E+02  0.00000000000E+00 0.  1.
          3   -1    0    0  501    0  0.00000000000E+00 -0.00000000000E+00 -0.26314748961E+03  0.26314748961E+03  0.00000000000E+00 0. -1.
         25    2    1    2    0    0  0.37190078679E+02  0.42460117782E+02 -0.12723455272E+03  0.18713947662E+03  0.12508632519E+03 0.  0.
          5    1    3    3  502    0  0.33624363033E+02 -0.36681787350E+02 -0.81461908454E+02  0.95549286975E+02  0.41800000000E+01 0. -1.
         -5    1    3    3    0  502  0.35657156455E+01  0.79141905132E+02 -0.45772644269E+02  0.91590189646E+02  0.41800000000E+01 0. -1.
        -11    1    1    2    0    0 -0.67868421991E+02 -0.31189224482E+02 -0.52967356505E+02  0.91566540190E+02  0.00000000000E+00 0. -1.
         11    1    1    2    0    0  0.30678343312E+02 -0.11270893300E+02 -0.25767717890E+02  0.41619335283E+02  0.00000000000E+00 0.  1.
</event>
<event>
 7    1  0.2556591E-009  0.9587839E+02  0.7561462E-02  0.1289210E+00
         -3   -1    0    0    0  501 -0.00000000000E+00  0.00000000000E+00  0.28851702974E+02  0.28851702974E+02  0.00000000000E+00 0.  1.
          3   -1    0    0  501    0  0.00000000000E+00 -0.00000000000E+00 -0.47693538778E+03  0.47693538778E+03  0.00000000000E+00 0. -1.
         25    2    1    2    0    0 -0.11066485689E+02 -0.36958934395E+01 -0.34769015339E+03  0.36969140348E+03  0.12508862582E+03 0.  0.
          5    1    3    3  502    0  0.74099019089E+01  0.50886339131E+02 -0.75547888718E+02  0.91483780235E+02  0.41800000000E+01 0.  1.
         -5    1    3    3    0  502 -0.18476387598E+02 -0.54582232570E+02 -0.27214226468E+03  0.27820762325E+03  0.41800000000E+01 0.  1.
        -11    1    1    2    0    0 -0.79511024753E+01  0.40332998870E+02 -0.80244310928E+02  0.90161634107E+02  0.00000000000E+00 0. -1.
         11    1    1    2    0    0  0.19017588164E+02 -0.36637105431E+02 -0.20149220486E+02  0.45934053164E+02  0.00000000000E+00 0.  1.
</event>
<event>
 7    1  0.2556591E-009  0.1159933E+03  0.7561462E-02  0.1249857E+00
         -2   -1    0    0    0  501 -0.00000000000E+00  0.00000000000E+00  0.11305855767E+03  0.11305855767E+03  0.00000000000E+00 0.  1.
          2   -1    0    0  501    0  0.00000000000E+00 -0.00000000000E+00 -0.14988925081E+03  0.14988925081E+03  0.00000000000E+00 0. -1.
         25    2    1    2    0    0  0.60721558764E+02  0.13487397135E+02  0.14833887844E+02  0.14048722015E+03  0.12509035621E+03 0.  0.
          5    1    3    3  502    0  0.98985021222E+02  0.16963057399E+02  0.51606254272E+01  0.10064732583E+03  0.41800000000E+01 0. -1.
         -5    1    3    3    0  502 -0.38263462458E+02 -0.34756602634E+01  0.96732624172E+01  0.39839894319E+02  0.41800000000E+01 0. -1.
        -11    1    1    2    0    0 -0.72822348238E+02 -0.24122714747E+02 -0.94711865999E+01  0.77296203951E+02  0.00000000000E+00 0.  1.
         11    1    1    2    0    0  0.12100789474E+02  0.10635317611E+02 -0.42193394387E+02  0.45164384381E+02  0.00000000000E+00 0. -1.
</event>
<event>
 7    1  0.2556591E-009  0.1481643E+03  0.7561462E-02  0.1202747E+00
          1   -1    0    0  501    0  0.00000000000E+00  0.00000000000E+00  0.54716091126E+02  0.54716091126E+02  0.00000000000E+00 0. -1.
         -1   -1    0    0    0  501 -0.00000000000E+00 -0.00000000000E+00 -0.54800844291E+03  0.54800844291E+03  0.00000000000E+00 0.  1.
         25    2    1    2    0    0 -0.70614823714E+02  0.98686066935E+02 -0.36395042588E+03  0.40352688771E+03  0.12509453813E+03 0.  0.
          5    1    3    3  502    0 -0.29419638633E+02 -0.26055399310E+02 -0.54501849179E+02  0.67322529174E+02  0.41800000000E+01 0. -1.
         -5    1    3    3    0  502 -0.41195185081E+02  0.12474146624E+03 -0.30944857671E+03  0.33620435854E+03  0.41800000000E+01 0. -1.
        -11    1    1    2    0    0  0.33015835897E+02 -0.72175631246E+02 -0.13099406215E+03  0.15316269613E+03  0.00000000000E+00 0.  1.
         11    1    1    2    0    0  0.37598987817E+02 -0.26510435688E+02  0.16521362554E+01  0.46034950195E+02  0.00000000000E+00 0. -1.
</event>
<event>
 7    1  0.2556591E-009  0.1202624E+03  0.7561462E-02  0.1242665E+00
         -2   -1    0    0    0  501 -0.00000000000E+00  0.00000000000E+00  0.17994342390E+03  0.17994342390E+03  0.00000000000E+00 0.  1.
          2   -1    0    0  501    0  0.00000000000E+00 -0.00000000000E+00 -0.28230189134E+03  0.28230189134E+03  0.00000000000E+00 0. -1.
         25    2    1    2    0    0  0.26688530822E+02  0.58323367018E+02  0.13737572425E+03  0.19655051521E+03  0.12508446185E+03 0.  0.
          5    1    3    3  502    0  0.11027597136E+02 -0.33742326408E+02  0.74870570913E+01  0.36519596300E+02  0.41800000000E+01 0. -1.
         -5    1    3    3    0  502  0.15660933686E+02  0.92065693426E+02  0.12988866716E+03  0.16003091891E+03  0.41800000000E+01 0. -1.
        -11    1    1    2    0    0 -0.34661351011E+02  0.14838644691E+02 -0.11320753995E+03  0.11932117051E+03  0.00000000000E+00 0.  1.
         11    1    1    2    0    0  0.79728201888E+01 -0.73162011709E+02 -0.12652665174E+03  0.14637362952E+03  0.00000000000E+00 0. -1.
</event>
<event>
 7    1  0.2556591E-009  0.2119846E+03  0.7561462E-02  0.1140004E+00
         -1   -1    0    0    0  501 -0.00000000000E+00  0.00000000000E+00  0.10988085065E+03  0.10988085065E+03  0.00000000000E+00 0.  1.
          1   -1    0    0  501    0  0.00000000000E+00 -0.00000000000E+00 -0.56267402934E+03  0.56267402934E+03  0.00000000000E+00 0. -1.
         25    2    1    2    0    0  0.19993955844E+03 -0.32047647829E+02 -0.10592466565E+03  0.26051863682E+03  0.12508815522E+03 0.  0.
          5    1    3    3  502    0  0.10919448983E+03 -0.23034620461E+02  0.10957480784E+02  0.11221216126E+03  0.41800000000E+01 0.  1.
         -5    1    3    3    0  502  0.90745068609E+02 -0.90130273684E+01 -0.11688214643E+03  0.14830647556E+03  0.41800000000E+01 0.  1.
        -11    1    1    2    0    0 -0.20203238177E+03  0.45747629932E+02 -0.31190074055E+03  0.37442222274E+03  0.00000000000E+00 0.  1.
         11    1    1    2    0    0  0.20928233308E+01 -0.13699982103E+02 -0.34967772497E+02  0.37614020425E+02  0.00000000000E+00 0. -1.
</event>
<event>
 7    1  0.2556591E-009  0.9992535E+02  0.7561462E-02  0.1280453E+00
          4   -1    0    0  501    0  0.00000000000E+00  0.00000000000E+00  0.35698692856E+03  0.35698692856E+03  0.00000000000E+00 0. -1.
         -4   -1    0    0    0  501 -0.00000000000E+00 -0.00000000000E+00 -0.33805873823E+02  0.33805873823E+02  0.00000000000E+00 0.  1.
         25    2    1    2    0    0  0.83543251905E+01 -0.85973597204E+01  0.15952314432E+03  0.20307548025E+03  0.12509319631E+03 0.  0.
          5    1    3    3  502    0 -0.45149819799E+02  0.28821359453E+02  0.40594513257E+02  0.67339170586E+02  0.41800000000E+01 0. -1.
         -5    1    3    3    0  502  0.53504144989E+02 -0.37418719173E+02  0.11892863106E+03  0.13573630967E+03  0.41800000000E+01 0. -1.
        -11    1    1    2    0    0  0.35861376331E+02  0.12986168945E+01  0.30086533341E+02  0.46828668641E+02  0.00000000000E+00 0.  1.
         11    1    1    2    0    0 -0.44215701521E+02  0.72987428260E+01  0.13357137707E+03  0.14088865348E+03  0.00000000000E+00 0. -1.
</event>
<event>
 7    1  0.2556591E-009  0.1230138E+03  0.7561462E-02  0.1238206E+00
         -2   -1    0    0    0  501 -0.00000000000E+00  0.00000000000E+00  0.16881191351E+03  0.16881191351E+03  0.00000000000E+00 0.  1.
          2   -1    0    0  501    0  0.00000000000E+00 -0.00000000000E+00 -0.15013559715E+03  0.15013559715E+03  0.00000000000E+00 0. -1.
         25    2    1    2    0    0  0.10188743951E+03 -0.14479297509E+02 -0.45931851769E+02  0.16836955288E+03  0.12509145032E+03 0.  0.
          5    1    3    3  502    0  0.13006625703E+02  0.12471045832E+02 -0.69943263410E+02  0.72347990938E+02  0.41800000000E+01 0.  1.
         -5    1    3    3    0  502  0.88880813804E+02 -0.26950343341E+02  0.24011411641E+02  0.96021561942E+02  0.41800000000E+01 0.  1.
        -11    1    1    2    0    0 -0.11765416762E+03  0.15920237530E+02  0.63661432085E+02  0.13471724113E+03  0.00000000000E+00 0.  1.
         11    1    1    2    0    0  0.15766728115E+02 -0.14409400206E+01  0.94673604556E+00  0.15860716652E+02  0.00000000000E+00 0. -1.
</event>
<event>
 7    1  0.2556591E-009  0.9101845E+02  0.7561462E-02  0.1300404E+00
         -3   -1    0    0    0  501 -0.00000000000E+00  0.00000000000E+00  0.24736549305E+02  0.24736549305E+02  0.00000000000E+00 0.  1.
          3   -1    0    0  501    0  0.00000000000E+00 -0.00000000000E+00 -0.51427427437E+03  0.51427427437E+03  0.00000000000E+00 0. -1.
         25    2    1    2    0    0 -0.23087059970E+02  0.89066424258E+01 -0.28319208802E+03  0.31057768720E+03  0.12509356679E+03 0.  0.
          5    1    3    3  502    0 -0.56604057005E+02  0.96313662171E+01 -0.26695864748E+03  0.27309554069E+03  0.41800000000E+01 0. -1.
         -5    1    3    3    0  502  0.33516997035E+02 -0.72472379127E+00 -0.16233440539E+02  0.37482146504E+02  0.41800000000E+01 0. -1.
        -11    1    1    2    0    0 -0.25225755440E+02 -0.28931506221E+02 -0.46761699656E+02  0.60498159844E+02  0.00000000000E+00 0.  1.
         11    1    1    2    0    0  0.48312815411E+02  0.20024863795E+02 -0.15958393740E+03  0.16793497664E+03  0.00000000000E+00 0. -1.
</event>
<event>
 7    1  0.2556591E-009  0.1057295E+03  0.7561462E-02  0.1268689E+00
          2   -1    0    0  501    0  0.00000000000E+00  0.00000000000E+00  0.25192233945E+03  0.25192233945E+03  0.00000000000E+00 0. -1.
         -2   -1    0    0    0  501 -0.00000000000E+00 -0.00000000000E+00 -0.47010039347E+02  0.47010039347E+02  0.00000000000E+00 0.  1.
         25    2    1    2    0    0 -0.47840331819E+00 -0.72611506991E+01  0.10625810777E+03  0.16428797132E+03  0.12508716511E+03 0.  0.
          5    1    3    3  502    0 -0.53800360721E+02  0.26960855419E+02  0.64379045131E+02  0.88224148568E+02  0.41800000000E+01 0.  1.
         -5    1    3    3    0  502  0.53321957402E+02 -0.34222006118E+02  0.41879062639E+02  0.76063822751E+02  0.41800000000E+01 0.  1.
        -11    1    1    2    0    0  0.41733698754E+02  0.17304751194E+02  0.70374784762E+02  0.83628741207E+02  0.00000000000E+00 0. -1.
         11    1    1    2    0    0 -0.41255295436E+02 -0.10043600495E+02  0.28279407569E+02  0.51015666269E+02  0.00000000000E+00 0.  1.
</event>
<event>
 7    1  0.2556591E-009  0.1366755E+03  0.7561462E-02  0.1217874E+00
         -1   -1    0    0    0  501 -0.00000000000E+00  0.00000000000E+00  0.11366249451E+03  0.11366249451E+03  0.00000000000E+00 0.  1.
          1   -1    0    0  501    0  0.00000000000E+00 -0.00000000000E+00 -0.29718097158E+03  0.29718097158E+03  0.00000000000E+00 0. -1.
         25    2    1    2    0    0 -0.19756628480E+02  0.12186181577E+03 -0.52796740257E+01  0.17582935066E+03  0.12508980407E+03 0.  0.
          5    1    3    3  502    0 -0.28310354028E+02  0.98784926059E+02  0.50605134977E+02  0.11462237935E+03  0.41800000000E+01 0. -1.
         -5    1    3    3    0  502  0.85537255474E+01  0.23076889714E+02 -0.55884809003E+02  0.61206971310E+02  0.41800000000E+01 0. -1.
        -11    1    1    2    0    0  0.44625022996E+02 -0.10848130977E+03 -0.10854920341E+03  0.15982026407E+03  0.00000000000E+00 0. -1.
         11    1    1    2    0    0 -0.24868394516E+02 -0.13380506002E+02 -0.69689599626E+02  0.75193851362E+02  0.00000000000E+00 0.  1.
</event>
<event>
 7    1  0.2556591E-009  0.2132340E+03  0.7561462E-02  0.1139030E+00
         -2   -1    0    0    0  501 -0.00000000000E+00  0.00000000000E+00  0.34472156374E+02  0.34472156374E+02  0.00000000000E+00 0.  1.
          2   -1    0    0  501    0  0.00000000000E+00 -0.00000000000E+00 -0.18651512801E+04  0.18651512801E+04  0.00000000000E+00 0. -1.
         25    2    1    2    0    0  0.19373291850E+02  0.19097026020E+03 -0.14107771448E+04  0.14292599512E+04  0.12508753395E+03 0.  0.
          5    1    3    3  502    0  0.66945251585E+02  0.64401872202E+02 -0.63593999912E+03  0.64270243716E+03  0.41800000000E+01 0. -1.
         -5    1    3    3    0  502 -0.47571959736E+02  0.12656838800E+03 -0.77483714567E+03  0.78655751405E+03  0.41800000000E+01 0. -1.
        -11    1    1    2    0    0  0.53925097370E+01 -0.15156313631E+03 -0.37967937511E+03  0.40884824977E+03  0.00000000000E+00 0. -1.
         11    1    1    2    0    0 -0.24765801587E+02 -0.39407123890E+02 -0.40222603856E+02  0.61515235532E+02  0.00000000000E+00 0.  1.
</event>
<event>
 7    1  0.2556591E-009  0.1157496E+03  0.7561462E-02  0.1250278E+00
          1   -1    0    0  501    0  0.00000000000E+00  0.00000000000E+00  0.12112857324E+03  0.12112857324E+03  0.00000000000E+00 0. -1.
         -1   -1    0    0    0  501 -0.00000000000E+00 -0.00000000000E+00 -0.16715450470E+03  0.16715450470E+03  0.00000000000E+00 0.  1.
         25    2    1    2    0    0  0.47036976537E+02  0.50828312688E+02  0.33825637155E+02  0.14692908321E+03  0.12509191514E+03 0.  0.
          5    1    3    3  502    0 -0.16250894180E+02 -0.22995561761E+02  0.40351574023E+02  0.49382277676E+02  0.41800000000E+01 0.  1.
         -5    1    3    3    0  502  0.63287870717E+02  0.73823874449E+02 -0.65259368681E+01  0.97546805537E+02  0.41800000000E+01 0.  1.
        -11    1    1    2    0    0 -0.51090333109E+02  0.35138448940E+01 -0.90412791227E+01  0.52003018867E+02  0.00000000000E+00 0. -1.
         11    1    1    2    0    0  0.40533565727E+01 -0.54342157582E+02 -0.70810289490E+02  0.89350975864E+02  0.00000000000E+00 0.  1.
</event>
<event>
 7    1  0.2556591E-009  0.1115236E+03  0.7561462E-02  0.1257774E+00
         -1   -1    0    0    0  501 -0.00000000000E+00  0.00000000000E+00  0.22449091255E+03  0.22449091255E+03  0.00000000000E+00 0.  1.
          1   -1    0    0  501    0  0.00000000000E+00 -0.00000000000E+00 -0.75001580149E+02  0.75001580149E+02  0.00000000000E+00 0. -1.
         25    2    1    2    0    0 -0.48082625795E+02 -0.58454880353E+02  0.67514087549E+02  0.16104126887E+03  0.12508887370E+03 0.  0.
          5    1    3    3  502    0  0.63875359275E+01  0.34986205654E+02  0.29252147905E+02  0.46238466219E+02  0.41800000000E+01 0. -1.
         -5    1    3    3    0  502 -0.54470161722E+02 -0.93441086006E+02  0.38261939644E+02  0.11480280265E+03  0.41800000000E+01 0. -1.
        -11    1    1    2    0    0  0.12825022780E+02  0.33308772302E+02  0.87778731772E+02  0.94757908763E+02  0.00000000000E+00 0.  1.
         11    1    1    2    0    0  0.35257603015E+02  0.25146108050E+02 -0.58034869213E+01  0.43693315060E+02  0.00000000000E+00 0. -1.
</event>
<event>
 7    1  0.2556591E-009  0.9150883E+02  0.7561462E-02  0.1299238E+00
         -1   -1    0    0    0  501 -0.00000000000E+00  0.00000000000E+00  0.22591772125E+02  0.22591772125E+02  0.00000000000E+00 0.  1.
          1   -1    0    0  501    0  0.00000000000E+00 -0.00000000000E+00 -0.52870379748E+03  0.52870379748E+03  0.00000000000E+00 0. -1.
         25    2    1    2    0    0 -0.49290465680E+01 -0.17056238469E+01 -0.32787035296E+03  0.35095564845E+03  0.12507475437E+03 0.  0.
          5    1    3    3  502    0 -0.37093863188E+02 -0.48658922548E+02 -0.22617963136E+03  0.23434663103E+03  0.41800000000E+01 0. -1.
         -5    1    3    3    0  502  0.32164816620E+02  0.46953298701E+02 -0.10169072160E+03  0.11660901743E+03  0.41800000000E+01 0. -1.
        -11    1    1    2    0    0 -0.15683580975E+02 -0.25834755628E+02 -0.15429738328E+02  0.33933554713E+02  0.00000000000E+00 0.  1.
         11    1    1    2    0    0  0.20612627543E+02  0.27540379475E+02 -0.16281193406E+03  0.16640636643E+03  0.00000000000E+00 0. -1.
</event>
<event>
 7    1  0.2556591E-009  0.1129420E+03  0.7561462E-02  0.1255217E+00
         -1   -1    0    0    0  501 -0.00000000000E+00  0.00000000000E+00  0.12232062722E+03  0.12232062722E+03  0.00000000000E+00 0.  1.
          1   -1    0    0  501    0  0.00000000000E+00 -0.00000000000E+00 -0.11226754514E+03  0.11226754514E+03  0.00000000000E+00 0. -1.
         25    2    1    2    0    0 -0.23531985488E+02  0.37873449740E+02 -0.31189011619E+01  0.13283688995E+03  0.12509100388E+03 0.  0.
          5    1    3    3  502    0 -0.40450541944E+02 -0.37401109357E+02  0.29851390700E+01  0.55330577260E+02  0.41800000000E+01 0. -1.
         -5    1    3    3    0  502  0.16918556456E+02  0.75274559097E+02 -0.61040402319E+01  0.77506312691E+02  0.41800000000E+01 0. -1.
        -11    1    1    2    0    0 -0.18095599875E+02  0.16772502474E+02  0.21275991636E+02  0.32579677625E+02  0.00000000000E+00 0.  1.
         11    1    1    2    0    0  0.41627585362E+02 -0.54645952214E+02 -0.81040083960E+01  0.69171604785E+02  0.00000000000E+00 0. -1.
</event>
<event>
 7    1  0.2556591E-009  0.7502444E+02  0.7561462E-02  0.1343795E+00
         -2   -1    0    0    0  501 -0.00000000000E+00  0.00000000000E+00  0.13615266655E+02  0.13615266655E+02  0.00000000000E+00 0.  1.
          2   -1    0    0  501    0  0.00000000000E+00 -0.00000000000E+00 -0.19049867608E+04  0.19049867608E+04  0.00000000000E+00 0. -1.
         25    2    1    2    0    0 -0.27487704810E+02 -0.36682341782E+02 -0.16406376954E+04  0.16460387017E+04  0.12510072611E+03 0.  0.
          5    1    3    3  502    0  0.19966756204E+01 -0.63474596931E+01 -0.14753928569E+04  0.14754137831E+04  0.41800000000E+01 0.  1.
         -5    1    3    3    0  502 -0.29484380431E+02 -0.30334882089E+02 -0.16524483856E+03  0.17062491855E+03  0.41800000000E+01 0.  1.
        -11    1    1    2    0    0  0.14281760215E+02 -0.29191239121E+02 -0.40914937469E+02  0.52250638507E+02  0.00000000000E+00 0.  1.
         11    1    1    2    0    0  0.13205944595E+02  0.65873580903E+02 -0.20981886125E+03  0.22031268727E+03  0.00000000000E+00 0. -1.
</event>
<event>
 7    1  0.2556591E-009  0.2355435E+03  0.7561462E-02  0.1122798E+00
          2   -1    0    0  501    0  0.00000000000E+00  0.00000000000E+00  0.68515982623E+03  0.68515982623E+03  0.00000000000E+00 0. -1.
         -2   -1    0    0    0  501 -0.00000000000E+00 -0.00000000000E+00 -0.13465894594E+03  0.13465894594E+03  0.00000000000E+00 0.  1.
         25    2    1    2    0    0 -0.15074401217E+03 -0.17404785718E+03  0.59296508721E+02  0.26866219628E+03  0.12508751324E+03 0.  0.
          5    1    3    3  502    0  0.17943029303E+01 -0.24403815599E+02 -0.28332828269E+02  0.37669447786E+02  0.41800000000E+01 0. -1.
         -5    1    3    3    0  502 -0.15253831510E+03 -0.14964404158E+03  0.87629336990E+02  0.23099274849E+03  0.41800000000E+01 0. -1.
        -11    1    1    2    0    0  0.12420126749E+03  0.15986676375E+03  0.32984969968E+03  0.38701958784E+03  0.00000000000E+00 0.  1.
         11    1    1    2    0    0  0.26542744680E+02  0.14181093433E+02  0.16135467189E+03  0.16413698805E+03  0.00000000000E+00 0. -1.
</event>
<event>
 7    1  0.2556591E-009  0.3513244E+03  0.7561462E-02  0.1062073E+00
          1   -1    0    0  501    0  0.00000000000E+00  0.00000000000E+00  0.28006287071E+03  0.28006287071E+03  0.00000000000E+00 0.  1.
         -1   -1    0    0    0  501 -0.00000000000E+00 -0.00000000000E+00 -0.46261519863E+03  0.46261519863E+03  0.00000000000E+00 0. -1.
         25    2    1    2    0    0 -0.14832302690E+03  0.29945173788E+03 -0.17213529856E+03  0.39616804062E+03  0.12508993475E+03 0.  0.
          5    1    3    3  502    0 -0.10263355941E+02 -0.11693668480E+02 -0.11181046729E+02  0.19610368779E+02  0.41800000000E+01 0. -1.
         -5    1    3    3    0  502 -0.13805967096E+03  0.31114540636E+03 -0.16095425183E+03  0.37655767184E+03  0.41800000000E+01 0. -1.
        -11    1    1    2    0    0  0.85897377451E+02 -0.77988596960E+02 -0.95889758100E+01  0.11641533046E+03  0.00000000000E+00 0. -1.
         11    1    1    2    0    0  0.62425649445E+02 -0.22146314092E+03 -0.82805355088E+00  0.23009469826E+03  0.00000000000E+00 0.  1.
</event>
<event>
 7    1  0.2556591E-009  0.1002876E+03  0.7561462E-02  0.1279692E+00
         -2   -1    0    0    0  501 -0.00000000000E+00  0.00000000000E+00  0.84645211436E+01  0.84645211436E+01  0.00000000000E+00 0. -1.
          2   -1    0    0  501    0  0.00000000000E+00 -0.00000000000E+00 -0.13691361491E+04  0.13691361491E+04  0.00000000000E+00 0.  1.
         25    2    1    2    0    0 -0.88412290938E+01  0.43828101829E+01 -0.96417908666E+03  0.97230955357E+03  0.12508869033E+03 0.  0.
          5    1    3    3  502    0  0.54017138594E+02  0.25113006370E+01 -0.27794025443E+03  0.28318265364E+03  0.41800000000E+01 0.  1.
         -5    1    3    3    0  502 -0.62858367688E+02  0.18715095459E+01 -0.68623883223E+03  0.68912689993E+03  0.41800000000E+01 0.  1.
        -11    1    1    2    0    0  0.79540442159E+01 -0.43482355579E+02 -0.23582069192E+03  0.23992786583E+03  0.00000000000E+00 0.  1.
         11    1    1    2    0    0  0.88718487786E+00  0.39099545396E+02 -0.16067184940E+03  0.16536325087E+03  0.00000000000E+00 0. -1.
</event>
<event>
 7    1  0.2556591E-009  0.7032075E+02  0.7561462E-02  0.1359006E+00
          2   -1    0    0  501    0  0.00000000000E+00  0.00000000000E+00  0.19314395113E+03  0.19314395113E+03  0.00000000000E+00 0.  1.
         -2   -1    0    0    0  501 -0.00000000000E+00 -0.00000000000E+00 -0.11795565426E+03  0.11795565426E+03  0.00000000000E+00 0. -1.
         25    2    1    2    0    0 -0.33909602149E+02  0.16952590775E+01  0.14303499405E+03  0.19302708167E+03  0.12509080587E+03 0.  0.
          5    1    3    3  502    0 -0.66890776344E+01 -0.11119752474E+02 -0.21638706423E+02  0.25575352790E+02  0.41800000000E+01 0.  1.
         -5    1    3    3    0  502 -0.27220524515E+02  0.12815011552E+02  0.16467370047E+03  0.16745172888E+03  0.41800000000E+01 0.  1.
        -11    1    1    2    0    0  0.43884245337E+02  0.36548073620E+02 -0.40082838033E+02  0.69772649218E+02  0.00000000000E+00 0.  1.
         11    1    1    2    0    0 -0.99746431877E+01 -0.38243332697E+02 -0.27763859150E+02  0.48299874507E+02  0.00000000000E+00 0. -1.
</event>
<event>
 7    1  0.2556591E-009  0.1645509E+03  0.7561462E-02  0.1183653E+00
         -1   -1    0    0    0  501 -0.00000000000E+00  0.00000000000E+00  0.65617594330E+02  0.65617594330E+02  0.00000000000E+00 0.  1.
          1   -1    0    0  501    0  0.00000000000E+00 -0.00000000000E+00 -0.78502167740E+03  0.78502167740E+03  0.00000000000E+00 0. -1.
         25    2    1    2    0    0  0.68510143590E+02  0.11661999267E+03 -0.64411445776E+03  0.66994372276E+03  0.12508914622E+03 0.  0.
          5    1    3    3  502    0  0.53214696204E+02  0.14272229814E+03 -0.56346457597E+03  0.58370477045E+03  0.41800000000E+01 0. -1.
         -5    1    3    3    0  502  0.15295447386E+02 -0.26102305470E+02 -0.80649881793E+02  0.86238952306E+02  0.41800000000E+01 0. -1.
        -11    1    1    2    0    0  0.97972919012E+01 -0.11640639410E+02  0.15200118475E+02  0.21506627261E+02  0.00000000000E+00 0.  1.
         11    1    1    2    0    0 -0.78307435491E+02 -0.10497935326E+03 -0.90489743787E+02  0.15918892171E+03  0.00000000000E+00 0. -1.
</event>
<event>
 7    1  0.2637999E-009  0.1414042E+03  0.7561462E-02  0.1211452E+00
          2   -1    0    0  501    0  0.00000000000E+00  0.00000000000E+00  0.37429307385E+03  0.37429307385E+03  0.00000000000E+00 0.  1.
         -2   -1    0    0    0  501 -0.00000000000E+00 -0.00000000000E+00 -0.73377007607E+02  0.73377007607E+02  0.00000000000E+00 0. -1.
         25    2    1    2    0    0  0.10652141436E+03 -0.39760641625E+02  0.23036974797E+03  0.28573476589E+03  0.12508563195E+03 0.  0.
          5    1    3    3  502    0  0.50425606639E+02 -0.77581143710E+02  0.17582847908E+03  0.19873274043E+03  0.41800000000E+01 0.  1.
         -5    1    3    3    0  502  0.56095807724E+02  0.37820502085E+02  0.54541268892E+02  0.87002025462E+02  0.41800000000E+01 0.  1.
        -11    1    1    2    0    0 -0.23884916114E+02 -0.10050847013E+02  0.59398791018E+02  0.64805286188E+02  0.00000000000E+00 0.  1.
         11    1    1    2    0    0 -0.82636498248E+02  0.49811488639E+02  0.11147527259E+02  0.97130029379E+02  0.00000000000E+00 0. -1.
</event>
<event>
 7    1  0.2556591E-009  0.1042506E+03  0.7561462E-02  0.1271603E+00
         -1   -1    0    0    0  501 -0.00000000000E+00  0.00000000000E+00  0.81313186931E+02  0.81313186931E+02  0.00000000000E+00 0.  1.
          1   -1    0    0  501    0  0.00000000000E+00 -0.00000000000E+00 -0.24619179881E+03  0.24619179881E+03  0.00000000000E+00 0. -1.
         25    2    1    2    0    0 -0.22033641068E+01 -0.43789419906E+01  0.14608063728E+02  0.12603352618E+03  0.12508806597E+03 0.  0.
          5    1    3    3  502    0 -0.59420729192E+02  0.10563481648E+02 -0.10941543083E+02  0.61478451244E+02  0.41800000000E+01 0.  1.
         -5    1    3    3    0  502  0.57217365086E+02 -0.14942423639E+02  0.25549606811E+02  0.64555074934E+02  0.41800000000E+01 0.  1.
        -11    1    1    2    0    0 -0.31564780480E+02  0.32108838195E+02 -0.66300710106E+02  0.80144226352E+02  0.00000000000E+00 0.  1.
         11    1    1    2    0    0  0.33768144587E+02 -0.27729896205E+02 -0.11318596551E+03  0.12132723322E+03  0.00000000000E+00 0. -1.
</event>
<event>
 7    1  0.2556591E-009  0.1192795E+03  0.7561462E-02  0.1244290E+00
          2   -1    0    0  501    0  0.00000000000E+00  0.00000000000E+00  0.62656173439E+03  0.62656173439E+03  0.00000000000E+00 0.  1.
         -2   -1    0    0    0  501 -0.00000000000E+00 -0.00000000000E+00 -0.47723299019E+02  0.47723299019E+02  0.00000000000E+00 0. -1.
         25    2    1    2    0    0  0.85425181443E+02 -0.51489252752E+02  0.47974041093E+03  0.50571442441E+03  0.12509041692E+03 0.  0.
          5    1    3    3  502    0  0.39540458430E+02 -0.76492019820E+02  0.16039251437E+03  0.18209258089E+03  0.41800000000E+01 0. -1.
         -5    1    3    3    0  502  0.45884723013E+02  0.25002767068E+02  0.31934789656E+03  0.32362184352E+03  0.41800000000E+01 0. -1.
        -11    1    1    2    0    0 -0.50613798908E+02  0.26988560992E+02 -0.35259163853E+01  0.57468001102E+02  0.00000000000E+00 0. -1.
         11    1    1    2    0    0 -0.34811382535E+02  0.24500691761E+02  0.10262394083E+03  0.11110260790E+03  0.00000000000E+00 0.  1.
</event>
<event>
 7    1  0.2556591E-009  0.7719172E+02  0.7561462E-02  0.1337215E+00
         -2   -1    0    0    0  501 -0.00000000000E+00  0.00000000000E+00  0.54925250418E+02  0.54925250418E+02  0.00000000000E+00 0. -1.
          2   -1    0    0  501    0  0.00000000000E+00 -0.00000000000E+00 -0.26894764738E+03  0.26894764738E+03  0.00000000000E+00 0.  1.
         25    2    1    2    0    0  0.22214532638E+02 -0.12026269954E+01 -0.18697987824E+03  0.22606211810E+03  0.12509066552E+03 0.  0.
          5    1    3    3  502    0  0.57490880798E+01  0.57651456728E+02 -0.52539275109E+02  0.78323625462E+02  0.41800000000E+01 0. -1.
         -5    1    3    3    0  502  0.16465444558E+02 -0.58854083723E+02 -0.13444060313E+03  0.14773849264E+03  0.41800000000E+01 0. -1.
        -11    1    1    2    0    0 -0.88140972519E+00 -0.10614678190E+02 -0.57678224935E+02  0.58653439011E+02  0.00000000000E+00 0.  1.
         11    1    1    2    0    0 -0.21333122913E+02  0.11817305185E+02  0.30635706212E+02  0.39157340693E+02  0.00000000000E+00 0. -1.
</event>
<event>
 7    1  0.2556591E-009  0.1606513E+03  0.7561462E-02  0.1187963E+00
         -1   -1    0    0    0  501 -0.00000000000E+00  0.00000000000E+00  0.25276058342E+02  0.25276058342E+02  0.00000000000E+00 0.  1.
          1   -1    0    0  501    0  0.00000000000E+00 -0.00000000000E+00 -0.11564908288E+04  0.11564908288E+04  0.00000000000E+00 0. -1.
         25    2    1    2    0    0 -0.16798736687E+02  0.12903146664E+03 -0.54296533411E+03  0.57217917975E+03  0.12508534192E+03 0.  0.
          5    1    3    3  502    0  0.11375589259E+02 -0.14154271354E+02 -0.13646557039E+02  0.23096500765E+02  0.41800000000E+01 0.  1.
         -5    1    3    3    0  502 -0.28174325946E+02  0.14318573800E+03 -0.52931877707E+03  0.54908267899E+03  0.41800000000E+01 0.  1.
        -11    1    1    2    0    0 -0.18248175431E+02 -0.11876383700E+03 -0.39323361650E+03  0.41118186005E+03  0.00000000000E+00 0.  1.
         11    1    1    2    0    0  0.35046912117E+02 -0.10267629644E+02 -0.19501581982E+03  0.19840584731E+03  0.00000000000E+00 0. -1.
</event>
<event>
 7    1  0.2556591E-009  0.8568375E+02  0.7561462E-02  0.1313654E+00
         -2   -1    0    0    0  501 -0.00000000000E+00  0.00000000000E+00  0.79172244102E+02  0.79172244102E+02  0.00000000000E+00 0.  1.
          2   -1    0    0  501    0  0.00000000000E+00 -0.00000000000E+00 -0.23695952316E+03  0.23695952316E+03  0.00000000000E+00 0. -1.
         25    2    1    2    0    0  0.21595406603E+02 -0.56471019889E+02 -0.15154139885E+03  0.20558962379E+03  0.12508780984E+03 0.  0.
          5    1    3    3  502    0  0.62072336703E+01 -0.10963095411E+02 -0.15654794737E+03  0.15710967964E+03  0.41800000000E+01 0. -1.
         -5    1    3    3    0  502  0.15388172932E+02 -0.45507924477E+02  0.50065485238E+01  0.48479944148E+02  0.41800000000E+01 0. -1.
        -11    1    1    2    0    0 -0.23547818813E+02 -0.21494667752E+02 -0.65628604629E+01  0.32551369404E+02  0.00000000000E+00 0.  1.
         11    1    1    2    0    0  0.19524122099E+01  0.77965687641E+02  0.31698025687E+00  0.77990774065E+02  0.00000000000E+00 0. -1.
</event>
<event>
 7    1  0.2556591E-009  0.1021707E+03  0.7561462E-02  0.1275796E+00
          4   -1    0    0  501    0  0.00000000000E+00  0.00000000000E+00  0.76214992172E+02  0.76214992172E+02  0.00000000000E+00 0. -1.
         -4   -1    0    0    0  501 -0.00000000000E+00 -0.00000000000E+00 -0.21683056810E+03  0.21683056810E+03  0.00000000000E+00 0.  1.
         25    2    1    2    0    0 -0.11067052387E+02 -0.15550368542E+02 -0.11629161526E+02  0.12706463027E+03  0.12508352913E+03 0.  0.
          5    1    3    3  502    0  0.39556800161E+02  0.32072117271E+02 -0.23821810511E+02  0.56376521719E+02  0.41800000000E+01 0. -1.
         -5    1    3    3    0  502 -0.50623852547E+02 -0.47622485813E+02  0.12192648985E+02  0.70688108555E+02  0.41800000000E+01 0. -1.
        -11    1    1    2    0    0 -0.61587011392E+01  0.47190775666E+02 -0.20770546601E+02  0.51926048509E+02  0.00000000000E+00 0. -1.
         11    1    1    2    0    0  0.17225753526E+02 -0.31640407124E+02 -0.10821586780E+03  0.11405488149E+03  0.00000000000E+00 0.  1.
</event>
<event>
 7    1  0.2556591E-009  0.1290596E+03  0.7561462E-02  0.1228858E+00
         -1   -1    0    0    0  501 -0.00000000000E+00  0.00000000000E+00  0.49353258589E+03  0.49353258589E+03  0.00000000000E+00 0.  1.
          1   -1    0    0  501    0  0.00000000000E+00 -0.00000000000E+00 -0.34460015868E+02  0.34460015868E+02  0.00000000000E+00 0. -1.
         25    2    1    2    0    0 -0.64532183574E+02  0.29521227046E+02  0.22591442421E+03  0.26780827110E+03  0.12509211582E+03 0.  0.
          5    1    3    3  502    0  0.17518614072E+02 -0.34753181691E+02  0.53411518337E+02  0.66218941155E+02  0.41800000000E+01 0.  1.
         -5    1    3    3    0  502 -0.82050797646E+02  0.64274408737E+02  0.17250290587E+03  0.20158932994E+03  0.41800000000E+01 0.  1.
        -11    1    1    2    0    0 -0.69837598310E+01 -0.41559563478E+02  0.10091532782E+03  0.10936120705E+03  0.00000000000E+00 0.  1.
         11    1    1    2    0    0  0.71515943405E+02  0.12038336432E+02  0.13224281800E+03  0.15082312361E+03  0.00000000000E+00 0. -1.
</event>
<event>
 7    1  0.2556591E-009  0.1439785E+03  0.7561462E-02  0.1208074E+00
          2   -1    0    0  501    0  0.00000000000E+00  0.00000000000E+00  0.12834152688E+04  0.12834152688E+04  0.00000000000E+00 0. -1.
         -2   -1    0    0    0  501 -0.00000000000E+00 -0.00000000000E+00 -0.22240183570E+02  0.22240183570E+02  0.00000000000E+00 0.  1.
         25    2    1    2    0    0 -0.21123914923E+02 -0.12326562951E+03  0.80242775988E+03  0.82169120384E+03  0.12508193092E+03 0.  0.
          5    1    3    3  502    0 -0.50786102277E+02 -0.87000083591E+02  0.71800026886E+03  0.72504489600E+03  0.41800000000E+01 0.  1.
         -5    1    3    3    0  502  0.29662187354E+02 -0.36265545922E+02  0.84427491013E+02  0.96646307836E+02  0.41800000000E+01 0.  1.
        -11    1    1    2    0    0  0.39815924928E+02  0.47126194966E+02  0.10633284051E+03  0.12293436908E+03  0.00000000000E+00 0.  1.
         11    1    1    2    0    0 -0.18692010005E+02  0.76139434548E+02  0.35241448489E+03  0.36102987950E+03  0.00000000000E+00 0. -1.
</event>
<event>
 7    1  0.2556591E-009  0.8686597E+02  0.7561462E-02  0.1310624E+00
         -1   -1    0    0    0  501 -0.00000000000E+00  0.00000000000E+00  0.81831110073E+02  0.81831110073E+02  0.00000000000E+00 0.  1.
          1   -1    0    0  501    0  0.00000000000E+00 -0.00000000000E+00 -0.14439868755E+03  0.14439868755E+03  0.00000000000E+00 0. -1.
         25    2    1    2    0    0 -0.55535168570E+00  0.13909151657E+01 -0.31635858256E+02  0.12904654868E+03  0.12509972477E+03 0.  0.
          5    1    3    3  502    0  0.79914594112E+01  0.46945986251E+02  0.26436658882E+02  0.54627450805E+02  0.41800000000E+01 0. -1.
         -5    1    3    3    0  502 -0.85468110970E+01 -0.45555071086E+02 -0.58072517139E+02  0.74419097874E+02  0.41800000000E+01 0. -1.
        -11    1    1    2    0    0  0.37999111731E+02  0.11641868090E+02  0.91750657584E+01  0.40787834175E+02  0.00000000000E+00 0.  1.
         11    1    1    2    0    0 -0.37443760045E+02 -0.13032783256E+02 -0.40106784980E+02  0.56395414771E+02  0.00000000000E+00 0. -1.
</event>
<event>
 7    1  0.2556591E-009  0.1009003E+03  0.7561462E-02  0.1278414E+00
          1   -1    0    0  501    0  0.00000000000E+00  0.00000000000E+00  0.14809399558E+03  0.14809399558E+03  0.00000000000E+00 0. -1.
         -1   -1    0    0    0  501 -0.00000000000E+00 -0.00000000000E+00 -0.12372110329E+03  0.12372110329E+03  0.00000000000E+00 0.  1.
         25    2    1    2    0    0 -0.53029381985E+02  0.22093891195E+02 -0.37597868161E+02  0.14268913747E+03  0.12508531041E+03 0.  0.
          5    1    3    3  502    0 -0.21869148181E+02 -0.32184593936E+02 -0.63689680523E+02  0.74752628945E+02  0.41800000000E+01 0. -1.
         -5    1    3    3    0  502 -0.31160233804E+02  0.54278485131E+02  0.26091812362E+02  0.67936508530E+02  0.41800000000E+01 0. -1.
        -11    1    1    2    0    0  0.62480151841E+01 -0.46675965929E+02 -0.76464166325E+00  0.47098494308E+02  0.00000000000E+00 0.  1.
         11    1    1    2    0    0  0.46781366801E+02  0.24582074734E+02  0.62735402110E+02  0.82027467082E+02  0.00000000000E+00 0. -1.
</event>
<event>
 7    1  0.2556591E-009  0.6210055E+02  0.7561462E-02  0.1389222E+00
          2   -1    0    0  501    0  0.00000000000E+00  0.00000000000E+00  0.12652842750E+03  0.12652842750E+03  0.00000000000E+00 0. -1.
         -2   -1    0    0    0  501 -0.00000000000E+00 -0.00000000000E+00 -0.10019135254E+03  0.10019135254E+03  0.00000000000E+00 0.  1.
         25    2    1    2    0    0 -0.20938925890E+00 -0.17990061939E+02 -0.14844892328E+02  0.12724743324E+03  0.12509137567E+03 0.  0.
          5    1    3    3  502    0  0.32349008393E+02 -0.28676685901E+02  0.42208686389E+02  0.60562829070E+02  0.41800000000E+01 0.  1.
         -5    1    3    3    0  502 -0.32558397652E+02  0.10686623962E+02 -0.57053578717E+02  0.66684604174E+02  0.41800000000E+01 0.  1.
        -11    1    1    2    0    0 -0.15020978121E+02 -0.73196426684E+01 -0.23226978946E+02  0.28612925461E+02  0.00000000000E+00 0.  1.
         11    1    1    2    0    0  0.15230367380E+02  0.25309704608E+02  0.64408946228E+02  0.70859421336E+02  0.00000000000E+00 0. -1.
</event>
<event>
 7    1  0.2556591E-009  0.1062954E+03  0.7561462E-02  0.1267588E+00
         -2   -1    0    0    0  501 -0.00000000000E+00  0.00000000000E+00  0.12244629806E+02  0.12244629806E+02  0.00000000000E+00 0.  1.
          2   -1    0    0  501    0  0.00000000000E+00 -0.00000000000E+00 -0.98321123350E+03  0.98321123350E+03  0.00000000000E+00 0. -1.
         25    2    1    2    0    0  0.11484729987E+02 -0.11111604818E+02 -0.62206378413E+03  0.63471618393E+03  0.12508363535E+03 0.  0.
          5    1    3    3  502    0 -0.54323300062E+02 -0.58582828893E+01 -0.19474773983E+03  0.20231039266E+03  0.41800000000E+01 0.  1.
         -5    1    3    3    0  502  0.65808030049E+02 -0.52533219282E+01 -0.42731604430E+03  0.43240579127E+03  0.41800000000E+01 0.  1.
        -11    1    1    2    0    0  0.20103837171E+02  0.42559995500E+02 -0.18157175628E+03  0.18757350603E+03  0.00000000000E+00 0.  1.
         11    1    1    2    0    0 -0.31588567158E+02 -0.31448390682E+02 -0.16733106329E+03  0.17316617335E+03  0.00000000000E+00 0. -1.
</event>
<event>
 7    1  0.2556591E-009  0.1281921E+03  0.7561462E-02  0.1230163E+00
          1   -1    0    0  501    0  0.00000000000E+00  0.00000000000E+00  0.35036681038E+03  0.35036681038E+03  0.00000000000E+00 0. -1.
         -1   -1    0    0    0  501 -0.00000000000E+00 -0.00000000000E+00 -0.53966614140E+02  0.53966614140E+02  0.00000000000E+00 0.  1.
         25    2    1    2    0    0 -0.66999227164E+02 -0.28549777329E+01  0.90037252081E+02  0.16808014556E+03  0.12508869346E+03 0.  0.
          5    1    3    3  502    0 -0.10286033545E+03  0.95144247981E+01  0.60174662536E+02  0.11962121593E+03  0.41800000000E+01 0.  1.
         -5    1    3    3    0  502  0.35861108290E+02 -0.12369402531E+02  0.29862589546E+02  0.48458929632E+02  0.41800000000E+01 0.  1.
        -11    1    1    2    0    0  0.90413996137E+02  0.83078962257E+01  0.15750909090E+03  0.18180436065E+03  0.00000000000E+00 0. -1.
         11    1    1    2    0    0 -0.23414768973E+02 -0.54529184928E+01  0.48853853262E+02  0.54448918306E+02  0.00000000000E+00 0.  1.
</event>
<event>
 7    1  0.2556591E-009  0.8071131E+02  0.7561462E-02  0.1327045E+00
         -3   -1    0    0    0  501 -0.00000000000E+00  0.00000000000E+00  0.92294819335E+02  0.92294819335E+02  0.00000000000E+00 0.  1.
          3   -1    0    0  501    0  0.00000000000E+00 -0.00000000000E+00 -0.14173218314E+03  0.14173218314E+03  0.00000000000E+00 0. -1.
         25    2    1    2    0    0 -0.86559537601E+01 -0.12154559018E+02 -0.61599795732E+02  0.14024322791E+03  0.12510383408E+03 0.  0.
          5    1    3    3  502    0 -0.27122040607E+02  0.18757419064E+02 -0.88869007972E+02  0.94882131271E+02  0.41800000000E+01 0. -1.
         -5    1    3    3    0  502  0.18466086847E+02 -0.30911978083E+02  0.27269212240E+02  0.45361096642E+02  0.41800000000E+01 0. -1.
        -11    1    1    2    0    0 -0.12645886945E+02  0.48327015448E+02 -0.43338563098E+00  0.49956047701E+02  0.00000000000E+00 0. -1.
         11    1    1    2    0    0  0.21301840705E+02 -0.36172456430E+02  0.12595817560E+02  0.43827726859E+02  0.00000000000E+00 0.  1.
</event>
<event>
 7    1  0.2556591E-009  0.1177439E+03  0.7561462E-02  0.1246866E+00
          2   -1    0    0  501    0  0.00000000000E+00  0.00000000000E+00  0.13973857801E+04  0.13973857801E+04  0.00000000000E+00 0.  1.
         -2   -1    0    0    0  501 -0.00000000000E+00 -0.00000000000E+00 -0.18469684678E+02  0.18469684678E+02  0.00000000000E+00 0. -1.
         25    2    1    2    0    0  0.13163450738E+02  0.70174076578E+02  0.11536219917E+04  0.11625782208E+04  0.12508693801E+03 0.  0.
          5    1    3    3  502    0 -0.39839345728E+02  0.10839870639E+01  0.15282962283E+03  0.15799593194E+03  0.41800000000E+01 0.  1.
         -5    1    3    3    0  502  0.53002796466E+02  0.69090089514E+02  0.10007923689E+04  0.10045822888E+04  0.41800000000E+01 0.  1.
        -11    1    1    2    0    0  0.16632137136E+02  0.12207707989E+02  0.88218229906E+02  0.90598632483E+02  0.00000000000E+00 0.  1.
         11    1    1    2    0    0 -0.29795587874E+02 -0.82381784566E+02  0.13707587377E+03  0.16267861155E+03  0.00000000000E+00 0. -1.
</event>
<event>
 7    1  0.2556591E-009  0.9277497E+02  0.7561462E-02  0.1296268E+00
         -3   -1    0    0    0  501 -0.00000000000E+00  0.00000000000E+00  0.39533453097E+03  0.39533453097E+03  0.00000000000E+00 0.  1.
          3   -1    0    0  501    0  0.00000000000E+00 -0.00000000000E+00 -0.40520797339E+02  0.40520797339E+02  0.00000000000E+00 0. -1.
         25    2    1    2    0    0  0.17698442880E+02 -0.11273215985E+02  0.30459569781E+03  0.32994972002E+03  0.12509179963E+03 0.  0.
          5    1    3    3  502    0  0.62377158879E+02 -0.38112583060E+02  0.15363518910E+03  0.17019025432E+03  0.41800000000E+01 0.  1.
         -5    1    3    3    0  502 -0.44678715999E+02  0.26839367074E+02  0.15096050871E+03  0.15975946569E+03  0.41800000000E+01 0.  1.
        -11    1    1    2    0    0 -0.38329775632E+02  0.66871024923E+01 -0.11578405092E+02  0.40594932001E+02  0.00000000000E+00 0. -1.
         11    1    1    2    0    0  0.20631332752E+02  0.45861134931E+01  0.61796440914E+02  0.65310676292E+02  0.00000000000E+00 0.  1.
</event>
<event>
 7    1  0.2556591E-009  0.9556478E+02  0.7561462E-02  0.1289909E+00
          1   -1    0    0  501    0  0.00000000000E+00  0.00000000000E+00  0.58765546224E+03  0.58765546224E+03  0.00000000000E+00 0. -1.
         -1   -1    0    0    0  501 -0.00000000000E+00 -0.00000000000E+00 -0.21128259313E+02  0.21128259313E+02  0.00000000000E+00 0.  1.
         25    2    1    2    0    0 -0.15536118204E+02 -0.22628110383E+02  0.35715076545E+03  0.37941497217E+03  0.12508257071E+03 0.  0.
          5    1    3    3  502    0 -0.17449442626E+02  0.44925694060E+02  0.23330950343E+03  0.23827210879E+03  0.41800000000E+01 0.  1.
         -5    1    3    3    0  502  0.19133244218E+01 -0.67553804443E+02  0.12384126201E+03  0.14114286338E+03  0.41800000000E+01 0.  1.
        -11    1    1    2    0    0  0.34445259921E+02 -0.11257870231E+02  0.17098132758E+03  0.17477937508E+03  0.00000000000E+00 0. -1.
         11    1    1    2    0    0 -0.18909141717E+02  0.33885980614E+02  0.38395109903E+02  0.54589374306E+02  0.00000000000E+00 0.  1.
</event>
<event>
 7    1  0.2556591E-009  0.1161360E+03  0.7561462E-02  0.1249611E+00
          1   -1    0    0  501    0  0.00000000000E+00  0.00000000000E+00  0.82239637106E+03  0.82239637106E+03  0.00000000000E+00 0. -1.
         -1   -1    0    0    0  501 -0.00000000000E+00 -0.00000000000E+00 -0.56583204847E+02  0.56583204847E+02  0.00000000000E+00 0.  1.
         25    2    1    2    0    0  0.93969971084E+02 -0.23800265226E+02  0.72283509100E+03  0.73995633310E+03  0.12509195830E+03 0.  0.
          5    1    3    3  502    0  0.76893330619E+02 -0.48385071604E+02  0.68736573834E+03  0.69335620722E+03  0.41800000000E+01 0.  1.
         -5    1    3    3    0  502  0.17076640465E+02  0.24584806378E+02  0.35469352655E+02  0.46600125879E+02  0.41800000000E+01 0.  1.
        -11    1    1    2    0    0 -0.15745722181E+02 -0.16752554793E+02  0.45388499304E+02  0.50879187574E+02  0.00000000000E+00 0. -1.
         11    1    1    2    0    0 -0.78224248903E+02  0.40552820019E+02 -0.24104240897E+01  0.88144055229E+02  0.00000000000E+00 0.  1.
</event>
<event>
 7    1  0.2556591E-009  0.1322796E+03  0.7561462E-02  0.1224112E+00
         -1   -1    0    0    0  501 -0.00000000000E+00  0.00000000000E+00  0.22394767871E+02  0.22394767871E+02  0.00000000000E+00 0.  1.
          1   -1    0    0  501    0  0.00000000000E+00 -0.00000000000E+00 -0.17397159096E+04  0.17397159096E+04  0.00000000000E+00 0. -1.
         25    2    1    2    0    0 -0.95206496245E+02 -0.72526887385E+02 -0.13987336357E+04  0.14094077407E+04  0.12509983829E+03 0.  0.
          5    1    3    3  502    0 -0.58919980720E+02 -0.44833697889E+02 -0.27749701749E+03  0.28723455870E+03  0.41800000000E+01 0. -1.
         -5    1    3    3    0  502 -0.36286515525E+02 -0.27693189496E+02 -0.11212366182E+04  0.11221731820E+04  0.41800000000E+01 0. -1.
        -11    1    1    2    0    0  0.31541205194E+02  0.74466267230E+02 -0.22837129043E+03  0.24226745319E+03  0.00000000000E+00 0. -1.
         11    1    1    2    0    0  0.63665291050E+02 -0.19393798445E+01 -0.90216215534E+02  0.11043548354E+03  0.00000000000E+00 0.  1.
</event>
<event>
 7    1  0.2556591E-009  0.3161392E+03  0.7561462E-02  0.1077440E+00
         -2   -1    0    0    0  501 -0.00000000000E+00  0.00000000000E+00  0.25068049764E+03  0.25068049764E+03  0.00000000000E+00 0.  1.
          2   -1    0    0  501    0  0.00000000000E+00 -0.00000000000E+00 -0.45789817315E+03  0.45789817315E+03  0.00000000000E+00 0. -1.
         25    2    1    2    0    0  0.20169342369E+03  0.23507996431E+03 -0.19035949547E+03  0.38448272386E+03  0.12508957051E+03 0.  0.
          5    1    3    3  502    0  0.88562836095E+02  0.71831957952E+02 -0.73011700598E+01  0.11434153053E+03  0.41800000000E+01 0. -1.
         -5    1    3    3    0  502  0.11313058759E+03  0.16324800636E+03 -0.18305832541E+03  0.27014119332E+03  0.41800000000E+01 0. -1.
        -11    1    1    2    0    0 -0.78403909729E+02 -0.15142356754E+03 -0.34783657343E+02  0.17402922940E+03  0.00000000000E+00 0.  1.
         11    1    1    2    0    0 -0.12328951396E+03 -0.83656396768E+02  0.17925477301E+02  0.15006671752E+03  0.00000000000E+00 0. -1.
</event>
<event>
 7    1  0.2556591E-009  0.1183940E+03  0.7561462E-02  0.1245770E+00
          2   -1    0    0  501    0  0.00000000000E+00  0.00000000000E+00  0.60517760944E+02  0.60517760944E+02  0.00000000000E+00 0. -1.
         -2   -1    0    0    0  501 -0.00000000000E+00 -0.00000000000E+00 -0.27942860198E+03  0.27942860198E+03  0.00000000000E+00 0.  1.
         25    2    1    2    0    0 -0.40828175839E+02  0.52416707293E+02 -0.88706004246E+02  0.16712334177E+03  0.12508798915E+03 0.  0.
          5    1    3    3  502    0 -0.25355950224E+02 -0.29845316967E+02  0.68996095511E+01  0.39984299025E+02  0.41800000000E+01 0.  1.
         -5    1    3    3    0  502 -0.15472225615E+02  0.82262024259E+02 -0.95605613797E+02  0.12713904275E+03  0.41800000000E+01 0.  1.
        -11    1    1    2    0    0 -0.88184411753E+01  0.22247417858E+02 -0.25430670370E+02  0.34920359414E+02  0.00000000000E+00 0. -1.
         11    1    1    2    0    0  0.49646617014E+02 -0.74664125151E+02 -0.10477416642E+03  0.13790266174E+03  0.00000000000E+00 0.  1.
</event>
<event>
 7    1  0.2556591E-009  0.1003839E+03  0.7561462E-02  0.1279491E+00
          2   -1    0    0  501    0  0.00000000000E+00  0.00000000000E+00  0.98206513317E+02  0.98206513317E+02  0.00000000000E+00 0. -1.
         -2   -1    0    0    0  501 -0.00000000000E+00 -0.00000000000E+00 -0.18018370925E+03  0.18018370925E+03  0.00000000000E+00 0.  1.
         25    2    1    2    0    0 -0.22513283060E+02 -0.59774196959E+02 -0.12818160587E+01  0.14045947963E+03  0.12508964717E+03 0.  0.
          5    1    3    3  502    0 -0.47125932879E+02 -0.44748702879E+02  0.49576906212E+02  0.81845231923E+02  0.41800000000E+01 0.  1.
         -5    1    3    3    0  502  0.24612649818E+02 -0.15025494080E+02 -0.50858722271E+02  0.58614247709E+02  0.41800000000E+01 0.  1.
        -11    1    1    2    0    0 -0.20145899293E+02  0.60579873473E+02 -0.68318485575E+02  0.93505046920E+02  0.00000000000E+00 0.  1.
         11    1    1    2    0    0  0.42659182353E+02 -0.80567651437E+00 -0.12376894298E+02  0.44425696012E+02  0.00000000000E+00 0. -1.
</event>
<event>
 7    1  0.2931547E-009  0.1482728E+03  0.7561462E-02  0.1202612E+00
         -2   -1    0    0    0  501 -0.00000000000E+00  0.00000000000E+00  0.51245235309E+02  0.51245235309E+02  0.00000000000E+00 0.  1.
          2   -1    0    0  501    0  0.00000000000E+00 -0.00000000000E+00 -0.65604432364E+03  0.65604432364E+03  0.00000000000E+00 0. -1.
         25    2    1    2    0    0  0.13005073376E+03  0.69571260838E+02 -0.30121144327E+03  0.35795196336E+03  0.12509164972E+03 0.  0.
          5    1    3    3  502    0  0.34634490284E+02  0.14354833799E+02 -0.21406517772E+03  0.21736370876E+03  0.41800000000E+01 0.  1.
         -5    1    3    3    0  502  0.95416243472E+02  0.55216427039E+02 -0.87146265546E+02  0.14058825460E+03  0.41800000000E+01 0.  1.
        -11    1    1    2    0    0 -0.21799077017E+02 -0.19428487939E+02 -0.75433424296E+01  0.30159043708E+02  0.00000000000E+00 0.  1.
         11    1    1    2    0    0 -0.10825165674E+03 -0.50142772899E+02 -0.29604430263E+03  0.31917855188E+03  0.00000000000E+00 0. -1.
</event>
<event>
 7    1  0.2556591E-009  0.1308546E+03  0.7561462E-02  0.1226193E+00
          1   -1    0    0  501    0  0.00000000000E+00  0.00000000000E+00  0.55962016595E+03  0.55962016595E+03  0.00000000000E+00 0. -1.
         -1   -1    0    0    0  501 -0.00000000000E+00 -0.00000000000E+00 -0.78390379995E+02  0.78390379995E+02  0.00000000000E+00 0.  1.
         25    2    1    2    0    0  0.22895396387E+02  0.82782109528E+02  0.48897855102E+03  0.51198106854E+03  0.12509002499E+03 0.  0.
          5    1    3    3  502    0 -0.39322578160E+02  0.87447635316E+00  0.68646037117E+02  0.79226136306E+02  0.41800000000E+01 0.  1.
         -5    1    3    3    0  502  0.62217974548E+02  0.81907633175E+02  0.42033251390E+03  0.43275493223E+03  0.41800000000E+01 0.  1.
        -11    1    1    2    0    0 -0.26017873242E+02  0.88837310089E+01  0.15293746285E+02  0.31460277814E+02  0.00000000000E+00 0.  1.
         11    1    1    2    0    0  0.31224768547E+01 -0.91665840537E+02 -0.23042511346E+02  0.94569199596E+02  0.00000000000E+00 0. -1.
</event>
<event>
 7    1  0.2556591E-009  0.7770574E+02  0.7561462E-02  0.1335691E+00
          1   -1    0    0  501    0  0.00000000000E+00  0.00000000000E+00  0.73951578835E+03  0.73951578835E+03  0.00000000000E+00 0.  1.
         -1   -1    0    0    0  501 -0.00000000000E+00 -0.00000000000E+00 -0.19206292627E+02  0.19206292627E+02  0.00000000000E+00 0. -1.
         25    2    1    2    0    0 -0.30260109777E+02  0.12601903441E+02  0.48952936631E+03  0.50631897512E+03  0.12508166082E+03 0.  0.
          5    1    3    3  502    0 -0.16078168802E+02  0.42865785488E+02  0.60576976029E+02  0.76046206364E+02  0.41800000000E+01 0. -1.
         -5    1    3    3    0  502 -0.14181940975E+02 -0.30263882047E+02  0.42895239028E+03  0.43027276875E+03  0.41800000000E+01 0. -1.
        -11    1    1    2    0    0  0.33634886307E+02  0.22516945882E+02  0.35122920935E+02  0.53590465605E+02  0.00000000000E+00 0. -1.
         11    1    1    2    0    0 -0.33747765304E+01 -0.35118849323E+02  0.19565720848E+03  0.19881264025E+03  0.00000000000E+00 0.  1.
</event>
<event>
 7    1  0.2556591E-009  0.9012486E+02  0.7561462E-02  0.1302550E+00
          1   -1    0    0  501    0  0.00000000000E+00  0.00000000000E+00  0.15177615804E+04  0.15177615804E+04  0.00000000000E+00 0. -1.
         -1   -1    0    0    0  501 -0.00000000000E+00 -0.00000000000E+00 -0.11974040756E+02  0.11974040756E+02  0.00000000000E+00 0.  1.
         25    2    1    2    0    0 -0.18645485776E+02 -0.21265082106E+02  0.12728673511E+04  0.12793121164E+04  0.12509332381E+03 0.  0.
          5    1    3    3  502    0 -0.46489095960E+02 -0.36920114788E+02  0.29651430542E+03  0.30242773788E+03  0.41800000000E+01 0. -1.
         -5    1    3    3    0  502  0.27843610183E+02  0.15655032682E+02  0.97635304571E+03  0.97688437849E+03  0.41800000000E+01 0. -1.
        -11    1    1    2    0    0  0.55808587852E+00  0.52459538116E+02  0.10298672280E+03  0.11557932199E+03  0.00000000000E+00 0.  1.
         11    1    1    2    0    0  0.18087399898E+02 -0.31194456010E+02  0.12993346576E+03  0.13484418284E+03  0.00000000000E+00 0. -1.
</event>
<event>
 7    1  0.2556591E-009  0.4451904E+03  0.7561462E-02  0.1029166E+00
         -1   -1    0    0    0  501 -0.00000000000E+00  0.00000000000E+00  0.27773038126E+03  0.27773038126E+03  0.00000000000E+00 0.  1.
          1   -1    0    0  501    0  0.00000000000E+00 -0.00000000000E+00 -0.10344214789E+04  0.10344214789E+04  0.00000000000E+00 0. -1.
         25    2    1    2    0    0  0.40782857634E+03  0.15408901425E+03 -0.23632019589E+02  0.45417397759E+03  0.12509179661E+03 0.  0.
          5    1    3    3  502    0  0.28595168424E+03  0.50485643820E+02  0.10353461972E+02  0.29058876876E+03  0.41800000000E+01 0.  1.
         -5    1    3    3    0  502  0.12187689210E+03  0.10360337043E+03 -0.33985481561E+02  0.16358520884E+03  0.41800000000E+01 0.  1.
        -11    1    1    2    0    0 -0.29530696790E+03 -0.13915925534E+03 -0.47843089516E+03  0.57919567081E+03  0.00000000000E+00 0.  1.
         11    1    1    2    0    0 -0.11252160844E+03 -0.14929758913E+02 -0.25462818289E+03  0.27878221175E+03  0.00000000000E+00 0. -1.
</event>
<event>
 7    1  0.2556591E-009  0.1269632E+03  0.7561462E-02  0.1232033E+00
          2   -1    0    0  501    0  0.00000000000E+00  0.00000000000E+00  0.15722325984E+03  0.15722325984E+03  0.00000000000E+00 0. -1.
         -2   -1    0    0    0  501 -0.00000000000E+00 -0.00000000000E+00 -0.15280394915E+03  0.15280394915E+03  0.00000000000E+00 0.  1.
         25    2    1    2    0    0 -0.52804444850E+02 -0.84738543947E+02 -0.40703859197E+02  0.16515359986E+03  0.12509986878E+03 0.  0.
          5    1    3    3  502    0 -0.86230803567E+02 -0.68162905632E+02 -0.29807457466E+00  0.10999770196E+03  0.41800000000E+01 0.  1.
         -5    1    3    3    0  502  0.33426358717E+02 -0.16575638315E+02 -0.40405784622E+02  0.55155897904E+02  0.41800000000E+01 0.  1.
        -11    1    1    2    0    0  0.27086688685E+02  0.12743795861E+02 -0.26600155361E+02  0.40045740124E+02  0.00000000000E+00 0.  1.
         11    1    1    2    0    0  0.25717756165E+02  0.71994748086E+02  0.71723325246E+02  0.10482786900E+03  0.00000000000E+00 0. -1.
</event>
<event>
 7    1  0.2556591E-009  0.1356697E+03  0.7561462E-02  0.1219277E+00
         -1   -1    0    0    0  501 -0.00000000000E+00  0.00000000000E+00  0.89001692126E+02  0.89001692126E+02  0.00000000000E+00 0.  1.
          1   -1    0    0  501    0  0.00000000000E+00 -0.00000000000E+00 -0.21777846481E+03  0.21777846481E+03  0.00000000000E+00 0. -1.
         25    2    1    2    0    0  0.86044622668E+02 -0.73194260446E+01 -0.59564948207E+02  0.16325736682E+03  0.12509090166E+03 0.  0.
          5    1    3    3  502    0 -0.22049904211E+02 -0.32986251309E+02 -0.23854534052E+02  0.46484430146E+02  0.41800000000E+01 0.  1.
         -5    1    3    3    0  502  0.10809452688E+03  0.25666825265E+02 -0.35710414155E+02  0.11677293667E+03  0.41800000000E+01 0.  1.
        -11    1    1    2    0    0 -0.18079755604E+02 -0.35567513111E+02 -0.43771656515E+02  0.59227387800E+02  0.00000000000E+00 0. -1.
         11    1    1    2    0    0 -0.67964867064E+02  0.42886939156E+02 -0.25440167957E+02  0.84295402312E+02  0.00000000000E+00 0.  1.
</event>
<event>
 7    1  0.2556591E-009  0.1141145E+03  0.7561462E-02  0.1253135E+00
          2   -1    0    0  501    0  0.00000000000E+00  0.00000000000E+00  0.90850409210E+03  0.90850409210E+03  0.00000000000E+00 0. -1.
         -2   -1    0    0    0  501 -0.00000000000E+00 -0.00000000000E+00 -0.20355451403E+02  0.20355451403E+02  0.00000000000E+00 0.  1.
         25    2    1    2    0    0  0.23451015942E+02  0.73328117344E+02  0.41412315211E+03  0.43940372847E+03  0.12510271194E+03 0.  0.
          5    1    3    3  502    0  0.34652741311E+02 -0.94113956083E+01  0.27295902664E+03  0.27534249485E+03  0.41800000000E+01 0. -1.
         -5    1    3    3    0  502 -0.11201725369E+02  0.82739512952E+02  0.14116412548E+03  0.16406123362E+03  0.41800000000E+01 0. -1.
        -11    1    1    2    0    0  0.62546148054E+01 -0.78137243324E+02  0.42313061655E+03  0.43033018447E+03  0.00000000000E+00 0. -1.
         11    1    1    2    0    0 -0.29705630748E+02  0.48091259801E+01  0.50894872033E+02  0.59125630568E+02  0.00000000000E+00 0.  1.
</event>
<event>
 7    1  0.2556591E-009  0.1654219E+03  0.7561462E-02  0.1182708E+00
         -1   -1    0    0    0  501 -0.00000000000E+00  0.00000000000E+00  0.73186529151E+02  0.73186529151E+02  0.00000000000E+00 0.  1.
          1   -1    0    0  501    0  0.00000000000E+00 -0.00000000000E+00 -0.56180721739E+03  0.56180721739E+03  0.00000000000E+00 0. -1.
         25    2    1    2    0    0  0.10780257905E+03  0.92600306504E+02 -0.10567914436E+03  0.21681949106E+03  0.12508556007E+03 0.  0.
          5    1    3    3  502    0  0.84945840730E+02  0.10909027141E+03 -0.38095828701E+02  0.14347559980E+03  0.41800000000E+01 0.  1.
         -5    1    3    3    0  502  0.22856738315E+02 -0.16489964909E+02 -0.67583315662E+02  0.73343891258E+02  0.41800000000E+01 0.  1.
        -11    1    1    2    0    0 -0.21916022281E+02  0.14846273682E+02 -0.33934649160E+02  0.43038172458E+02  0.00000000000E+00 0.  1.
         11    1    1    2    0    0 -0.85886556764E+02 -0.10744658019E+03 -0.34900689472E+03  0.37513608303E+03  0.00000000000E+00 0. -1.
</event>
<event>
 7    1  0.2556591E-009  0.2915317E+03  0.7561462E-02  0.1089552E+00
          1   -1    0    0  501    0  0.00000000000E+00  0.00000000000E+00  0.61070378802E+03  0.61070378802E+03  0.00000000000E+00 0. -1.
         -1   -1    0    0    0  501 -0.00000000000E+00 -0.00000000000E+00 -0.15406863264E+03  0.15406863264E+03  0.00000000000E+00 0.  1.
         25    2    1    2    0    0 -0.28173399196E+03 -0.47556690834E+02  0.18813519832E+03  0.36424895057E+03  0.12508702601E+03 0.  0.
          5    1    3    3  502    0 -0.13595292990E+03 -0.99011650624E+01  0.16134657641E+03  0.21126150226E+03  0.41800000000E+01 0. -1.
         -5    1    3    3    0  502 -0.14578106205E+03 -0.37655525772E+02  0.26788621907E+02  0.15298744830E+03  0.41800000000E+01 0. -1.
        -11    1    1    2    0    0  0.62101917107E+02 -0.21677536127E+02  0.45655318073E+02  0.80068544069E+02  0.00000000000E+00 0. -1.
         11    1    1    2    0    0  0.21963207485E+03  0.69234226962E+02  0.22284463899E+03  0.32045492602E+03  0.00000000000E+00 0.  1.
</event>
<event>
 7    1  0.2556591E-009  0.3119086E+03  0.7561462E-02  0.1079435E+00
          2   -1    0    0  501    0  0.00000000000E+00  0.00000000000E+00  0.10640171679E+04  0.10640171679E+04  0.00000000000E+00 0. -1.
         -2   -1    0    0    0  501 -0.00000000000E+00 -0.00000000000E+00 -0.10035773462E+03  0.10035773462E+03  0.00000000000E+00 0.  1.
         25    2    1    2    0    0 -0.29577352791E+03  0.79505199468E+02  0.56748360665E+03  0.65687748033E+03  0.12508926327E+03 0.  0.
          5    1    3    3  502    0 -0.29032159649E+02  0.58628815752E+01  0.16955150157E+03  0.17216975274E+03  0.41800000000E+01 0.  1.
         -5    1    3    3    0  502 -0.26674136826E+03  0.73642317893E+02  0.39793210508E+03  0.48470772759E+03  0.41800000000E+01 0.  1.
        -11    1    1    2    0    0  0.69162146158E+02  0.16405501663E+02  0.91113792796E+02  0.11556066019E+03  0.00000000000E+00 0.  1.
         11    1    1    2    0    0  0.22661138175E+03 -0.95910701131E+02  0.30506203385E+03  0.39193676202E+03  0.00000000000E+00 0. -1.
</event>
<event>
 7    1  0.2556591E-009  0.1087697E+03  0.7561462E-02  0.1262865E+00
          2   -1    0    0  501    0  0.00000000000E+00  0.00000000000E+00  0.92726580317E+02  0.92726580317E+02  0.00000000000E+00 0. -1.
         -2   -1    0    0    0  501 -0.00000000000E+00 -0.00000000000E+00 -0.19934203470E+03  0.19934203470E+03  0.00000000000E+00 0.  1.
         25    2    1    2    0    0  0.21267006918E+02  0.31365798833E+02  0.19187867201E+02  0.13209669665E+03  0.12508103013E+03 0.  0.
          5    1    3    3  502    0 -0.47477314479E+02  0.15289132621E+02  0.33114427074E+02  0.60015753323E+02  0.41800000000E+01 0. -1.
         -5    1    3    3    0  502  0.68744321397E+02  0.16076666212E+02 -0.13926559874E+02  0.72080943326E+02  0.41800000000E+01 0. -1.
        -11    1    1    2    0    0  0.35007348085E+02 -0.15573691312E+02 -0.66228737300E+02  0.76513397032E+02  0.00000000000E+00 0.  1.
         11    1    1    2    0    0 -0.56274355003E+02 -0.15792107521E+02 -0.59574584284E+02  0.83458521336E+02  0.00000000000E+00 0. -1.
</event>
<event>
 7    1  0.2556591E-009  0.2307174E+03  0.7561462E-02  0.1126136E+00
         -2   -1    0    0    0  501 -0.00000000000E+00  0.00000000000E+00  0.17716121411E+03  0.17716121411E+03  0.00000000000E+00 0.  1.
          2   -1    0    0  501    0  0.00000000000E+00 -0.00000000000E+00 -0.37706189472E+03  0.37706189472E+03  0.00000000000E+00 0. -1.
         25    2    1    2    0    0  0.81975039920E+02 -0.19939853114E+03 -0.21288579190E+03  0.32779392069E+03  0.12509521437E+03 0.  0.
          5    1    3    3  502    0  0.10238104858E+03 -0.12288330235E+03 -0.96136697259E+02  0.18665991017E+03  0.41800000000E+01 0. -1.
         -5    1    3    3    0  502 -0.20406008657E+02 -0.76515228786E+02 -0.11674909464E+03  0.14113401052E+03  0.41800000000E+01 0. -1.
        -11    1    1    2    0    0 -0.20852468453E+02  0.12070772517E+03 -0.13748514563E+02  0.12326476386E+03  0.00000000000E+00 0.  1.
         11    1    1    2    0    0 -0.61122571467E+02  0.78690805965E+02  0.26733625851E+02  0.10316442428E+03  0.00000000000E+00 0. -1.
</event>
<event>
 7    1  0.2556591E-009  0.2097110E+03  0.7561462E-02  0.1141795E+00
          2   -1    0    0  501    0  0.00000000000E+00  0.00000000000E+00  0.75319291686E+03  0.75319291686E+03  0.00000000000E+00 0. -1.
         -2   -1    0    0    0  501 -0.00000000000E+00 -0.00000000000E+00 -0.69504332982E+02  0.69504332982E+02  0.00000000000E+00 0.  1.
         25    2    1    2    0    0  0.19676014019E+03  0.18349690940E+02  0.28668579178E+03  0.36998507882E+03  0.12509576897E+03 0.  0.
          5    1    3    3  502    0  0.11946341741E+03  0.53235418370E+02  0.99320373288E+02  0.16427880819E+03  0.41800000000E+01 0. -1.
         -5    1    3    3    0  502  0.77296722775E+02 -0.34885727430E+02  0.18736541850E+03  0.20570627063E+03  0.41800000000E+01 0. -1.
        -11    1    1    2    0    0 -0.16800181553E+03 -0.33265130231E+02  0.37840537829E+03  0.41535744754E+03  0.00000000000E+00 0. -1.
         11    1    1    2    0    0 -0.28758324654E+02  0.14915439291E+02  0.18597413808E+02  0.37354723483E+02  0.00000000000E+00 0.  1.
</event>
<event>
 7    1  0.2556591E-009  0.7754018E+02  0.7561462E-02  0.1336181E+00
          1   -1    0    0  501    0  0.00000000000E+00  0.00000000000E+00  0.29391000334E+03  0.29391000334E+03  0.00000000000E+00 0. -1.
         -1   -1    0    0    0  501 -0.00000000000E+00 -0.00000000000E+00 -0.49179777065E+02  0.49179777065E+02  0.00000000000E+00 0.  1.
         25    2    1    2    0    0 -0.21236613090E+02  0.47673996085E+02  0.12899109311E+03  0.18711031783E+03  0.12509102805E+03 0.  0.
          5    1    3    3  502    0  0.57085937790E+01 -0.10337545728E+02  0.12198690911E+03  0.12262842773E+03  0.41800000000E+01 0.  1.
         -5    1    3    3    0  502 -0.26945206869E+02  0.58011541813E+02  0.70041839998E+01  0.64481890095E+02  0.41800000000E+01 0.  1.
        -11    1    1    2    0    0  0.39411610802E+02 -0.45425558991E+02  0.27979820214E+02  0.66329682759E+02  0.00000000000E+00 0.  1.
         11    1    1    2    0    0 -0.18174997712E+02 -0.22484370941E+01  0.87759312960E+02  0.89649779823E+02  0.00000000000E+00 0. -1.
</event>
<event>
 7    1  0.2556591E-009  0.7218157E+02  0.7561462E-02  0.1352828E+00
         -1   -1    0    0    0  501 -0.00000000000E+00  0.00000000000E+00  0.57051222917E+02  0.57051222917E+02  0.00000000000E+00 0.  1.
          1   -1    0    0  501    0  0.00000000000E+00 -0.00000000000E+00 -0.28464565718E+03  0.28464565718E+03  0.00000000000E+00 0. -1.
         25    2    1    2    0    0 -0.17069227271E+02  0.65036377163E+02 -0.11949037319E+03  0.18559519492E+03  0.12508612320E+03 0.  0.
          5    1    3    3  502    0 -0.10109287936E+02  0.54400720041E+02  0.91688215532E+01  0.56242117067E+02  0.41800000000E+01 0.  1.
         -5    1    3    3    0  502 -0.69599393356E+01  0.10635657122E+02 -0.12865919474E+03  0.12935307785E+03  0.41800000000E+01 0.  1.
        -11    1    1    2    0    0  0.16616760128E+02 -0.79774539116E+01 -0.96022912106E+02  0.97776050940E+02  0.00000000000E+00 0. -1.
         11    1    1    2    0    0  0.45246714335E+00 -0.57058923251E+02 -0.12081148970E+02  0.58325634240E+02  0.00000000000E+00 0.  1.
</event>
<event>
 7    1  0.4811627E-009  0.1007528E+03  0.7561462E-02  0.1278721E+00
         -1   -1    0    0    0  501 -0.00000000000E+00  0.00000000000E+00  0.58177391235E+02  0.58177391235E+02  0.00000000000E+00 0.  1.
          1   -1    0    0  501    0  0.00000000000E+00 -0.00000000000E+00 -0.24468063213E+03  0.24468063213E+03  0.00000000000E+00 0. -1.
         25    2    1    2    0    0 -0.27337922401E+02  0.30786397354E+02 -0.69008503237E+02  0.14867565964E+03  0.12508842467E+03 0.  0.
          5    1    3    3  502    0  0.43285523390E+02  0.34888226108E+02 -0.50994269332E+02  0.75556023988E+02  0.41800000000E+01 0. -1.
         -5    1    3    3    0  502 -0.70623445791E+02 -0.41018287541E+01 -0.18014233905E+02  0.73119635651E+02  0.41800000000E+01 0. -1.
        -11    1    1    2    0    0  0.17332997684E+02 -0.50167001756E+02 -0.24131125605E+02  0.58304992041E+02  0.00000000000E+00 0.  1.
         11    1    1    2    0    0  0.10004924717E+02  0.19380604402E+02 -0.93363612052E+02  0.95877371684E+02  0.00000000000E+00 0. -1.
</event>
<event>
 7    1  0.2556591E-009  0.1291223E+03  0.7561462E-02  0.1228764E+00
         -1   -1    0    0    0  501 -0.00000000000E+00  0.00000000000E+00  0.39861634972E+03  0.39861634972E+03  0.00000000000E+00 0.  1.
          1   -1    0    0  501    0  0.00000000000E+00 -0.00000000000E+00 -0.52021487693E+02  0.52021487693E+02  0.00000000000E+00 0. -1.
         25    2    1    2    0    0 -0.91393950600E+02  0.14620234475E+02  0.17821932497E+03  0.23659305422E+03  0.12509012771E+03 0.  0.
          5    1    3    3  502    0 -0.12160414049E+03  0.13527621316E+02  0.12324580503E+03  0.17371690873E+03  0.41800000000E+01 0.  1.
         -5    1    3    3    0  502  0.30210189888E+02  0.10926131589E+01  0.54973519944E+02  0.62876145490E+02  0.41800000000E+01 0.  1.
        -11    1    1    2    0    0  0.73741897785E+02 -0.32130354137E+02  0.53725780351E+02  0.96729967540E+02  0.00000000000E+00 0. -1.
         11    1    1    2    0    0  0.17652052815E+02  0.17510119663E+02  0.11464975670E+03  0.11731481565E+03  0.00000000000E+00 0.  1.
</event>
<event>
 7    1  0.2556591E-009  0.1219504E+03  0.7561462E-02  0.1239914E+00
         -1   -1    0    0    0  501 -0.00000000000E+00  0.00000000000E+00  0.28165367225E+03  0.28165367225E+03  0.00000000000E+00 0.  1.
          1   -1    0    0  501    0  0.00000000000E+00 -0.00000000000E+00 -0.12022511822E+03  0.12022511822E+03  0.00000000000E+00 0. -1.
         25    2    1    2    0    0  0.29674868915E+02  0.52031681388E+02 -0.62877647633E+02  0.15228064807E+03  0.12509158042E+03 0.  0.
          5    1    3    3  502    0  0.41226963674E+02 -0.32434012206E+02 -0.16546250855E+02  0.55162292365E+02  0.41800000000E+01 0.  1.
         -5    1    3    3    0  502 -0.11552094759E+02  0.84465693594E+02 -0.46331396778E+02  0.97118355706E+02  0.41800000000E+01 0.  1.
        -11    1    1    2    0    0  0.28259421318E+02 -0.30962620427E+00  0.35033870930E+02  0.45011808162E+02  0.00000000000E+00 0. -1.
         11    1    1    2    0    0 -0.57934290234E+02 -0.51722055184E+02  0.18927233073E+03  0.20458633424E+03  0.00000000000E+00 0.  1.
</event>
<event>
 7    1  0.2556591E-009  0.1797069E+03  0.7561462E-02  0.1168087E+00
          1   -1    0    0  501    0  0.00000000000E+00  0.00000000000E+00  0.15181665248E+04  0.15181665248E+04  0.00000000000E+00 0. -1.
         -1   -1    0    0    0  501 -0.00000000000E+00 -0.00000000000E+00 -0.23649439312E+02  0.23649439312E+02  0.00000000000E+00 0.  1.
         25    2    1    2    0    0 -0.11426673812E+02 -0.14734731165E+03  0.89945417057E+03  0.92005743552E+03  0.12508429386E+03 0.  0.
          5    1    3    3  502    0  0.44215125694E+02 -0.10853784417E+02  0.24032792516E+03  0.24463803054E+03  0.41800000000E+01 0.  1.
         -5    1    3    3    0  502 -0.55641799505E+02 -0.13649352723E+03  0.65912624541E+03  0.67541940497E+03  0.41800000000E+01 0.  1.
        -11    1    1    2    0    0  0.42191353601E+02  0.57867292405E+02  0.14336942564E+03  0.16026080637E+03  0.00000000000E+00 0.  1.
         11    1    1    2    0    0 -0.30764679789E+02  0.89480019244E+02  0.45169348932E+03  0.46149772227E+03  0.00000000000E+00 0. -1.
</event>
<event>
 7    1  0.2556591E-009  0.3226385E+03  0.7561462E-02  0.1074441E+00
          2   -1    0    0  501    0  0.00000000000E+00  0.00000000000E+00  0.22040962150E+04  0.22040962150E+04  0.00000000000E+00 0. -1.
         -2   -1    0    0    0  501 -0.00000000000E+00 -0.00000000000E+00 -0.49997264139E+02  0.49997264139E+02  0.00000000000E+00 0.  1.
         25    2    1    2    0    0 -0.17987656674E+03  0.25575978829E+03  0.10122661161E+04  0.10668169285E+04  0.12508805096E+03 0.  0.
          5    1    3    3  502    0 -0.15762897898E+03  0.14452402548E+03  0.77201152933E+03  0.80109510220E+03  0.41800000000E+01 0.  1.
         -5    1    3    3    0  502 -0.22247587757E+02  0.11123576281E+03  0.24025458676E+03  0.26572182626E+03  0.41800000000E+01 0.  1.
        -11    1    1    2    0    0  0.48182880387E+02 -0.11713781612E+03  0.58422273007E+03  0.59779516246E+03  0.00000000000E+00 0. -1.
         11    1    1    2    0    0  0.13169368635E+03 -0.13862197218E+03  0.55761010466E+03  0.58948138818E+03  0.00000000000E+00 0.  1.
</event>
<event>
 7    1  0.2556591E-009  0.1134156E+03  0.7561462E-02  0.1254372E+00
         -1   -1    0    0    0  501 -0.00000000000E+00  0.00000000000E+00  0.11730749601E+03  0.11730749601E+03  0.00000000000E+00 0.  1.
          1   -1    0    0  501    0  0.00000000000E+00 -0.00000000000E+00 -0.13768424481E+03  0.13768424481E+03  0.00000000000E+00 0. -1.
         25    2    1    2    0    0  0.73345709833E+01 -0.48758655923E+02  0.32057256715E+02  0.13822610549E+03  0.12509031167E+03 0.  0.
          5    1    3    3  502    0  0.55546084418E+02  0.89982814149E+01  0.21980235895E+00  0.56425679222E+02  0.41800000000E+01 0. -1.
         -5    1    3    3    0  502 -0.48211513435E+02 -0.57756937338E+02  0.31837454356E+02  0.81800426272E+02  0.41800000000E+01 0. -1.
        -11    1    1    2    0    0  0.34969099512E+02  0.70981509626E+01  0.26430105252E+01  0.35779982845E+02  0.00000000000E+00 0.  1.
         11    1    1    2    0    0 -0.42303670495E+02  0.41660504960E+02 -0.55077016047E+02  0.80985652480E+02  0.00000000000E+00 0. -1.
</event>
<event>
 7    1  0.2556591E-009  0.1582998E+03  0.7561462E-02  0.1190630E+00
         -1   -1    0    0    0  501 -0.00000000000E+00  0.00000000000E+00  0.79455524248E+02  0.79455524248E+02  0.00000000000E+00 0.  1.
          1   -1    0    0  501    0  0.00000000000E+00 -0.00000000000E+00 -0.45368905152E+03  0.45368905152E+03  0.00000000000E+00 0. -1.
         25    2    1    2    0    0  0.94780273430E+02  0.98748274178E+02 -0.93187143428E+02  0.20752231510E+03  0.12508855135E+03 0.  0.
          5    1    3    3  502    0  0.10242550885E+03  0.72320432399E+02 -0.11651194705E+03  0.17121254630E+03  0.41800000000E+01 0.  1.
         -5    1    3    3    0  502 -0.76452354252E+01  0.26427841779E+02  0.23324803624E+02  0.36309768794E+02  0.41800000000E+01 0.  1.
        -11    1    1    2    0    0 -0.95488144133E+02 -0.38326713628E+02 -0.19495776155E+03  0.22044376025E+03  0.00000000000E+00 0. -1.
         11    1    1    2    0    0  0.70787070338E+00 -0.60421560550E+02 -0.86088622295E+02  0.10517850041E+03  0.00000000000E+00 0.  1.
</event>
<event>
 7    1  0.2556591E-009  0.1387738E+03  0.7561462E-02  0.1214988E+00
         -1   -1    0    0    0  501 -0.00000000000E+00  0.00000000000E+00  0.28705368846E+02  0.28705368846E+02  0.00000000000E+00 0.  1.
          1   -1    0    0  501    0  0.00000000000E+00 -0.00000000000E+00 -0.96448021515E+03  0.96448021515E+03  0.00000000000E+00 0. -1.
         25    2    1    2    0    0  0.10567703327E+03 -0.65773165244E+02 -0.55333052415E+03  0.58079016002E+03  0.12509514936E+03 0.  0.
          5    1    3    3  502    0  0.10845369018E+03 -0.61589638849E+02 -0.27065052368E+03  0.29803467062E+03  0.41800000000E+01 0. -1.
         -5    1    3    3    0  502 -0.27766569134E+01 -0.41835263952E+01 -0.28268000047E+03  0.28275548940E+03  0.41800000000E+01 0. -1.
        -11    1    1    2    0    0 -0.59011028628E+02 -0.73609396923E+01 -0.22395061065E+03  0.23171180579E+03  0.00000000000E+00 0. -1.
         11    1    1    2    0    0 -0.46666004638E+02  0.73134104936E+02 -0.15849371151E+03  0.18068361819E+03  0.00000000000E+00 0.  1.
</event>
<event>
 7    1  0.2556591E-009  0.8090643E+02  0.7561462E-02  0.1326499E+00
          1   -1    0    0  501    0  0.00000000000E+00  0.00000000000E+00  0.42042274483E+03  0.42042274483E+03  0.00000000000E+00 0. -1.
         -1   -1    0    0    0  501 -0.00000000000E+00 -0.00000000000E+00 -0.33281736831E+02  0.33281736831E+02  0.00000000000E+00 0.  1.
         25    2    1    2    0    0 -0.34030264009E+02 -0.87062475190E+01  0.27473157767E+03  0.30390536835E+03  0.12508867067E+03 0.  0.
          5    1    3    3  502    0  0.11755655647E+02 -0.26970083672E+02  0.55681195581E+01  0.30233379043E+02  0.41800000000E+01 0. -1.
         -5    1    3    3    0  502 -0.45785919656E+02  0.18263836153E+02  0.26916345811E+03  0.27367198930E+03  0.41800000000E+01 0. -1.
        -11    1    1    2    0    0  0.56454663394E+02  0.16612574729E+02  0.11141420136E+03  0.12600091635E+03  0.00000000000E+00 0. -1.
         11    1    1    2    0    0 -0.22424399385E+02 -0.79063272095E+01  0.99522897518E+00  0.23798196958E+02  0.00000000000E+00 0.  1.
</event>
<event>
 7    1  0.2556591E-009  0.1383442E+03  0.7561462E-02  0.1215574E+00
          1   -1    0    0  501    0  0.00000000000E+00  0.00000000000E+00  0.71780392224E+02  0.71780392224E+02  0.00000000000E+00 0. -1.
         -1   -1    0    0    0  501 -0.00000000000E+00 -0.00000000000E+00 -0.30033327442E+03  0.30033327442E+03  0.00000000000E+00 0.  1.
         25    2    1    2    0    0 -0.58923512542E+02 -0.81166809558E+02 -0.11665478046E+03  0.19827720608E+03  0.12508189854E+03 0.  0.
          5    1    3    3  502    0 -0.89070822209E+02 -0.63030996406E+02 -0.44543883335E+02  0.11793281062E+03  0.41800000000E+01 0. -1.
         -5    1    3    3    0  502  0.30147309667E+02 -0.18135813152E+02 -0.72110897120E+02  0.80344395463E+02  0.41800000000E+01 0. -1.
        -11    1    1    2    0    0 -0.18395893353E+02 -0.20018158699E+01 -0.23601074141E+02  0.29990446139E+02  0.00000000000E+00 0.  1.
         11    1    1    2    0    0  0.77319405895E+02  0.83168625428E+02 -0.88297027603E+02  0.14384601443E+03  0.00000000000E+00 0. -1.
</event>
<event>
 7    1  0.2556591E-009  0.1426902E+03  0.7561462E-02  0.1209754E+00
         -2   -1    0    0    0  501 -0.00000000000E+00  0.00000000000E+00  0.16984813125E+02  0.16984813125E+02  0.00000000000E+00 0.  1.
          2   -1    0    0  501    0  0.00000000000E+00 -0.00000000000E+00 -0.13034917699E+04  0.13034917699E+04  0.00000000000E+00 0. -1.
         25    2    1    2    0    0 -0.81210860549E+02 -0.61796682909E+02 -0.80694542095E+03  0.82293360579E+03  0.12507906804E+03 0.  0.
          5    1    3    3  502    0 -0.39818421770E+02  0.34951460308E+02 -0.20117275780E+03  0.20807465529E+03  0.41800000000E+01 0. -1.
         -5    1    3    3    0  502 -0.41392438779E+02 -0.96748143217E+02 -0.60577266314E+03  0.61485895051E+03  0.41800000000E+01 0. -1.
        -11    1    1    2    0    0  0.94018426797E+02  0.41163654071E+02 -0.43335813129E+03  0.44534613611E+03  0.00000000000E+00 0. -1.
         11    1    1    2    0    0 -0.12807566248E+02  0.20633028838E+02 -0.46203404536E+02  0.52196841121E+02  0.00000000000E+00 0.  1.
</event>
<event>
 7    1  0.2556591E-009  0.1316725E+03  0.7561462E-02  0.1224995E+00
         -1   -1    0    0    0  501 -0.00000000000E+00  0.00000000000E+00  0.39214559528E+03  0.39214559528E+03  0.00000000000E+00 0.  1.
          1   -1    0    0  501    0  0.00000000000E+00 -0.00000000000E+00 -0.66796955980E+02  0.66796955980E+02  0.00000000000E+00 0. -1.
         25    2    1    2    0    0  0.57082785670E+02  0.67023011267E+02  0.58637524689E+02  0.16381654722E+03  0.12508786265E+03 0.  0.
          5    1    3    3  502    0 -0.31003358966E+02  0.16762296344E+02  0.50856082101E+02  0.62016097366E+02  0.41800000000E+01 0.  1.
         -5    1    3    3    0  502  0.88086144636E+02  0.50260714922E+02  0.77814425885E+01  0.10180044985E+03  0.41800000000E+01 0.  1.
        -11    1    1    2    0    0 -0.81986284968E+02 -0.47913080854E+02  0.20063179162E+03  0.22196966020E+03  0.00000000000E+00 0.  1.
         11    1    1    2    0    0  0.24903499299E+02 -0.19109930413E+02  0.66079322991E+02  0.73156343844E+02  0.00000000000E+00 0. -1.
</event>
<event>
 7    1  0.2556591E-009  0.7281702E+02  0.7561462E-02  0.1350767E+00
         -2   -1    0    0    0  501 -0.00000000000E+00  0.00000000000E+00  0.23006172921E+02  0.23006172921E+02  0.00000000000E+00 0.  1.
          2   -1    0    0  501    0  0.00000000000E+00 -0.00000000000E+00 -0.62301985272E+03  0.62301985272E+03  0.00000000000E+00 0. -1.
         25    2    1    2    0    0 -0.47564833684E+02  0.26948294201E+02 -0.32011888903E+03  0.34801259194E+03  0.12509211434E+03 0.  0.
          5    1    3    3  502    0 -0.34119272367E+02  0.34735935329E+02 -0.32691379702E+03  0.33054623434E+03  0.41800000000E+01 0.  1.
         -5    1    3    3    0  502 -0.13445561316E+02 -0.77876411282E+01  0.67949079891E+01  0.17466357606E+02  0.41800000000E+01 0.  1.
        -11    1    1    2    0    0  0.38777324964E+02  0.12122282770E+02 -0.48911506395E+02  0.63584322979E+02  0.00000000000E+00 0.  1.
         11    1    1    2    0    0  0.87875087200E+01 -0.39070576971E+02 -0.23098328437E+03  0.23442911072E+03  0.00000000000E+00 0. -1.
</event>
<event>
 7    1  0.2556591E-009  0.1294069E+03  0.7561462E-02  0.1228338E+00
          1   -1    0    0  501    0  0.00000000000E+00  0.00000000000E+00  0.32430106204E+03  0.32430106204E+03  0.00000000000E+00 0. -1.
         -1   -1    0    0    0  501 -0.00000000000E+00 -0.00000000000E+00 -0.65075820785E+02  0.65075820785E+02  0.00000000000E+00 0.  1.
         25    2    1    2    0    0 -0.44296227758E+02  0.79343402367E+02  0.97356272062E+02  0.18270012460E+03  0.12507422007E+03 0.  0.
          5    1    3    3  502    0 -0.19723626989E+02 -0.22816371251E+02  0.66453454653E+02  0.73096800846E+02  0.41800000000E+01 0.  1.
         -5    1    3    3    0  502 -0.24572600769E+02  0.10215977362E+03  0.30902817409E+02  0.10960332375E+03  0.41800000000E+01 0.  1.
        -11    1    1    2    0    0 -0.19208648569E+02 -0.49391848263E+02  0.41439883751E+02  0.67273998097E+02  0.00000000000E+00 0.  1.
         11    1    1    2    0    0  0.63504876327E+02 -0.29951554104E+02  0.12042908544E+03  0.13940276012E+03  0.00000000000E+00 0. -1.
</event>
<event>
 7    1  0.2556591E-009  0.1020881E+03  0.7561462E-02  0.1275965E+00
          1   -1    0    0  501    0  0.00000000000E+00  0.00000000000E+00  0.11105227226E+03  0.11105227226E+03  0.00000000000E+00 0. -1.
         -1   -1    0    0    0  501 -0.00000000000E+00 -0.00000000000E+00 -0.12992723441E+03  0.12992723441E+03  0.00000000000E+00 0.  1.
         25    2    1    2    0    0  0.76113919276E+01  0.22089128469E+02  0.35914635779E+02  0.13222222936E+03  0.12508794503E+03 0.  0.
          5    1    3    3  502    0  0.42040091471E+02 -0.30326581566E+02 -0.11781083355E+02  0.53322951581E+02  0.41800000000E+01 0.  1.
         -5    1    3    3    0  502 -0.34428699543E+02  0.52415710035E+02  0.47695719133E+02  0.78899277781E+02  0.41800000000E+01 0.  1.
        -11    1    1    2    0    0  0.28665403872E+02 -0.39722030366E+02 -0.13007815606E+02  0.50682820979E+02  0.00000000000E+00 0. -1.
         11    1    1    2    0    0 -0.36276795800E+02  0.17632901896E+02 -0.41781782324E+02  0.58074456321E+02  0.00000000000E+00 0.  1.
</event>
<event>
 7    1  0.2556591E-009  0.1795951E+03  0.7561462E-02  0.1168195E+00
          1   -1    0    0  501    0  0.00000000000E+00  0.00000000000E+00  0.11054812792E+04  0.11054812792E+04  0.00000000000E+00 0. -1.
         -1   -1    0    0    0  501 -0.00000000000E+00 -0.00000000000E+00 -0.54301148267E+02  0.54301148267E+02  0.00000000000E+00 0.  1.
         25    2    1    2    0    0  0.11390312637E+03  0.12418878079E+03  0.86493399130E+03  0.89003067283E+03  0.12508802422E+03 0.  0.
          5    1    3    3  502    0  0.29800649081E+02  0.28876375752E+02  0.49452233119E+02  0.64690953948E+02  0.41800000000E+01 0. -1.
         -5    1    3    3    0  502  0.84102477290E+02  0.95312405041E+02  0.81548175818E+03  0.82533971888E+03  0.41800000000E+01 0. -1.
        -11    1    1    2    0    0 -0.47562182872E+02  0.21437831869E+01  0.74926772239E+02  0.88773747493E+02  0.00000000000E+00 0.  1.
         11    1    1    2    0    0 -0.66340943500E+02 -0.12633256398E+03  0.11131936735E+03  0.18097800710E+03  0.00000000000E+00 0. -1.
</event>
<event>
 7    1  0.2556591E-009  0.8808011E+02  0.7561462E-02  0.1307569E+00
          2   -1    0    0  501    0  0.00000000000E+00  0.00000000000E+00  0.42457616769E+02  0.42457616769E+02  0.00000000000E+00 0. -1.
         -2   -1    0    0    0  501 -0.00000000000E+00 -0.00000000000E+00 -0.37297072574E+03  0.37297072574E+03  0.00000000000E+00 0.  1.
         25    2    1    2    0    0  0.26965370720E+02  0.37777890219E+02 -0.11194176188E+03  0.17415564413E+03  0.12507969509E+03 0.  0.
          5    1    3    3  502    0  0.70319161535E+01  0.49733276997E+02 -0.13317734742E+03  0.14239566339E+03  0.41800000000E+01 0.  1.
         -5    1    3    3    0  502  0.19933454566E+02 -0.11955386778E+02  0.21235585538E+02  0.31759980748E+02  0.41800000000E+01 0.  1.
        -11    1    1    2    0    0 -0.74708098787E+01 -0.66780164599E+02 -0.14653854703E+03  0.16121088409E+03  0.00000000000E+00 0.  1.
         11    1    1    2    0    0 -0.19494560841E+02  0.29002274380E+02 -0.72032800058E+02  0.80061814280E+02  0.00000000000E+00 0. -1.
</event>
<event>
 7    1  0.2556591E-009  0.1350035E+03  0.7561462E-02  0.1220215E+00
         -2   -1    0    0    0  501 -0.00000000000E+00  0.00000000000E+00  0.19708708548E+03  0.19708708548E+03  0.00000000000E+00 0.  1.
          2   -1    0    0  501    0  0.00000000000E+00 -0.00000000000E+00 -0.11881082106E+03  0.11881082106E+03  0.00000000000E+00 0. -1.
         25    2    1    2    0    0  0.62513272486E+02  0.88202036768E+02  0.12445367345E+02  0.16579755905E+03  0.12508571018E+03 0.  0.
          5    1    3    3  502    0  0.75134125500E+02  0.10782169544E+02 -0.23277958004E+02  0.79503004494E+02  0.41800000000E+01 0.  1.
         -5    1    3    3    0  502 -0.12620853014E+02  0.77419867224E+02  0.35723325348E+02  0.86294554554E+02  0.41800000000E+01 0.  1.
        -11    1    1    2    0    0 -0.47052809835E+02 -0.88209629012E+02  0.20298017846E+02  0.10201428867E+03  0.00000000000E+00 0. -1.
         11    1    1    2    0    0 -0.15460462651E+02  0.75922441622E-02  0.45532879223E+02  0.48086058825E+02  0.00000000000E+00 0.  1.
</event>
<event>
 7    1  0.2556591E-009  0.7005277E+02  0.7561462E-02  0.1359914E+00
         -2   -1    0    0    0  501 -0.00000000000E+00  0.00000000000E+00  0.15139960200E+03  0.15139960200E+03  0.00000000000E+00 0.  1.
          2   -1    0    0  501    0  0.00000000000E+00 -0.00000000000E+00 -0.92460819611E+02  0.92460819611E+02  0.00000000000E+00 0. -1.
         25    2    1    2    0    0 -0.35480567605E+02 -0.21617794700E+01  0.63609541526E+00  0.13004928833E+03  0.12509543880E+03 0.  0.
          5    1    3    3  502    0 -0.30286062481E+02  0.29539968650E+02  0.53325401436E+02  0.68197699131E+02  0.41800000000E+01 0.  1.
         -5    1    3    3    0  502 -0.51945051242E+01 -0.31701748120E+02 -0.52689306020E+02  0.61851589198E+02  0.41800000000E+01 0.  1.
        -11    1    1    2    0    0  0.19692666994E+02  0.28409587670E+02 -0.12427500144E+02  0.36733480161E+02  0.00000000000E+00 0.  1.
         11    1    1    2    0    0  0.15787900611E+02 -0.26247808200E+02  0.70730187116E+02  0.77077653120E+02  0.00000000000E+00 0. -1.
</event>
<event>
 7    1  0.2556591E-009  0.1251851E+03  0.7561462E-02  0.1234780E+00
          2   -1    0    0  501    0  0.00000000000E+00  0.00000000000E+00  0.22220744854E+04  0.22220744854E+04  0.00000000000E+00 0.  1.
         -2   -1    0    0    0  501 -0.00000000000E+00 -0.00000000000E+00 -0.12689982434E+02  0.12689982434E+02  0.00000000000E+00 0. -1.
         25    2    1    2    0    0 -0.26019509211E+02  0.74910497070E+02  0.18351805515E+04  0.18411475856E+04  0.12509267711E+03 0.  0.
          5    1    3    3  502    0 -0.62132014032E+02 -0.61374400376E+00  0.93574085430E+03  0.93781084588E+03  0.41800000000E+01 0. -1.
         -5    1    3    3    0  502  0.36112504821E+02  0.75524241074E+02  0.89943969719E+03  0.90333673969E+03  0.41800000000E+01 0. -1.
        -11    1    1    2    0    0  0.44877834027E+02 -0.26021074770E+02  0.84055876752E+02  0.98775030932E+02  0.00000000000E+00 0. -1.
         11    1    1    2    0    0 -0.18858324816E+02 -0.48889422300E+02  0.29014807471E+03  0.29484185131E+03  0.00000000000E+00 0.  1.
</event>
<event>
 7    1  0.2556591E-009  0.9525640E+02  0.7561462E-02  0.1290600E+00
          2   -1    0    0  501    0  0.00000000000E+00  0.00000000000E+00  0.37034595383E+03  0.37034595383E+03  0.00000000000E+00 0. -1.
         -2   -1    0    0    0  501 -0.00000000000E+00 -0.00000000000E+00 -0.50865983467E+02  0.50865983467E+02  0.00000000000E+00 0.  1.
         25    2    1    2    0    0 -0.24653720439E+02 -0.58684136215E+01  0.29458941635E+03  0.32104713234E+03  0.12508434253E+03 0.  0.
          5    1    3    3  502    0 -0.53302230943E+02  0.22516898064E+02  0.26388703655E+03  0.27018878396E+03  0.41800000000E+01 0.  1.
         -5    1    3    3    0  502  0.28648510504E+02 -0.28385311686E+02  0.30702379804E+02  0.50858348373E+02  0.41800000000E+01 0.  1.
        -11    1    1    2    0    0 -0.91386099661E+01  0.41706546839E+02  0.27588082816E+02  0.50833577041E+02  0.00000000000E+00 0.  1.
         11    1    1    2    0    0  0.33792330405E+02 -0.35838133218E+02 -0.26975288004E+01  0.49331227923E+02  0.00000000000E+00 0. -1.
</event>
<event>
 7    1  0.2556591E-009  0.1209092E+03  0.7561462E-02  0.1241605E+00
         -1   -1    0    0    0  501 -0.00000000000E+00  0.00000000000E+00  0.10729834903E+02  0.10729834903E+02  0.00000000000E+00 0.  1.
          1   -1    0    0  501    0  0.00000000000E+00 -0.00000000000E+00 -0.16651866082E+04  0.16651866082E+04  0.00000000000E+00 0. -1.
         25    2    1    2    0    0 -0.34112158307E+02 -0.65829593051E+02 -0.10925512772E+04  0.11021856812E+04  0.12509119779E+03 0.  0.
          5    1    3    3  502    0 -0.67339832476E+01 -0.90034997972E+02 -0.47390863260E+03  0.48245052787E+03  0.41800000000E+01 0. -1.
         -5    1    3    3    0  502 -0.27378175060E+02  0.24205404922E+02 -0.61864264462E+03  0.61973515331E+03  0.41800000000E+01 0. -1.
        -11    1    1    2    0    0  0.64615897115E+01 -0.21814106673E+02 -0.81613441804E+02  0.84725210384E+02  0.00000000000E+00 0.  1.
         11    1    1    2    0    0  0.27650568596E+02  0.87643699723E+02 -0.48029205432E+03  0.48900555159E+03  0.00000000000E+00 0. -1.
</event>
<event>
 7    1  0.2556591E-009  0.1058626E+03  0.7561462E-02  0.1268429E+00
          1   -1    0    0  501    0  0.00000000000E+00  0.00000000000E+00  0.10569692728E+03  0.10569692728E+03  0.00000000000E+00 0. -1.
         -1   -1    0    0    0  501 -0.00000000000E+00 -0.00000000000E+00 -0.16208136934E+03  0.16208136934E+03  0.00000000000E+00 0.  1.
         25    2    1    2    0    0 -0.59951388021E+01 -0.33486018176E+02 -0.10158226195E+03  0.16469243407E+03  0.12508951512E+03 0.  0.
          5    1    3    3  502    0 -0.60093915557E+02  0.69267798602E+01 -0.36274408928E+02  0.70658078868E+02  0.41800000000E+01 0.  1.
         -5    1    3    3    0  502  0.54098776755E+02 -0.40412798036E+02 -0.65307853023E+02  0.94034355200E+02  0.41800000000E+01 0.  1.
        -11    1    1    2    0    0  0.27760841570E+02  0.49265847882E+02  0.78839412636E+01  0.57095924741E+02  0.00000000000E+00 0. -1.
         11    1    1    2    0    0 -0.21765702768E+02 -0.15779829706E+02  0.37313878626E+02  0.45989937820E+02  0.00000000000E+00 0.  1.
</event>
<event>
 7    1  0.3056428E-009  0.2047440E+03  0.7561462E-02  0.1145797E+00
         -1   -1    0    0    0  501 -0.00000000000E+00  0.00000000000E+00  0.54782821175E+02  0.54782821175E+02  0.00000000000E+00 0.  1.
          1   -1    0    0  501    0  0.00000000000E+00 -0.00000000000E+00 -0.97423803595E+03  0.97423803595E+03  0.00000000000E+00 0. -1.
         25    2    1    2    0    0  0.17980817084E+03  0.67574771619E+02 -0.32521231379E+03  0.39787755655E+03  0.12508466294E+03 0.  0.
          5    1    3    3  502    0  0.11009259790E+03  0.80541000424E+02 -0.28563286747E+03  0.31656095817E+03  0.41800000000E+01 0. -1.
         -5    1    3    3    0  502  0.69715572943E+02 -0.12966228805E+02 -0.39579446321E+02  0.81316598375E+02  0.41800000000E+01 0. -1.
        -11    1    1    2    0    0 -0.91789250978E+02 -0.12950847689E+01 -0.37102283822E+03  0.38221053141E+03  0.00000000000E+00 0.  1.
         11    1    1    2    0    0 -0.88018919865E+02 -0.66279686850E+02 -0.22322006276E+03  0.24893276916E+03  0.00000000000E+00 0. -1.
</event>
<event>
 7    1  0.2556591E-009  0.1039286E+03  0.7561462E-02  0.1272245E+00
         -1   -1    0    0    0  501 -0.00000000000E+00  0.00000000000E+00  0.18759445050E+03  0.18759445050E+03  0.00000000000E+00 0.  1.
          1   -1    0    0  501    0  0.00000000000E+00 -0.00000000000E+00 -0.16113945008E+03  0.16113945008E+03  0.00000000000E+00 0. -1.
         25    2    1    2    0    0 -0.66207042439E+02 -0.70379474246E+02 -0.91799024291E+02  0.18278655796E+03  0.12508885660E+03 0.  0.
          5    1    3    3  502    0 -0.63286197318E+01 -0.38959755990E+02  0.25607182174E+02  0.47234671518E+02  0.41800000000E+01 0. -1.
         -5    1    3    3    0  502 -0.59878422707E+02 -0.31419718256E+02 -0.11740620646E+03  0.13555188644E+03  0.41800000000E+01 0. -1.
        -11    1    1    2    0    0  0.50661984081E+02  0.67832744851E+02  0.12315590658E+03  0.14944997568E+03  0.00000000000E+00 0.  1.
         11    1    1    2    0    0  0.15545058358E+02  0.25467293946E+01 -0.49018818741E+01  0.16497366937E+02  0.00000000000E+00 0. -1.
</event>
<event>
 7    1  0.2556591E-009  0.1100611E+03  0.7561462E-02  0.1260457E+00
         -1   -1    0    0    0  501 -0.00000000000E+00  0.00000000000E+00  0.12285757337E+02  0.12285757337E+02  0.00000000000E+00 0.  1.
          1   -1    0    0  501    0  0.00000000000E+00 -0.00000000000E+00 -0.15647371247E+04  0.15647371247E+04  0.00000000000E+00 0. -1.
         25    2    1    2    0    0 -0.79177278315E+02  0.36779918312E+02 -0.90083907428E+03  0.91366304355E+03  0.12508923060E+03 0.  0.
          5    1    3    3  502    0 -0.56710064288E+02  0.44247907589E+02 -0.87648370521E+03  0.87944020071E+03  0.41800000000E+01 0. -1.
         -5    1    3    3    0  502 -0.22467214027E+02 -0.74679892764E+01 -0.24355369064E+02  0.34222842843E+02  0.41800000000E+01 0. -1.
        -11    1    1    2    0    0  0.95060209878E+02 -0.13744499180E+02 -0.48593365259E+03  0.49533510826E+03  0.00000000000E+00 0.  1.
         11    1    1    2    0    0 -0.15882931562E+02 -0.23035419132E+02 -0.16567864051E+03  0.16802473023E+03  0.00000000000E+00 0. -1.
</event>
<event>
 7    1  0.2556591E-009  0.1387495E+03  0.7561462E-02  0.1215022E+00
         -2   -1    0    0    0  501 -0.00000000000E+00  0.00000000000E+00  0.23594359125E+03  0.23594359125E+03  0.00000000000E+00 0.  1.
          2   -1    0    0  501    0  0.00000000000E+00 -0.00000000000E+00 -0.10106055388E+03  0.10106055388E+03  0.00000000000E+00 0. -1.
         25    2    1    2    0    0  0.43035590802E+02  0.89164938831E+02  0.12461222025E+03  0.20243496238E+03  0.12509700302E+03 0.  0.
          5    1    3    3  502    0  0.78176266091E+02  0.69142299773E+02  0.12351792154E+03  0.16176011727E+03  0.41800000000E+01 0.  1.
         -5    1    3    3    0  502 -0.35140675289E+02  0.20022639058E+02  0.10942987069E+01  0.40674845105E+02  0.41800000000E+01 0.  1.
        -11    1    1    2    0    0  0.26820813461E+02 -0.34429925059E+02  0.13740012196E+02  0.45755477371E+02  0.00000000000E+00 0.  1.
         11    1    1    2    0    0 -0.69856404263E+02 -0.54735013772E+02 -0.34691950735E+01  0.88813705382E+02  0.00000000000E+00 0. -1.
</event>
<event>
 7    1  0.2556591E-009  0.1039618E+03  0.7561462E-02  0.1272179E+00
         -2   -1    0    0    0  501 -0.00000000000E+00  0.00000000000E+00  0.36493162815E+02  0.36493162815E+02  0.00000000000E+00 0.  1.
          2   -1    0    0  501    0  0.00000000000E+00 -0.00000000000E+00 -0.40519704631E+03  0.40519704631E+03  0.00000000000E+00 0. -1.
         25    2    1    2    0    0  0.34177162698E+02 -0.30041579837E+02 -0.26221103685E+03  0.29406365638E+03  0.12509289023E+03 0.  0.
          5    1    3    3  502    0  0.46746891727E+02  0.24090580493E+02 -0.43537301391E+02  0.68400270227E+02  0.41800000000E+01 0. -1.
         -5    1    3    3    0  502 -0.12569729029E+02 -0.54132160330E+02 -0.21867373546E+03  0.22566338615E+03  0.41800000000E+01 0. -1.
        -11    1    1    2    0    0  0.50655553742E+01 -0.28508151618E+02 -0.16532474728E+02  0.33342124715E+02  0.00000000000E+00 0. -1.
         11    1    1    2    0    0 -0.39242718072E+02  0.58549731454E+02 -0.89960371914E+02  0.11428442803E+03  0.00000000000E+00 0.  1.
</event>
<event>
 7    1  0.2556591E-009  0.2209033E+03  0.7561462E-02  0.1133211E+00
          2   -1    0    0  501    0  0.00000000000E+00  0.00000000000E+00  0.16329494091E+04  0.16329494091E+04  0.00000000000E+00 0. -1.
         -2   -1    0    0    0  501 -0.00000000000E+00 -0.00000000000E+00 -0.32947394905E+02  0.32947394905E+02  0.00000000000E+00 0.  1.
         25    2    1    2    0    0 -0.19820773328E+03  0.32019710727E+02  0.97014029912E+03  0.99856447657E+03  0.12508895428E+03 0.  0.
          5    1    3    3  502    0  0.12596280068E+02  0.79011239339E+01  0.17199407460E+03  0.17268621291E+03  0.41800000000E+01 0.  1.
         -5    1    3    3    0  502 -0.21080401335E+03  0.24118586793E+02  0.79814622452E+03  0.82587826367E+03  0.41800000000E+01 0.  1.
        -11    1    1    2    0    0  0.75785489873E+02 -0.49438407619E+02  0.34737779620E+03  0.35896926040E+03  0.00000000000E+00 0.  1.
         11    1    1    2    0    0  0.12242224341E+03  0.17418696892E+02  0.28248391885E+03  0.30836306701E+03  0.00000000000E+00 0. -1.
</event>
<event>
 7    1  0.2556591E-009  0.1286864E+03  0.7561462E-02  0.1229418E+00
          2   -1    0    0  501    0  0.00000000000E+00  0.00000000000E+00  0.39275552288E+03  0.39275552288E+03  0.00000000000E+00 0.  1.
         -2   -1    0    0    0  501 -0.00000000000E+00 -0.00000000000E+00 -0.53386379275E+02  0.53386379275E+02  0.00000000000E+00 0. -1.
         25    2    1    2    0    0  0.84705286787E+02 -0.34452327818E+02  0.14606586105E+03  0.21294319777E+03  0.12509045211E+03 0.  0.
          5    1    3    3  502    0  0.21570230623E+02 -0.72240054918E+02  0.10257447676E+03  0.12736913310E+03  0.41800000000E+01 0.  1.
         -5    1    3    3    0  502  0.63135056164E+02  0.37787727100E+02  0.43491384289E+02  0.85574064667E+02  0.41800000000E+01 0.  1.
        -11    1    1    2    0    0 -0.67037590947E+01  0.29232339299E+02  0.12760586660E+03  0.13108290216E+03  0.00000000000E+00 0.  1.
         11    1    1    2    0    0 -0.78001527692E+02  0.52199885191E+01  0.65697415955E+02  0.10211580223E+03  0.00000000000E+00 0. -1.
</event>
<event>
 7    1  0.2556591E-009  0.1167349E+03  0.7561462E-02  0.1248583E+00
          1   -1    0    0  501    0  0.00000000000E+00  0.00000000000E+00  0.13974080724E+03  0.13974080724E+03  0.00000000000E+00 0. -1.
         -1   -1    0    0    0  501 -0.00000000000E+00 -0.00000000000E+00 -0.16395114785E+03  0.16395114785E+03  0.00000000000E+00 0.  1.
         25    2    1    2    0    0 -0.72578164595E+02 -0.41962714927E+02  0.48347770355E+02  0.15816093332E+03  0.12509562147E+03 0.  0.
          5    1    3    3  502    0 -0.76080844945E+02 -0.56154206486E+02 -0.12471337307E+02  0.95470396081E+02  0.41800000000E+01 0.  1.
         -5    1    3    3    0  502  0.35026803506E+01  0.14191491559E+02  0.60819107662E+02  0.62690537237E+02  0.41800000000E+01 0.  1.
        -11    1    1    2    0    0  0.22444618391E+02  0.64761207298E+02 -0.25632027933E+02  0.73176333068E+02  0.00000000000E+00 0. -1.
         11    1    1    2    0    0  0.50133546204E+02 -0.22798492371E+02 -0.46926083025E+02  0.72354688703E+02  0.00000000000E+00 0.  1.
</event>
<event>
 7    1  0.2556591E-009  0.1019258E+03  0.7561462E-02  0.1276298E+00
          3   -1    0    0  501    0  0.00000000000E+00  0.00000000000E+00  0.12586672372E+02  0.12586672372E+02  0.00000000000E+00 0. -1.
         -3   -1    0    0    0  501 -0.00000000000E+00 -0.00000000000E+00 -0.98650547154E+03  0.98650547154E+03  0.00000000000E+00 0.  1.
         25    2    1    2    0    0 -0.25995043552E+02  0.31970316397E+01 -0.51766055803E+03  0.53320170928E+03  0.12508255729E+03 0.  0.
          5    1    3    3  502    0 -0.52951695778E+02 -0.36845657229E+02 -0.41099089736E+03  0.41604383742E+03  0.41800000000E+01 0.  1.
         -5    1    3    3    0  502  0.26956652225E+02  0.40042688869E+02 -0.10666966066E+03  0.11715787185E+03  0.41800000000E+01 0.  1.
        -11    1    1    2    0    0 -0.25578202842E+02  0.21648009593E+02 -0.11201425082E+03  0.11691908812E+03  0.00000000000E+00 0. -1.
         11    1    1    2    0    0  0.51573246395E+02 -0.24845041233E+02 -0.34424399032E+03  0.34897134651E+03  0.00000000000E+00 0.  1.
</event>
<event>
 7    1  0.2556591E-009  0.1043256E+03  0.7561462E-02  0.1271454E+00
         -1   -1    0    0    0  501 -0.00000000000E+00  0.00000000000E+00  0.34363567524E+02  0.34363567524E+02  0.00000000000E+00 0.  1.
          1   -1    0    0  501    0  0.00000000000E+00 -0.00000000000E+00 -0.36458273485E+03  0.36458273485E+03  0.00000000000E+00 0. -1.
         25    2    1    2    0    0 -0.15054173151E+02  0.21090031909E+02 -0.20316610418E+03  0.23999090627E+03  0.12509097341E+03 0.  0.
          5    1    3    3  502    0  0.44064460456E+02  0.31152597777E+02 -0.43683529587E+02  0.69554900479E+02  0.41800000000E+01 0. -1.
         -5    1    3    3    0  502 -0.59118633607E+02 -0.10062565868E+02 -0.15948257459E+03  0.17043600579E+03  0.41800000000E+01 0. -1.
        -11    1    1    2    0    0 -0.36118401751E+02  0.58354038178E+01 -0.61349181541E+02  0.71430476399E+02  0.00000000000E+00 0. -1.
         11    1    1    2    0    0  0.51172574902E+02 -0.26925435727E+02 -0.65703881604E+02  0.87524919703E+02  0.00000000000E+00 0.  1.
</event>
<event>
 7    1  0.2556591E-009  0.9764518E+02  0.7561462E-02  0.1285327E+00
          1   -1    0    0  501    0  0.00000000000E+00  0.00000000000E+00  0.30166306204E+03  0.30166306204E+03  0.00000000000E+00 0. -1.
         -1   -1    0    0    0  501 -0.00000000000E+00 -0.00000000000E+00 -0.51889251168E+02  0.51889251168E+02  0.00000000000E+00 0.  1.
         25    2    1    2    0    0  0.30375100104E+02 -0.51738883223E+02  0.16101070184E+03  0.21254014255E+03  0.12509719158E+03 0.  0.
          5    1    3    3  502    0 -0.10010279501E+02 -0.65147874642E+02  0.26098737565E+02  0.71014560257E+02  0.41800000000E+01 0. -1.
         -5    1    3    3    0  502  0.40385379605E+02  0.13408991419E+02  0.13491196428E+03  0.14152558229E+03  0.41800000000E+01 0. -1.
        -11    1    1    2    0    0  0.43670310757E+01 -0.12617687672E+02  0.61544247725E+02  0.62975959148E+02  0.00000000000E+00 0. -1.
         11    1    1    2    0    0 -0.34742131179E+02  0.64356570895E+02  0.27218861300E+02  0.78036211509E+02  0.00000000000E+00 0.  1.
</event>
<event>
 7    1  0.2556591E-009  0.9347854E+02  0.7561462E-02  0.1294640E+00
         -2   -1    0    0    0  501 -0.00000000000E+00  0.00000000000E+00  0.97847989869E+02  0.97847989869E+02  0.00000000000E+00 0.  1.
          2   -1    0    0  501    0  0.00000000000E+00 -0.00000000000E+00 -0.15457760530E+03  0.15457760530E+03  0.00000000000E+00 0. -1.
         25    2    1    2    0    0 -0.28009330983E+00 -0.42165424887E+02 -0.67686021068E+02  0.14834778053E+03  0.12509062728E+03 0.  0.
          5    1    3    3  502    0 -0.52940287891E+01 -0.68964042620E+02  0.61135322468E+01  0.69562300075E+02  0.41800000000E+01 0. -1.
         -5    1    3    3    0  502  0.50139354792E+01  0.26798617732E+02 -0.73799553315E+02  0.78785480457E+02  0.41800000000E+01 0. -1.
        -11    1    1    2    0    0  0.36684989454E+02  0.38995464651E+02 -0.19015795740E+02  0.56815800639E+02  0.00000000000E+00 0.  1.
         11    1    1    2    0    0 -0.36404896144E+02  0.31699602363E+01  0.29972201381E+02  0.47262013995E+02  0.00000000000E+00 0. -1.
</event>
<event>
 7    1  0.2556591E-009  0.1692764E+03  0.7561462E-02  0.1178605E+00
          1   -1    0    0  501    0  0.00000000000E+00  0.00000000000E+00  0.58417707718E+03  0.58417707718E+03  0.00000000000E+00 0. -1.
         -1   -1    0    0    0  501 -0.00000000000E+00 -0.00000000000E+00 -0.51362170762E+02  0.51362170762E+02  0.00000000000E+00 0.  1.
         25    2    1    2    0    0 -0.67613745577E+02  0.11594832756E+03  0.30261790538E+03  0.35389379928E+03  0.12509033237E+03 0.  0.
          5    1    3    3  502    0 -0.37616038673E+02  0.13927435958E+03  0.25281490063E+03  0.29111021964E+03  0.41800000000E+01 0.  1.
         -5    1    3    3    0  502 -0.29997706905E+02 -0.23326032015E+02  0.49803004753E+02  0.62783579633E+02  0.41800000000E+01 0.  1.
        -11    1    1    2    0    0  0.32082935387E+02 -0.11611681114E+03  0.13996034291E+03  0.18466544387E+03  0.00000000000E+00 0.  1.
         11    1    1    2    0    0  0.35530810190E+02  0.16848357899E+00  0.90236658126E+02  0.96980004791E+02  0.00000000000E+00 0. -1.
</event>
<event>
 7    1  0.2556591E-009  0.8060816E+02  0.7561462E-02  0.1327334E+00
          2   -1    0    0  501    0  0.00000000000E+00  0.00000000000E+00  0.88226804386E+02  0.88226804386E+02  0.00000000000E+00 0. -1.
         -2   -1    0    0    0  501 -0.00000000000E+00 -0.00000000000E+00 -0.11628965846E+03  0.11628965846E+03  0.00000000000E+00 0.  1.
         25    2    1    2    0    0  0.17533385632E+01  0.17066996415E+02 -0.32540702724E+01  0.12630199408E+03  0.12508896104E+03 0.  0.
          5    1    3    3  502    0 -0.11630682147E+02  0.56797830628E+02  0.36284874531E+02  0.68522484273E+02  0.41800000000E+01 0.  1.
         -5    1    3    3    0  502  0.13384020711E+02 -0.39730834213E+02 -0.39538944803E+02  0.57779509809E+02  0.41800000000E+01 0.  1.
        -11    1    1    2    0    0 -0.76097749377E+01 -0.38239537473E+02 -0.36431843385E+02  0.53361504038E+02  0.00000000000E+00 0.  1.
         11    1    1    2    0    0  0.58564363745E+01  0.21172541058E+02  0.11623059580E+02  0.24852964730E+02  0.00000000000E+00 0. -1.
</event>
<event>
 7    1  0.2556591E-009  0.1110522E+03  0.7561462E-02  0.1258634E+00
          1   -1    0    0  501    0  0.00000000000E+00  0.00000000000E+00  0.83474506546E+02  0.83474506546E+02  0.00000000000E+00 0. -1.
         -1   -1    0    0    0  501 -0.00000000000E+00 -0.00000000000E+00 -0.24988501183E+03  0.24988501183E+03  0.00000000000E+00 0.  1.
         25    2    1    2    0    0 -0.10962877497E+02  0.43047805627E+02 -0.18802408988E+03  0.23015956332E+03  0.12508824069E+03 0.  0.
          5    1    3    3  502    0  0.36674192216E+02 -0.28449754181E+02 -0.61394267362E+02  0.77078617999E+02  0.41800000000E+01 0.  1.
         -5    1    3    3    0  502 -0.47637069713E+02  0.71497559809E+02 -0.12662982251E+03  0.15308094532E+03  0.41800000000E+01 0.  1.
        -11    1    1    2    0    0  0.26306447226E+02  0.14423771516E+02 -0.14801918002E+02  0.33454015110E+02  0.00000000000E+00 0.  1.
         11    1    1    2    0    0 -0.15343569729E+02 -0.57471577143E+02  0.36415502589E+02  0.69745939955E+02  0.00000000000E+00 0. -1.
</event>
<event>
 7    1  0.2556591E-009  0.2024636E+03  0.7561462E-02  0.1147677E+00
          2   -1    0    0  501    0  0.00000000000E+00  0.00000000000E+00  0.71590953194E+03  0.71590953194E+03  0.00000000000E+00 0.  1.
         -2   -1    0    0    0  501 -0.00000000000E+00 -0.00000000000E+00 -0.75501493341E+02  0.75501493341E+02  0.00000000000E+00 0. -1.
         25    2    1    2    0    0  0.18244049333E+03 -0.58997485825E+01  0.49268538362E+03  0.54009751463E+03  0.12508835850E+03 0.  0.
          5    1    3    3  502    0  0.15842544651E+02  0.28244185153E+02  0.19087199866E+03  0.19364481012E+03  0.41800000000E+01 0.  1.
         -5    1    3    3    0  502  0.16659794868E+03 -0.34143933735E+02  0.30181338496E+03  0.34645270450E+03  0.41800000000E+01 0.  1.
        -11    1    1    2    0    0 -0.35073655986E+02 -0.34666087092E+02  0.24969292627E+02  0.55275351765E+02  0.00000000000E+00 0.  1.
         11    1    1    2    0    0 -0.14736683734E+03  0.40565835674E+02  0.12275336235E+03  0.19603815889E+03  0.00000000000E+00 0. -1.
</event>
<event>
 7    1  0.2556591E-009  0.1067153E+03  0.7561462E-02  0.1266776E+00
         -1   -1    0    0    0  501 -0.00000000000E+00  0.00000000000E+00  0.17859327383E+03  0.17859327383E+03  0.00000000000E+00 0.  1.
          1   -1    0    0  501    0  0.00000000000E+00 -0.00000000000E+00 -0.89224578686E+02  0.89224578686E+02  0.00000000000E+00 0. -1.
         25    2    1    2    0    0  0.47293650027E+02  0.37661739360E+02  0.26884466208E+02  0.14151706974E+03  0.12509680476E+03 0.  0.
          5    1    3    3  502    0  0.63762978169E+02  0.74372966946E+02  0.13915163445E+02  0.99036153858E+02  0.41800000000E+01 0. -1.
         -5    1    3    3    0  502 -0.16469328142E+02 -0.36711227586E+02  0.12969302763E+02  0.42480915886E+02  0.41800000000E+01 0. -1.
        -11    1    1    2    0    0 -0.13951537785E+02 -0.39137037348E+02 -0.13190765898E+02  0.43592997189E+02  0.00000000000E+00 0. -1.
         11    1    1    2    0    0 -0.33342112242E+02  0.14752979885E+01  0.75674994830E+02  0.82707785579E+02  0.00000000000E+00 0.  1.
</event>
<event>
 7    1  0.2556591E-009  0.1000872E+03  0.7561462E-02  0.1280113E+00
          1   -1    0    0  501    0  0.00000000000E+00  0.00000000000E+00  0.67822823151E+02  0.67822823151E+02  0.00000000000E+00 0. -1.
         -1   -1    0    0    0  501 -0.00000000000E+00 -0.00000000000E+00 -0.38086887843E+03  0.38086887843E+03  0.00000000000E+00 0.  1.
         25    2    1    2    0    0 -0.73082574079E+01  0.50485291350E+02 -0.33393815807E+03  0.36022816325E+03  0.12508981139E+03 0.  0.
          5    1    3    3  502    0  0.46466914847E+02  0.34665555069E+02 -0.73044276925E+02  0.93347810232E+02  0.41800000000E+01 0. -1.
         -5    1    3    3    0  502 -0.53775172255E+02  0.15819736281E+02 -0.26089388115E+03  0.26688035302E+03  0.41800000000E+01 0. -1.
        -11    1    1    2    0    0 -0.16128472022E+02  0.11344529182E+02  0.28497910055E+01  0.19923535351E+02  0.00000000000E+00 0.  1.
         11    1    1    2    0    0  0.23436729430E+02 -0.61829820532E+02  0.18042311790E+02  0.68540002977E+02  0.00000000000E+00 0. -1.
</event>
<event>
 7    1  0.2611325E-009  0.1641931E+03  0.7561462E-02  0.1184043E+00
         -1   -1    0    0    0  501 -0.00000000000E+00  0.00000000000E+00  0.85863942805E+02  0.85863942805E+02  0.00000000000E+00 0.  1.
          1   -1    0    0  501    0  0.00000000000E+00 -0.00000000000E+00 -0.36103642740E+03  0.36103642740E+03  0.00000000000E+00 0. -1.
         25    2    1    2    0    0  0.10351313605E+03  0.72555476931E+02 -0.21747833546E+03  0.28093065297E+03  0.12508372724E+03 0.  0.
          5    1    3    3  502    0 -0.77093844344E+01  0.62371620924E+02 -0.10447444047E+03  0.12199194570E+03  0.41800000000E+01 0. -1.
         -5    1    3    3    0  502  0.11122252049E+03  0.10183856007E+02 -0.11300389499E+03  0.15893870727E+03  0.41800000000E+01 0. -1.
        -11    1    1    2    0    0 -0.39360315797E+02 -0.79894442246E+02 -0.46374141694E+02  0.10041373103E+03  0.00000000000E+00 0. -1.
         11    1    1    2    0    0 -0.64152820255E+02  0.73389653146E+01 -0.11320007446E+02  0.65555986204E+02  0.00000000000E+00 0.  1.
</event>
<event>
 7    1  0.2562672E-009  0.9619604E+02  0.7561462E-02  0.1288505E+00
          1   -1    0    0  501    0  0.00000000000E+00  0.00000000000E+00  0.77707261407E+03  0.77707261407E+03  0.00000000000E+00 0. -1.
         -1   -1    0    0    0  501 -0.00000000000E+00 -0.00000000000E+00 -0.20547393157E+02  0.20547393157E+02  0.00000000000E+00 0.  1.
         25    2    1    2    0    0 -0.59382420625E+02  0.20952524611E+02  0.37776616605E+03  0.40289123405E+03  0.12509512420E+03 0.  0.
          5    1    3    3  502    0 -0.53835424412E+02  0.50038400382E+02  0.10356379324E+03  0.12706307923E+03  0.41800000000E+01 0. -1.
         -5    1    3    3    0  502 -0.55469962134E+01 -0.29085875771E+02  0.27420237281E+03  0.27582815482E+03  0.41800000000E+01 0. -1.
        -11    1    1    2    0    0 -0.11877205409E+02 -0.12281966063E+02  0.11679548734E+02  0.20696051733E+02  0.00000000000E+00 0.  1.
         11    1    1    2    0    0  0.71259626034E+02 -0.86705585481E+01  0.36707950614E+03  0.37403272145E+03  0.00000000000E+00 0. -1.
</event>
<event>
 7    1  0.2556591E-009  0.1012624E+03  0.7561462E-02  0.1277663E+00
          2   -1    0    0  501    0  0.00000000000E+00  0.00000000000E+00  0.62761421894E+02  0.62761421894E+02  0.00000000000E+00 0.  1.
         -2   -1    0    0    0  501 -0.00000000000E+00 -0.00000000000E+00 -0.27947392719E+03  0.27947392719E+03  0.00000000000E+00 0. -1.
         25    2    1    2    0    0 -0.24966794757E+02 -0.54991655751E+02 -0.61937130598E+02  0.15208652321E+03  0.12508668735E+03 0.  0.
          5    1    3    3  502    0 -0.33282075335E+02  0.88599309602E+01  0.25757753487E+02  0.43210290209E+02  0.41800000000E+01 0. -1.
         -5    1    3    3    0  502  0.83152805785E+01 -0.63851586711E+02 -0.87694884085E+02  0.10887623300E+03  0.41800000000E+01 0. -1.
        -11    1    1    2    0    0  0.51194068559E+02  0.57464544047E+02 -0.14047111002E+03  0.16017221741E+03  0.00000000000E+00 0.  1.
         11    1    1    2    0    0 -0.26227273802E+02 -0.24728882967E+01 -0.14304264679E+02  0.29976608474E+02  0.00000000000E+00 0. -1.
</event>
<event>
 7    1  0.2556591E-009  0.1187392E+03  0.7561462E-02  0.1245192E+00
         -4   -1    0    0    0  501 -0.00000000000E+00  0.00000000000E+00  0.38594962288E+03  0.38594962288E+03  0.00000000000E+00 0.  1.
          4   -1    0    0  501    0  0.00000000000E+00 -0.00000000000E+00 -0.39001216997E+02  0.39001216997E+02  0.00000000000E+00 0. -1.
         25    2    1    2    0    0  0.54915298865E+02 -0.17200682442E+02  0.24060027143E+03  0.27721207524E+03  0.12508593254E+03 0.  0.
          5    1    3    3  502    0  0.94237311529E+02 -0.88846685563E+01  0.14259118034E+03  0.17119966510E+03  0.41800000000E+01 0.  1.
         -5    1    3    3    0  502 -0.39322012664E+02 -0.83160138861E+01  0.98009091087E+02  0.10601241014E+03  0.41800000000E+01 0.  1.
        -11    1    1    2    0    0 -0.71909322135E+02  0.32998871071E+02  0.77965317273E+02  0.11107865141E+03  0.00000000000E+00 0. -1.
         11    1    1    2    0    0  0.16994023270E+02 -0.15798188629E+02  0.28382817177E+02  0.36660113226E+02  0.00000000000E+00 0.  1.
</event>
<event>
 7    1  0.2556591E-009  0.1065531E+03  0.7561462E-02  0.1267090E+00
         -2   -1    0    0    0  501 -0.00000000000E+00  0.00000000000E+00  0.14202632189E+03  0.14202632189E+03  0.00000000000E+00 0.  1.
          2   -1    0    0  501    0  0.00000000000E+00 -0.00000000000E+00 -0.11832320074E+03  0.11832320074E+03  0.00000000000E+00 0. -1.
         25    2    1    2    0    0 -0.52108507622E+02  0.45656156589E+01  0.60051920264E+02  0.14829350659E+03  0.12509432264E+03 0.  0.
          5    1    3    3  502    0 -0.81672379204E+01  0.46250399145E+02 -0.17066096061E+02  0.50145061882E+02  0.41800000000E+01 0. -1.
         -5    1    3    3    0  502 -0.43941269701E+02 -0.41684783486E+02  0.77118016324E+02  0.98148444711E+02  0.41800000000E+01 0. -1.
        -11    1    1    2    0    0  0.43872444848E+02 -0.45665564689E+02 -0.28352908141E+02  0.69383158010E+02  0.00000000000E+00 0.  1.
         11    1    1    2    0    0  0.82360627738E+01  0.41099949030E+02 -0.79958909738E+01  0.42672858034E+02  0.00000000000E+00 0. -1.
</event>
<event>
 7    1  0.2556591E-009  0.1254819E+03  0.7561462E-02  0.1234318E+00
          2   -1    0    0  501    0  0.00000000000E+00  0.00000000000E+00  0.78647315885E+02  0.78647315885E+02  0.00000000000E+00 0.  1.
         -2   -1    0    0    0  501 -0.00000000000E+00 -0.00000000000E+00 -0.23021193782E+03  0.23021193782E+03  0.00000000000E+00 0. -1.
         25    2    1    2    0    0 -0.40693777716E+02 -0.47021846384E+02 -0.29795080771E+02  0.14283835810E+03  0.12509201464E+03 0.  0.
          5    1    3    3  502    0 -0.42782060840E+02  0.36101738163E+02 -0.16651646614E+02  0.58552454800E+02  0.41800000000E+01 0.  1.
         -5    1    3    3    0  502  0.20882831245E+01 -0.83123584548E+02 -0.13143434157E+02  0.84285903305E+02  0.41800000000E+01 0.  1.
        -11    1    1    2    0    0  0.53577642433E+02  0.68234511472E+02 -0.83518742907E+02  0.12042380471E+03  0.00000000000E+00 0. -1.
         11    1    1    2    0    0 -0.12883864717E+02 -0.21212665087E+02 -0.38250798253E+02  0.45597090885E+02  0.00000000000E+00 0.  1.
</event>
<event>
 7    1  0.2556591E-009  0.1984537E+03  0.7561462E-02  0.1151050E+00
          1   -1    0    0  501    0  0.00000000000E+00  0.00000000000E+00  0.11959549682E+04  0.11959549682E+04  0.00000000000E+00 0. -1.
         -1   -1    0    0    0  501 -0.00000000000E+00 -0.00000000000E+00 -0.48546886087E+02  0.48546886087E+02  0.00000000000E+00 0.  1.
         25    2    1    2    0    0 -0.17409755899E+03  0.59935187192E+02  0.86329701179E+03  0.89153249588E+03  0.12508506683E+03 0.  0.
          5    1    3    3  502    0 -0.41148232886E+02  0.55716505583E+02  0.49677165963E+03  0.50159451779E+03  0.41800000000E+01 0. -1.
         -5    1    3    3    0  502 -0.13294932610E+03  0.42186816089E+01  0.36652535216E+03  0.38993797809E+03  0.41800000000E+01 0. -1.
        -11    1    1    2    0    0  0.48190089516E+02 -0.47912960798E+02  0.42208914626E+02  0.79997056283E+02  0.00000000000E+00 0.  1.
         11    1    1    2    0    0  0.12590746947E+03 -0.12022226395E+02  0.24190215575E+03  0.27297230217E+03  0.00000000000E+00 0. -1.
</event>
<event>
 7    1  0.2556591E-009  0.1932466E+03  0.7561462E-02  0.1155565E+00
          2   -1    0    0  501    0  0.00000000000E+00  0.00000000000E+00  0.22406740405E+03  0.22406740405E+03  0.00000000000E+00 0. -1.
         -2   -1    0    0    0  501 -0.00000000000E+00 -0.00000000000E+00 -0.21969640368E+03  0.21969640368E+03  0.00000000000E+00 0.  1.
         25    2    1    2    0    0  0.17566364541E+03  0.71124158877E+02  0.40134146839E+02  0.23059242065E+03  0.12508298214E+03 0.  0.
          5    1    3    3  502    0  0.48259266192E+02  0.67375714142E+01 -0.43192956706E+02  0.65249180462E+02  0.41800000000E+01 0.  1.
         -5    1    3    3    0  502  0.12740437922E+03  0.64386587462E+02  0.83327103546E+02  0.16534324019E+03  0.41800000000E+01 0.  1.
        -11    1    1    2    0    0 -0.75110986955E+02 -0.68200950341E+01 -0.53549882478E+02  0.92497372780E+02  0.00000000000E+00 0.  1.
         11    1    1    2    0    0 -0.10055265846E+03 -0.64304063842E+02  0.17786736017E+02  0.12067401430E+03  0.00000000000E+00 0. -1.
</event>
<event>
 7    1  0.2556591E-009  0.1281530E+03  0.7561462E-02  0.1230222E+00
         -2   -1    0    0    0  501 -0.00000000000E+00  0.00000000000E+00  0.38769048928E+02  0.38769048928E+02  0.00000000000E+00 0.  1.
          2   -1    0    0  501    0  0.00000000000E+00 -0.00000000000E+00 -0.44486409164E+03  0.44486409164E+03  0.00000000000E+00 0. -1.
         25    2    1    2    0    0  0.71983820479E+02 -0.32583601474E+02 -0.26126228879E+03  0.30024845800E+03  0.12509113276E+03 0.  0.
          5    1    3    3  502    0  0.10447891685E+03 -0.42838067443E+01 -0.18296034300E+03  0.21077512798E+03  0.41800000000E+01 0. -1.
         -5    1    3    3    0  502 -0.32495096373E+02 -0.28299794730E+02 -0.78301945792E+02  0.89473330019E+02  0.41800000000E+01 0. -1.
        -11    1    1    2    0    0 -0.87436609286E+02  0.23930928895E+02 -0.98923996922E+02  0.13417826638E+03  0.00000000000E+00 0.  1.
         11    1    1    2    0    0  0.15452788807E+02  0.86526725791E+01 -0.45908757002E+02  0.49206416189E+02  0.00000000000E+00 0. -1.
</event>
<event>
 7    1  0.2556591E-009  0.1223143E+03  0.7561462E-02  0.1239327E+00
         -1   -1    0    0    0  501 -0.00000000000E+00  0.00000000000E+00  0.10074841293E+04  0.10074841293E+04  0.00000000000E+00 0.  1.
          1   -1    0    0  501    0  0.00000000000E+00 -0.00000000000E+00 -0.23688388691E+02  0.23688388691E+02  0.00000000000E+00 0. -1.
         25    2    1    2    0    0  0.71361886394E+02 -0.50686582759E+02  0.75081227960E+03  0.76617782910E+03  0.12509091937E+03 0.  0.
          5    1    3    3  502    0  0.10025149526E+03 -0.61308847774E+02  0.65454031542E+03  0.66501852156E+03  0.41800000000E+01 0.  1.
         -5    1    3    3    0  502 -0.28889608862E+02  0.10622265015E+02  0.96271964183E+02  0.10115930754E+03  0.41800000000E+01 0.  1.
        -11    1    1    2    0    0 -0.43290004032E+02  0.52262136509E+02  0.22607710551E+03  0.23604282026E+03  0.00000000000E+00 0.  1.
         11    1    1    2    0    0 -0.28071882361E+02 -0.15755537501E+01  0.69063554590E+01  0.28951868587E+02  0.00000000000E+00 0. -1.
</event>
<event>
 7    1  0.2556591E-009  0.1093310E+03  0.7561462E-02  0.1261814E+00
          2   -1    0    0  501    0  0.00000000000E+00  0.00000000000E+00  0.51266984103E+03  0.51266984103E+03  0.00000000000E+00 0. -1.
         -2   -1    0    0    0  501 -0.00000000000E+00 -0.00000000000E+00 -0.57285882336E+02  0.57285882336E+02  0.00000000000E+00 0.  1.
         25    2    1    2    0    0  0.64593950529E+02 -0.12895025241E+02  0.43220008787E+03  0.45473437312E+03  0.12509106292E+03 0.  0.
          5    1    3    3  502    0 -0.12882716075E+02  0.42064160044E+02  0.17589390612E+03  0.18136012942E+03  0.41800000000E+01 0.  1.
         -5    1    3    3    0  502  0.77476666604E+02 -0.54959185285E+02  0.25630618175E+03  0.27337424370E+03  0.41800000000E+01 0.  1.
        -11    1    1    2    0    0 -0.24701180073E+02  0.27446575226E+02 -0.29708273792E+02  0.47392450035E+02  0.00000000000E+00 0.  1.
         11    1    1    2    0    0 -0.39892770456E+02 -0.14551549984E+02  0.52892144622E+02  0.67828900215E+02  0.00000000000E+00 0. -1.
</event>
<event>
 7    1  0.2556591E-009  0.6888241E+02  0.7561462E-02  0.1363935E+00
         -1   -1    0    0    0  501 -0.00000000000E+00  0.00000000000E+00  0.91878388077E+02  0.91878388077E+02  0.00000000000E+00 0.  1.
          1   -1    0    0  501    0  0.00000000000E+00 -0.00000000000E+00 -0.14402512837E+03  0.14402512837E+03  0.00000000000E+00 0. -1.
         25    2    1    2    0    0 -0.17215034515E+01 -0.38488924426E+02 -0.18525515055E+02  0.13219283083E+03  0.12508952369E+03 0.  0.
          5    1    3    3  502    0 -0.31728565908E+01 -0.35673560594E+02  0.51005880287E+02  0.62463926936E+02  0.41800000000E+01 0.  1.
         -5    1    3    3    0  502  0.14513531392E+01 -0.28153638321E+01 -0.69531395342E+02  0.69728903890E+02  0.41800000000E+01 0.  1.
        -11    1    1    2    0    0 -0.40799993803E+02  0.35075449029E+02 -0.92881921209E+01  0.54600340034E+02  0.00000000000E+00 0.  1.
         11    1    1    2    0    0  0.42521497255E+02  0.34134753974E+01 -0.24333033119E+02  0.49110345589E+02  0.00000000000E+00 0. -1.
</event>
<event>
 7    1  0.2556591E-009  0.1293375E+03  0.7561462E-02  0.1228442E+00
         -3   -1    0    0    0  501 -0.00000000000E+00  0.00000000000E+00  0.13805973421E+04  0.13805973421E+04  0.00000000000E+00 0.  1.
          3   -1    0    0  501    0  0.00000000000E+00 -0.00000000000E+00 -0.20084146646E+02  0.20084146646E+02  0.00000000000E+00 0. -1.
         25    2    1    2    0    0 -0.89512767134E+02 -0.26780324058E+02  0.10662190274E+04  0.10775898048E+04  0.12508817524E+03 0.  0.
          5    1    3    3  502    0 -0.14253985519E+02 -0.60038096170E+02  0.67281936388E+03  0.67565606480E+03  0.41800000000E+01 0.  1.
         -5    1    3    3    0  502 -0.75258781614E+02  0.33257772112E+02  0.39339966357E+03  0.40193373995E+03  0.41800000000E+01 0.  1.
        -11    1    1    2    0    0  0.87948481737E+02  0.33491948365E+00  0.27893008446E+03  0.29246715991E+03  0.00000000000E+00 0.  1.
         11    1    1    2    0    0  0.15642853970E+01  0.26445404574E+02  0.15364083552E+02  0.30624524083E+02  0.00000000000E+00 0. -1.
</event>
<event>
 7    1  0.2556591E-009  0.1273875E+03  0.7561462E-02  0.1231384E+00
          2   -1    0    0  501    0  0.00000000000E+00  0.00000000000E+00  0.18295986818E+03  0.18295986818E+03  0.00000000000E+00 0. -1.
         -2   -1    0    0    0  501 -0.00000000000E+00 -0.00000000000E+00 -0.18355920914E+03  0.18355920914E+03  0.00000000000E+00 0.  1.
         25    2    1    2    0    0 -0.19131129797E+02 -0.10209973868E+03  0.10404241264E+03  0.19303491812E+03  0.12508916508E+03 0.  0.
          5    1    3    3  502    0  0.18030901830E+02 -0.28752713622E+02 -0.23312343447E+02  0.41385622123E+02  0.41800000000E+01 0. -1.
         -5    1    3    3    0  502 -0.37162031627E+02 -0.73347025059E+02  0.12735475609E+03  0.15164929600E+03  0.41800000000E+01 0. -1.
        -11    1    1    2    0    0  0.32011432503E+02 -0.31946456582E+01 -0.21314905751E+02  0.38590967582E+02  0.00000000000E+00 0. -1.
         11    1    1    2    0    0 -0.12880302706E+02  0.10529438434E+03 -0.83326847852E+02  0.13489319162E+03  0.00000000000E+00 0.  1.
</event>
<event>
 7    1  0.2556591E-009  0.9501352E+02  0.7561462E-02  0.1291146E+00
          2   -1    0    0  501    0  0.00000000000E+00  0.00000000000E+00  0.67507197796E+03  0.67507197796E+03  0.00000000000E+00 0. -1.
         -2   -1    0    0    0  501 -0.00000000000E+00 -0.00000000000E+00 -0.31240694629E+02  0.31240694629E+02  0.00000000000E+00 0.  1.
         25    2    1    2    0    0 -0.81316807773E+02 -0.17745721886E+01  0.47419477142E+03  0.49711440617E+03  0.12508588749E+03 0.  0.
          5    1    3    3  502    0 -0.78650199684E+02  0.19522239824E+02  0.13711836086E+03  0.15932949835E+03  0.41800000000E+01 0.  1.
         -5    1    3    3    0  502 -0.26666080893E+01 -0.21296812012E+02  0.33707641055E+03  0.33778490782E+03  0.41800000000E+01 0.  1.
        -11    1    1    2    0    0  0.24466711862E+02 -0.13774820624E+02  0.14082119579E+03  0.14359308777E+03  0.00000000000E+00 0. -1.
         11    1    1    2    0    0  0.56850095911E+02  0.15549392813E+02  0.28815316127E+02  0.65605178648E+02  0.00000000000E+00 0.  1.
</event>
<event>
 7    1  0.2556591E-009  0.9391270E+02  0.7561462E-02  0.1293644E+00
         -4   -1    0    0    0  501 -0.00000000000E+00  0.00000000000E+00  0.49610290211E+03  0.49610290211E+03  0.00000000000E+00 0.  1.
          4   -1    0    0  501    0  0.00000000000E+00 -0.00000000000E+00 -0.26911222292E+02  0.26911222292E+02  0.00000000000E+00 0. -1.
         25    2    1    2    0    0 -0.49492218329E+01  0.12423316237E+02  0.17359734706E+03  0.21438653955E+03  0.12508683324E+03 0.  0.
          5    1    3    3  502    0  0.42956454384E+02 -0.29603599156E+02  0.12034632106E+03  0.13123391120E+03  0.41800000000E+01 0.  1.
         -5    1    3    3    0  502 -0.47905676217E+02  0.42026915393E+02  0.53251026007E+02  0.83152628353E+02  0.41800000000E+01 0.  1.
        -11    1    1    2    0    0 -0.23018658457E+00  0.29440482338E+02  0.40507669573E+02  0.50076604121E+02  0.00000000000E+00 0. -1.
         11    1    1    2    0    0  0.51794084175E+01 -0.41863798575E+02  0.25508666318E+03  0.25855098072E+03  0.00000000000E+00 0.  1.
</event>
<event>
 7    1  0.2556591E-009  0.3353194E+03  0.7561462E-02  0.1068807E+00
          2   -1    0    0  501    0  0.00000000000E+00  0.00000000000E+00  0.10123057076E+04  0.10123057076E+04  0.00000000000E+00 0. -1.
         -2   -1    0    0    0  501 -0.00000000000E+00 -0.00000000000E+00 -0.11492635402E+03  0.11492635402E+03  0.00000000000E+00 0.  1.
         25    2    1    2    0    0 -0.77132127189E+02 -0.31190971596E+03  0.39893858331E+03  0.52729252691E+03  0.12509348390E+03 0.  0.
          5    1    3    3  502    0 -0.88821894868E+02 -0.31256148774E+03  0.35344099139E+03  0.48012708674E+03  0.41800000000E+01 0.  1.
         -5    1    3    3    0  502  0.11689767680E+02  0.65177177819E+00  0.45497591928E+02  0.47165440166E+02  0.41800000000E+01 0.  1.
        -11    1    1    2    0    0  0.53383573994E+02  0.30333118140E+03  0.44990633502E+03  0.54522960473E+03  0.00000000000E+00 0.  1.
         11    1    1    2    0    0  0.23748553195E+02  0.85785345635E+01  0.48534435271E+02  0.54709930006E+02  0.00000000000E+00 0. -1.
</event>
<event>
 7    1  0.2814530E-009  0.1102600E+03  0.7561462E-02  0.1260089E+00
         -1   -1    0    0    0  501 -0.00000000000E+00  0.00000000000E+00  0.23554123656E+02  0.23554123656E+02  0.00000000000E+00 0.  1.
          1   -1    0    0  501    0  0.00000000000E+00 -0.00000000000E+00 -0.65594411045E+03  0.65594411045E+03  0.00000000000E+00 0. -1.
         25    2    1    2    0    0 -0.39088339681E+02  0.44851551391E+02 -0.38687672082E+03  0.41092632893E+03  0.12508913116E+03 0.  0.
          5    1    3    3  502    0 -0.50645109685E+02  0.70502724404E+02 -0.36455215643E+03  0.37476833970E+03  0.41800000000E+01 0.  1.
         -5    1    3    3    0  502  0.11556770004E+02 -0.25651173013E+02 -0.22324564389E+02  0.36157989228E+02  0.41800000000E+01 0.  1.
        -11    1    1    2    0    0 -0.20684022565E+01 -0.60942886893E+02 -0.17537106944E+03  0.18566993765E+03  0.00000000000E+00 0. -1.
         11    1    1    2    0    0  0.41156741938E+02  0.16091335502E+02 -0.70142196536E+02  0.82901967529E+02  0.00000000000E+00 0.  1.
</event>
<event>
 7    1  0.2556591E-009  0.1147989E+03  0.7561462E-02  0.1251933E+00
         -1   -1    0    0    0  501 -0.00000000000E+00  0.00000000000E+00  0.33233356127E+02  0.33233356127E+02  0.00000000000E+00 0.  1.
          1   -1    0    0  501    0  0.00000000000E+00 -0.00000000000E+00 -0.51635015378E+03  0.51635015378E+03  0.00000000000E+00 0. -1.
         25    2    1    2    0    0 -0.20233877536E+02 -0.68424629378E+02 -0.29251496001E+03  0.32604278033E+03  0.12509017976E+03 0.  0.
          5    1    3    3  502    0 -0.59678601509E+02 -0.71275846561E+02 -0.13764689693E+03  0.16615030068E+03  0.41800000000E+01 0.  1.
         -5    1    3    3    0  502  0.39444723973E+02  0.28512171837E+01 -0.15486806307E+03  0.15989247965E+03  0.41800000000E+01 0.  1.
        -11    1    1    2    0    0  0.36346639958E+02  0.12281970474E+02 -0.14339911037E+03  0.14844268217E+03  0.00000000000E+00 0. -1.
         11    1    1    2    0    0 -0.16112762421E+02  0.56142658904E+02 -0.47202727275E+02  0.75098047404E+02  0.00000000000E+00 0.  1.
</event>
<event>
 7    1  0.2556591E-009  0.9979646E+02  0.7561462E-02  0.1280725E+00
          2   -1    0    0  501    0  0.00000000000E+00  0.00000000000E+00  0.87682201035E+03  0.87682201035E+03  0.00000000000E+00 0. -1.
         -2   -1    0    0    0  501 -0.00000000000E+00 -0.00000000000E+00 -0.15136117283E+02  0.15136117283E+02  0.00000000000E+00 0.  1.
         25    2    1    2    0    0  0.41296148506E+01 -0.20557201223E+02  0.61020861919E+03  0.62325168314E+03  0.12509376226E+03 0.  0.
          5    1    3    3  502    0  0.30256290523E+02  0.34444335252E+02  0.10875568314E+03  0.11809795241E+03  0.41800000000E+01 0.  1.
         -5    1    3    3    0  502 -0.26126675672E+02 -0.55001536475E+02  0.50145293605E+03  0.50515373073E+03  0.41800000000E+01 0.  1.
        -11    1    1    2    0    0  0.42613091623E+02  0.34706060272E+01  0.88257685690E+02  0.98068036420E+02  0.00000000000E+00 0.  1.
         11    1    1    2    0    0 -0.46742706474E+02  0.17086595195E+02  0.16321958819E+03  0.17063840808E+03  0.00000000000E+00 0. -1.
</event>
<event>
 7    1  0.2556591E-009  0.3945360E+02  0.7561462E-02  0.1512271E+00
          2   -1    0    0  501    0  0.00000000000E+00  0.00000000000E+00  0.40915799895E+03  0.40915799895E+03  0.00000000000E+00 0.  1.
         -2   -1    0    0    0  501 -0.00000000000E+00 -0.00000000000E+00 -0.39697456139E+02  0.39697456139E+02  0.00000000000E+00 0. -1.
         25    2    1    2    0    0 -0.55295107363E+01 -0.25925919498E+02  0.31224241282E+03  0.33740986733E+03  0.12508942970E+03 0.  0.
          5    1    3    3  502    0 -0.17629318388E+02 -0.25724991488E+02  0.32058707226E+03  0.32212747687E+03  0.41800000000E+01 0. -1.
         -5    1    3    3    0  502  0.12099807651E+02 -0.20092800959E+00 -0.83446594404E+01  0.15282390469E+02  0.41800000000E+01 0. -1.
        -11    1    1    2    0    0 -0.56739660977E+01  0.22074790277E+02  0.81392971478E+02  0.84523996965E+02  0.00000000000E+00 0.  1.
         11    1    1    2    0    0  0.11203476834E+02  0.38511292208E+01 -0.24174841487E+02  0.26921590785E+02  0.00000000000E+00 0. -1.
</event>
<event>
 7    1  0.2556591E-009  0.9461320E+02  0.7561462E-02  0.1292050E+00
          1   -1    0    0  501    0  0.00000000000E+00  0.00000000000E+00  0.17053985665E+03  0.17053985665E+03  0.00000000000E+00 0. -1.
         -1   -1    0    0    0  501 -0.00000000000E+00 -0.00000000000E+00 -0.96398053871E+02  0.96398053871E+02  0.00000000000E+00 0.  1.
         25    2    1    2    0    0  0.70136047823E+02 -0.20589200058E+02  0.44697032284E+02  0.15162131609E+03  0.12509283926E+03 0.  0.
          5    1    3    3  502    0  0.53449688442E+02 -0.37237973861E+01  0.87394658261E+02  0.10259646463E+03  0.41800000000E+01 0.  1.
         -5    1    3    3    0  502  0.16686359381E+02 -0.16865402672E+02 -0.42697625977E+02  0.49024851461E+02  0.41800000000E+01 0.  1.
        -11    1    1    2    0    0 -0.71476811900E+01 -0.29853315120E+02  0.10309673214E+02  0.32382080412E+02  0.00000000000E+00 0. -1.
         11    1    1    2    0    0 -0.62988366633E+02  0.50442515178E+02  0.19135097285E+02  0.82934514025E+02  0.00000000000E+00 0.  1.
</event>
<event>
 7    1  0.2556591E-009  0.1022903E+03  0.7561462E-02  0.1275552E+00
         -4   -1    0    0    0  501 -0.00000000000E+00  0.00000000000E+00  0.29887445860E+03  0.29887445860E+03  0.00000000000E+00 0.  1.
          4   -1    0    0  501    0  0.00000000000E+00 -0.00000000000E+00 -0.68375183290E+02  0.68375183290E+02  0.00000000000E+00 0. -1.
         25    2    1    2    0    0  0.13280664200E+02 -0.15088435978E+02  0.23790776882E+03  0.26953988463E+03  0.12509039132E+03 0.  0.
          5    1    3    3  502    0 -0.48699003837E+02 -0.35710090709E+02  0.10014291372E+03  0.11701657626E+03  0.41800000000E+01 0.  1.
         -5    1    3    3    0  502  0.61979668037E+02  0.20621654731E+02  0.13776485511E+03  0.15252330837E+03  0.41800000000E+01 0.  1.
        -11    1    1    2    0    0 -0.45194773649E+02  0.79025555897E+01 -0.32715886575E+02  0.56350219028E+02  0.00000000000E+00 0. -1.
         11    1    1    2    0    0  0.31914109449E+02  0.71858803882E+01  0.25307393068E+02  0.41359538233E+02  0.00000000000E+00 0.  1.
</event>
<event>
 7    1  0.2556591E-009  0.1118609E+03  0.7561462E-02  0.1257162E+00
          3   -1    0    0  501    0  0.00000000000E+00  0.00000000000E+00  0.25287881314E+03  0.25287881314E+03  0.00000000000E+00 0. -1.
         -3   -1    0    0    0  501 -0.00000000000E+00 -0.00000000000E+00 -0.65412644019E+02  0.65412644019E+02  0.00000000000E+00 0.  1.
         25    2    1    2    0    0  0.61473558690E+02  0.15884459443E+02  0.11301549909E+03  0.18015204226E+03  0.12510372027E+03 0.  0.
          5    1    3    3  502    0  0.90343156028E+02 -0.17859872049E+02  0.94009328617E+02  0.13166657563E+03  0.41800000000E+01 0. -1.
         -5    1    3    3    0  502 -0.28869597338E+02  0.33744331492E+02  0.19006170473E+02  0.48485466630E+02  0.41800000000E+01 0. -1.
        -11    1    1    2    0    0 -0.61385946748E+02 -0.33081926446E+02  0.88144623124E+01  0.70287574018E+02  0.00000000000E+00 0.  1.
         11    1    1    2    0    0 -0.87611942022E-01  0.17197467003E+02  0.65636207715E+02  0.67851840876E+02  0.00000000000E+00 0. -1.
</event>
<event>
 7    1  0.2556591E-009  0.7770104E+02  0.7561462E-02  0.1335705E+00
         -3   -1    0    0    0  501 -0.00000000000E+00  0.00000000000E+00  0.56096987273E+02  0.56096987273E+02  0.00000000000E+00 0.  1.
          3   -1    0    0  501    0  0.00000000000E+00 -0.00000000000E+00 -0.30971118087E+03  0.30971118087E+03  0.00000000000E+00 0. -1.
         25    2    1    2    0    0 -0.33069074861E+02 -0.63794507384E+02 -0.11279875189E+03  0.18312434295E+03  0.12509062183E+03 0.  0.
          5    1    3    3  502    0 -0.20615035282E+02 -0.38424303008E+01  0.24628093491E+02  0.32615323688E+02  0.41800000000E+01 0.  1.
         -5    1    3    3    0  502 -0.12454039579E+02 -0.59952077083E+02 -0.13742684538E+03  0.15050901926E+03  0.41800000000E+01 0.  1.
        -11    1    1    2    0    0  0.17712286800E+02  0.45088941879E+02 -0.14935871145E+03  0.15701835074E+03  0.00000000000E+00 0. -1.
         11    1    1    2    0    0  0.15356788061E+02  0.18705565505E+02  0.85432697496E+01  0.25665474444E+02  0.00000000000E+00 0.  1.
</event>
<event>
 7    1  0.2556591E-009  0.1114466E+03  0.7561462E-02  0.1257914E+00
          1   -1    0    0  501    0  0.00000000000E+00  0.00000000000E+00  0.28127577623E+03  0.28127577623E+03  0.00000000000E+00 0. -1.
         -1   -1    0    0    0  501 -0.00000000000E+00 -0.00000000000E+00 -0.79361137875E+02  0.79361137875E+02  0.00000000000E+00 0.  1.
         25    2    1    2    0    0 -0.40282534507E+02 -0.46940544639E+02  0.20372461743E+03  0.24693612130E+03  0.12509049099E+03 0.  0.
          5    1    3    3  502    0 -0.78326908383E+02 -0.48364483815E+01  0.14644237176E+03  0.16619668004E+03  0.41800000000E+01 0. -1.
         -5    1    3    3    0  502  0.38044373875E+02 -0.42104096257E+02  0.57282245667E+02  0.80739441253E+02  0.41800000000E+01 0. -1.
        -11    1    1    2    0    0 -0.75943576861E+01 -0.10290721486E+02 -0.31033577139E+02  0.33565698673E+02  0.00000000000E+00 0.  1.
         11    1    1    2    0    0  0.47876892194E+02  0.57231266125E+02  0.29223598063E+02  0.80135094136E+02  0.00000000000E+00 0. -1.
</event>
<event>
 7    1  0.2556591E-009  0.1470285E+03  0.7561462E-02  0.1204173E+00
          1   -1    0    0  501    0  0.00000000000E+00  0.00000000000E+00  0.45456534905E+03  0.45456534905E+03  0.00000000000E+00 0. -1.
         -1   -1    0    0    0  501 -0.00000000000E+00 -0.00000000000E+00 -0.85664221210E+02  0.85664221210E+02  0.00000000000E+00 0.  1.
         25    2    1    2    0    0  0.12356383233E+03  0.70623779939E+02  0.80765499034E+02  0.20597711996E+03  0.12509104348E+03 0.  0.
          5    1    3    3  502    0  0.20399761069E+02  0.38106681548E+02  0.87329212048E+02  0.97530165115E+02  0.41800000000E+01 0.  1.
         -5    1    3    3    0  502  0.10316407126E+03  0.32517098391E+02 -0.65637130148E+01  0.10844695484E+03  0.41800000000E+01 0.  1.
        -11    1    1    2    0    0 -0.71238061563E+02 -0.43084577734E+02  0.25095486296E+03  0.26440401944E+03  0.00000000000E+00 0. -1.
         11    1    1    2    0    0 -0.52325770764E+02 -0.27539202206E+02  0.37180765842E+02  0.69848430854E+02  0.00000000000E+00 0.  1.
</event>
<event>
 7    1  0.2556591E-009  0.2678429E+03  0.7561462E-02  0.1102521E+00
         -1   -1    0    0    0  501 -0.00000000000E+00  0.00000000000E+00  0.81655086255E+02  0.81655086255E+02  0.00000000000E+00 0.  1.
          1   -1    0    0  501    0  0.00000000000E+00 -0.00000000000E+00 -0.96342243464E+03  0.96342243464E+03  0.00000000000E+00 0. -1.
         25    2    1    2    0    0 -0.15720563522E+03 -0.18967579627E+03 -0.59430191645E+03  0.65538762465E+03  0.12509057205E+03 0.  0.
          5    1    3    3  502    0 -0.11316232096E+03 -0.19911202813E+03 -0.52278109438E+03  0.57076164524E+03  0.41800000000E+01 0.  1.
         -5    1    3    3    0  502 -0.44043314262E+02  0.94362318559E+01 -0.71520822066E+02  0.84625979414E+02  0.41800000000E+01 0.  1.
        -11    1    1    2    0    0 -0.16391200210E+01  0.49531266468E+02 -0.73125492894E+02  0.88336689905E+02  0.00000000000E+00 0.  1.
         11    1    1    2    0    0  0.15884475524E+03  0.14014452981E+03 -0.21433993905E+03  0.30135320634E+03  0.00000000000E+00 0. -1.
</event>
<event>
 7    1  0.2556591E-009  0.1539041E+03  0.7561462E-02  0.1195756E+00
         -1   -1    0    0    0  501 -0.00000000000E+00  0.00000000000E+00  0.75994894212E+03  0.75994894212E+03  0.00000000000E+00 0.  1.
          1   -1    0    0  501    0  0.00000000000E+00 -0.00000000000E+00 -0.47560936615E+02  0.47560936615E+02  0.00000000000E+00 0. -1.
         25    2    1    2    0    0 -0.14251586755E+02  0.13508891649E+03  0.19146493415E+03  0.26600812283E+03  0.12509747127E+03 0.  0.
          5    1    3    3  502    0 -0.49151920845E+02  0.95442066155E+02  0.18320529345E+03  0.21238350045E+03  0.41800000000E+01 0.  1.
         -5    1    3    3    0  502  0.34900334090E+02  0.39646850333E+02  0.82596407028E+01  0.53624622380E+02  0.41800000000E+01 0.  1.
        -11    1    1    2    0    0 -0.22285855463E+02 -0.55743355938E+02  0.19117030028E+03  0.20037481078E+03  0.00000000000E+00 0.  1.
         11    1    1    2    0    0  0.36537442217E+02 -0.79345560550E+02  0.32975277107E+03  0.34112694513E+03  0.00000000000E+00 0. -1.
</event>
<event>
 7    1  0.2556591E-009  0.8427784E+02  0.7561462E-02  0.1317332E+00
         -1   -1    0    0    0  501 -0.00000000000E+00  0.00000000000E+00  0.58277085143E+02  0.58277085143E+02  0.00000000000E+00 0.  1.
          1   -1    0    0  501    0  0.00000000000E+00 -0.00000000000E+00 -0.23623073194E+03  0.23623073194E+03  0.00000000000E+00 0. -1.
         25    2    1    2    0    0 -0.31424687999E+02  0.11451383938E+01 -0.64879326374E+02  0.14438156287E+03  0.12509151189E+03 0.  0.
          5    1    3    3  502    0 -0.59036412017E+02  0.31265762929E+02 -0.76544292654E+02  0.10168257969E+03  0.41800000000E+01 0.  1.
         -5    1    3    3    0  502  0.27611724018E+02 -0.30120624535E+02  0.11664966280E+02  0.42698983173E+02  0.41800000000E+01 0.  1.
        -11    1    1    2    0    0  0.35336668981E+02  0.18933662353E+02 -0.12154479537E+03  0.12798555007E+03  0.00000000000E+00 0. -1.
         11    1    1    2    0    0 -0.39119809821E+01 -0.20078800747E+02  0.84704749410E+01  0.22140704153E+02  0.00000000000E+00 0.  1.
</event>
<event>
 7    1  0.2556591E-009  0.9898566E+02  0.7561462E-02  0.1282444E+00
          2   -1    0    0  501    0  0.00000000000E+00  0.00000000000E+00  0.19306247819E+03  0.19306247819E+03  0.00000000000E+00 0. -1.
         -2   -1    0    0    0  501 -0.00000000000E+00 -0.00000000000E+00 -0.87618959406E+02  0.87618959406E+02  0.00000000000E+00 0.  1.
         25    2    1    2    0    0 -0.28293394999E+02 -0.37750796568E+02  0.98973173316E+02  0.16634230888E+03  0.12509370825E+03 0.  0.
          5    1    3    3  502    0 -0.90844615577E+01 -0.69267691535E+02  0.10745925675E+03  0.12824002805E+03  0.41800000000E+01 0.  1.
         -5    1    3    3    0  502 -0.19208933441E+02  0.31516894967E+02 -0.84860834356E+01  0.38102280829E+02  0.41800000000E+01 0.  1.
        -11    1    1    2    0    0  0.45369897999E+02 -0.41834518916E+01 -0.31381175806E+02  0.55323657771E+02  0.00000000000E+00 0.  1.
         11    1    1    2    0    0 -0.17076503000E+02  0.41934248460E+02  0.37851521277E+02  0.59015470951E+02  0.00000000000E+00 0. -1.
</event>
<event>
 7    1  0.2556591E-009  0.1198209E+03  0.7561462E-02  0.1243393E+00
          4   -1    0    0  501    0  0.00000000000E+00  0.00000000000E+00  0.15852691350E+03  0.15852691350E+03  0.00000000000E+00 0. -1.
         -4   -1    0    0    0  501 -0.00000000000E+00 -0.00000000000E+00 -0.14889516311E+03  0.14889516311E+03  0.00000000000E+00 0.  1.
         25    2    1    2    0    0 -0.20430499725E+02  0.75302106044E+02 -0.68991725662E+02  0.16277466220E+03  0.12509164621E+03 0.  0.
          5    1    3    3  502    0 -0.51872605510E+02  0.83472458868E+02 -0.14828040315E+02  0.99477443531E+02  0.41800000000E+01 0.  1.
         -5    1    3    3    0  502  0.31442105785E+02 -0.81703528243E+01 -0.54163685347E+02  0.63297218673E+02  0.41800000000E+01 0.  1.
        -11    1    1    2    0    0 -0.23906488671E+02 -0.54569998946E+02  0.10081339019E+02  0.60423822967E+02  0.00000000000E+00 0.  1.
         11    1    1    2    0    0  0.44336988397E+02 -0.20732107098E+02  0.68542137034E+02  0.84223591434E+02  0.00000000000E+00 0. -1.
</event>
<event>
 7    1  0.2556591E-009  0.1875341E+03  0.7561462E-02  0.1160704E+00
          2   -1    0    0  501    0  0.00000000000E+00  0.00000000000E+00  0.23657414084E+03  0.23657414084E+03  0.00000000000E+00 0. -1.
         -2   -1    0    0    0  501 -0.00000000000E+00 -0.00000000000E+00 -0.20773143990E+03  0.20773143990E+03  0.00000000000E+00 0.  1.
         25    2    1    2    0    0  0.16789420282E+03  0.16748992645E+02  0.11626769447E+03  0.24007335156E+03  0.12509214706E+03 0.  0.
          5    1    3    3  502    0  0.11769979393E+03  0.57632493079E+02  0.34282482625E+02  0.13552677508E+03  0.41800000000E+01 0.  1.
         -5    1    3    3    0  502  0.50194408894E+02 -0.40883500434E+02  0.81985211847E+02  0.10454657648E+03  0.41800000000E+01 0.  1.
        -11    1    1    2    0    0 -0.16163478608E+03 -0.30024476207E+02 -0.92581111237E+02  0.18867574142E+03  0.00000000000E+00 0.  1.
         11    1    1    2    0    0 -0.62594167398E+01  0.13275483562E+02  0.51561177048E+01  0.15556487763E+02  0.00000000000E+00 0. -1.
</event>
<event>
 7    1  0.2556591E-009  0.1450092E+03  0.7561462E-02  0.1206743E+00
          2   -1    0    0  501    0  0.00000000000E+00  0.00000000000E+00  0.34370581224E+03  0.34370581224E+03  0.00000000000E+00 0. -1.
         -2   -1    0    0    0  501 -0.00000000000E+00 -0.00000000000E+00 -0.10783011185E+03  0.10783011185E+03  0.00000000000E+00 0.  1.
         25    2    1    2    0    0  0.13619080754E+03 -0.10085728514E+02  0.28998963363E+02  0.18745177003E+03  0.12509024036E+03 0.  0.
          5    1    3    3  502    0  0.13937568406E+03 -0.76426128787E+01  0.62827897347E+02  0.15313003599E+03  0.41800000000E+01 0.  1.
         -5    1    3    3    0  502 -0.31848765242E+01 -0.24431156356E+01 -0.33828933984E+02  0.34321734032E+02  0.41800000000E+01 0.  1.
        -11    1    1    2    0    0 -0.81310842840E+02 -0.17469269478E+02  0.53545440147E+02  0.98912803519E+02  0.00000000000E+00 0.  1.
         11    1    1    2    0    0 -0.54879964695E+02  0.27554997992E+02  0.15333129688E+03  0.16517135055E+03  0.00000000000E+00 0. -1.
</event>
<event>
 7    1  0.2556591E-009  0.1281111E+03  0.7561462E-02  0.1230286E+00
         -2   -1    0    0    0  501 -0.00000000000E+00  0.00000000000E+00  0.24387679608E+02  0.24387679608E+02  0.00000000000E+00 0. -1.
          2   -1    0    0  501    0  0.00000000000E+00 -0.00000000000E+00 -0.10063980980E+04  0.10063980980E+04  0.00000000000E+00 0.  1.
         25    2    1    2    0    0 -0.10390984244E+03 -0.45306290752E+02 -0.50080383586E+03  0.52849103216E+03  0.12509345995E+03 0.  0.
          5    1    3    3  502    0 -0.94190085831E+02 -0.97439204860E+01 -0.47226233697E+03  0.48168029187E+03  0.41800000000E+01 0.  1.
         -5    1    3    3    0  502 -0.97197566132E+01 -0.35562370266E+02 -0.28541498887E+02  0.46810740288E+02  0.41800000000E+01 0.  1.
        -11    1    1    2    0    0  0.48371454145E+01  0.22042296751E+02 -0.20519004008E+02  0.30500661424E+02  0.00000000000E+00 0. -1.
         11    1    1    2    0    0  0.99072697030E+02  0.23263994001E+02 -0.46068757852E+03  0.47179408402E+03  0.00000000000E+00 0.  1.
</event>
<event>
 7    1  0.2556591E-009  0.2868345E+03  0.7561462E-02  0.1092014E+00
         -2   -1    0    0    0  501 -0.00000000000E+00  0.00000000000E+00  0.69545781041E+02  0.69545781041E+02  0.00000000000E+00 0.  1.
          2   -1    0    0  501    0  0.00000000000E+00 -0.00000000000E+00 -0.16530704585E+04  0.16530704585E+04  0.00000000000E+00 0. -1.
         25    2    1    2    0    0  0.28377742410E+03 -0.30528303147E+02 -0.11783739240E+04  0.12188823738E+04  0.12509009908E+03 0.  0.
          5    1    3    3  502    0  0.27900634468E+03 -0.33760865523E+02 -0.11787065012E+04  0.12117552660E+04  0.41800000000E+01 0. -1.
         -5    1    3    3    0  502  0.47710794288E+01  0.32325623765E+01  0.33257721518E+00  0.71271078312E+01  0.41800000000E+01 0. -1.
        -11    1    1    2    0    0 -0.17050498792E+03  0.21278275766E+02 -0.16582474407E+03  0.23879397327E+03  0.00000000000E+00 0.  1.
         11    1    1    2    0    0 -0.11327243619E+03  0.92500273801E+01 -0.23932600940E+03  0.26493989240E+03  0.00000000000E+00 0. -1.
</event>
<event>
 7    1  0.2556591E-009  0.1034453E+03  0.7561462E-02  0.1273213E+00
         -2   -1    0    0    0  501 -0.00000000000E+00  0.00000000000E+00  0.12611879116E+03  0.12611879116E+03  0.00000000000E+00 0.  1.
          2   -1    0    0  501    0  0.00000000000E+00 -0.00000000000E+00 -0.12273294458E+03  0.12273294458E+03  0.00000000000E+00 0. -1.
         25    2    1    2    0    0 -0.92900248679E+01 -0.63000692192E+02  0.11492225488E+02  0.14083406924E+03  0.12508705781E+03 0.  0.
          5    1    3    3  502    0 -0.49387357971E+02 -0.15328147600E+02 -0.35352837652E+02  0.62780241846E+02  0.41800000000E+01 0. -1.
         -5    1    3    3    0  502  0.40097333104E+02 -0.47672544592E+02  0.46845063139E+02  0.78053827391E+02  0.41800000000E+01 0. -1.
        -11    1    1    2    0    0 -0.17491744764E+02  0.63424232746E+02 -0.31048563089E+02  0.72750310681E+02  0.00000000000E+00 0. -1.
         11    1    1    2    0    0  0.26781769632E+02 -0.42354055364E+00  0.22942184183E+02  0.35267355817E+02  0.00000000000E+00 0.  1.
</event>
<event>
 7    1  0.2556591E-009  0.1277483E+03  0.7561462E-02  0.1230836E+00
          1   -1    0    0  501    0  0.00000000000E+00  0.00000000000E+00  0.76045589280E+02  0.76045589280E+02  0.00000000000E+00 0. -1.
         -1   -1    0    0    0  501 -0.00000000000E+00 -0.00000000000E+00 -0.49133550625E+03  0.49133550625E+03  0.00000000000E+00 0.  1.
         25    2    1    2    0    0  0.90099109112E+02 -0.55840950591E+02 -0.38641788816E+03  0.41976480292E+03  0.12509054424E+03 0.  0.
          5    1    3    3  502    0 -0.73983544349E+01  0.22317362649E+02 -0.15410555719E+03  0.15594484756E+03  0.41800000000E+01 0. -1.
         -5    1    3    3    0  502  0.97497463547E+02 -0.78158313241E+02 -0.23231233097E+03  0.26381995536E+03  0.41800000000E+01 0. -1.
        -11    1    1    2    0    0 -0.26381998063E+02  0.10543395913E+02  0.36117903534E+02  0.45952975691E+02  0.00000000000E+00 0. -1.
         11    1    1    2    0    0 -0.63717111049E+02  0.45297554678E+02 -0.64989932343E+02  0.10166331692E+03  0.00000000000E+00 0.  1.
</event>
<event>
 7    1  0.2556591E-009  0.1188181E+03  0.7561462E-02  0.1245060E+00
         -1   -1    0    0    0  501 -0.00000000000E+00  0.00000000000E+00  0.28323165949E+03  0.28323165949E+03  0.00000000000E+00 0.  1.
          1   -1    0    0  501    0  0.00000000000E+00 -0.00000000000E+00 -0.55089688940E+02  0.55089688940E+02  0.00000000000E+00 0. -1.
         25    2    1    2    0    0  0.31293778189E+02 -0.52501930775E+02  0.11119787939E+03  0.17818028363E+03  0.12508993487E+03 0.  0.
          5    1    3    3  502    0  0.72326062281E+02 -0.95732342647E+01  0.33743225239E+02  0.80490892336E+02  0.41800000000E+01 0. -1.
         -5    1    3    3    0  502 -0.41032284093E+02 -0.42928696510E+02  0.77454654148E+02  0.97689391293E+02  0.41800000000E+01 0. -1.
        -11    1    1    2    0    0 -0.61081666255E+02  0.37519497739E+02  0.99141409193E+02  0.12234255874E+03  0.00000000000E+00 0. -1.
         11    1    1    2    0    0  0.29787888066E+02  0.14982433036E+02  0.17802681974E+02  0.37798506063E+02  0.00000000000E+00 0.  1.
</event>
<event>
 7    1  0.2556591E-009  0.7443559E+02  0.7561462E-02  0.1345628E+00
         -2   -1    0    0    0  501 -0.00000000000E+00  0.00000000000E+00  0.30172815281E+02  0.30172815281E+02  0.00000000000E+00 0.  1.
          2   -1    0    0  501    0  0.00000000000E+00 -0.00000000000E+00 -0.68429888392E+03  0.68429888392E+03  0.00000000000E+00 0. -1.
         25    2    1    2    0    0 -0.15628276843E+02  0.28081429680E+02 -0.57348130886E+03  0.58784416341E+03  0.12508852514E+03 0.  0.
          5    1    3    3  502    0 -0.16986008794E+02  0.41568678389E+02 -0.57178157677E+03  0.57355742820E+03  0.41800000000E+01 0.  1.
         -5    1    3    3    0  502  0.13577319513E+01 -0.13487248709E+02 -0.16997320911E+01  0.14286735211E+02  0.41800000000E+01 0.  1.
        -11    1    1    2    0    0  0.17390491274E+02  0.28279122674E+02 -0.70923807758E+01  0.33947604202E+02  0.00000000000E+00 0.  1.
         11    1    1    2    0    0 -0.17622144312E+01 -0.56360552354E+02 -0.73552379006E+02  0.92679931586E+02  0.00000000000E+00 0. -1.
</event>
<event>
 7    1  0.2556591E-009  0.1835955E+03  0.7561462E-02  0.1164368E+00
         -1   -1    0    0    0  501 -0.00000000000E+00  0.00000000000E+00  0.16847082564E+03  0.16847082564E+03  0.00000000000E+00 0.  1.
          1   -1    0    0  501    0  0.00000000000E+00 -0.00000000000E+00 -0.23708867948E+03  0.23708867948E+03  0.00000000000E+00 0. -1.
         25    2    1    2    0    0 -0.12124730038E+03 -0.10571263697E+03  0.11799709888E+02  0.20411592209E+03  0.12509199427E+03 0.  0.
          5    1    3    3  502    0 -0.13707640685E+03 -0.93386174192E+02 -0.19126897210E+02  0.16701565628E+03  0.41800000000E+01 0. -1.
         -5    1    3    3    0  502  0.15829106473E+02 -0.12326462779E+02  0.30926607097E+02  0.37100265806E+02  0.41800000000E+01 0. -1.
        -11    1    1    2    0    0 -0.68807646744E+01  0.32480345684E+02  0.36041186030E+00  0.33203127488E+02  0.00000000000E+00 0.  1.
         11    1    1    2    0    0  0.12812806505E+03  0.73232291287E+02 -0.80777975593E+02  0.16824045555E+03  0.00000000000E+00 0. -1.
</event>
<event>
 7    1  0.2556591E-009  0.7978537E+02  0.7561462E-02  0.1329662E+00
          1   -1    0    0  501    0  0.00000000000E+00  0.00000000000E+00  0.25724828702E+03  0.25724828702E+03  0.00000000000E+00 0. -1.
         -1   -1    0    0    0  501 -0.00000000000E+00 -0.00000000000E+00 -0.48774953199E+02  0.48774953199E+02  0.00000000000E+00 0.  1.
         25    2    1    2    0    0 -0.19338006863E+01 -0.26978305033E+02  0.12864264760E+03  0.18146062290E+03  0.12508980115E+03 0.  0.
          5    1    3    3  502    0  0.46414743486E+02 -0.27865472537E+02  0.12060270323E+03  0.13226222968E+03  0.41800000000E+01 0.  1.
         -5    1    3    3    0  502 -0.48348544172E+02  0.88716750374E+00  0.80399443701E+01  0.49198393218E+02  0.41800000000E+01 0.  1.
        -11    1    1    2    0    0 -0.12208803061E+02  0.37286882611E+02 -0.35219693987E+01  0.39392521567E+02  0.00000000000E+00 0.  1.
         11    1    1    2    0    0  0.14142603747E+02 -0.10308577577E+02  0.83352655612E+02  0.85170095749E+02  0.00000000000E+00 0. -1.
</event>
<event>
 7    1  0.2556591E-009  0.6361807E+02  0.7561462E-02  0.1383246E+00
         -2   -1    0    0    0  501 -0.00000000000E+00  0.00000000000E+00  0.10987934682E+03  0.10987934682E+03  0.00000000000E+00 0.  1.
          2   -1    0    0  501    0  0.00000000000E+00 -0.00000000000E+00 -0.11316817663E+03  0.11316817663E+03  0.00000000000E+00 0. -1.
         25    2    1    2    0    0  0.10432373787E+02 -0.20584845567E+02  0.69285720275E+01  0.12738985036E+03  0.12509036163E+03 0.  0.
          5    1    3    3  502    0 -0.23843341051E+02  0.24725929284E+01 -0.50772901238E+02  0.56302562361E+02  0.41800000000E+01 0. -1.
         -5    1    3    3    0  502  0.34275714839E+02 -0.23057438495E+02  0.57701473266E+02  0.71087287996E+02  0.41800000000E+01 0. -1.
        -11    1    1    2    0    0  0.15405800227E+02 -0.12191935429E+02 -0.39878302644E+02  0.44455157090E+02  0.00000000000E+00 0. -1.
         11    1    1    2    0    0 -0.25838174014E+02  0.32776780996E+02  0.29660900808E+02  0.51202516008E+02  0.00000000000E+00 0.  1.
</event>
<event>
 7    1  0.2556591E-009  0.1227961E+03  0.7561462E-02  0.1238554E+00
         -2   -1    0    0    0  501 -0.00000000000E+00  0.00000000000E+00  0.27625566802E+02  0.27625566802E+02  0.00000000000E+00 0.  1.
          2   -1    0    0  501    0  0.00000000000E+00 -0.00000000000E+00 -0.89057430415E+03  0.89057430415E+03  0.00000000000E+00 0. -1.
         25    2    1    2    0    0 -0.62751478904E+02  0.58494946791E+02 -0.67723020246E+03  0.69400957873E+03  0.12509652811E+03 0.  0.
          5    1    3    3  502    0 -0.88034286960E+02  0.76709786230E+02 -0.58539888162E+03  0.59694534925E+03  0.41800000000E+01 0.  1.
         -5    1    3    3    0  502  0.25282808056E+02 -0.18214839439E+02 -0.91831320836E+02  0.97064229484E+02  0.41800000000E+01 0.  1.
        -11    1    1    2    0    0  0.20955717213E+02  0.47650041041E+01  0.21509099538E+01  0.21598003650E+02  0.00000000000E+00 0.  1.
         11    1    1    2    0    0  0.41795761691E+02 -0.63259950895E+02 -0.18786944485E+03  0.20259228858E+03  0.00000000000E+00 0. -1.
</event>
<event>
 7    1  0.2556591E-009  0.1124859E+03  0.7561462E-02  0.1256034E+00
          2   -1    0    0  501    0  0.00000000000E+00  0.00000000000E+00  0.12196558102E+04  0.12196558102E+04  0.00000000000E+00 0. -1.
         -2   -1    0    0    0  501 -0.00000000000E+00 -0.00000000000E+00 -0.14056258025E+02  0.14056258025E+02  0.00000000000E+00 0.  1.
         25    2    1    2    0    0 -0.65361938552E+02 -0.22570944698E+02  0.66314856279E+03  0.67837655856E+03  0.12508840204E+03 0.  0.
          5    1    3    3  502    0 -0.54176082236E+01 -0.46961512736E+02  0.91630595196E+02  0.10319095180E+03  0.41800000000E+01 0. -1.
         -5    1    3    3    0  502 -0.59944330328E+02  0.24390568038E+02  0.57151796759E+03  0.57518560676E+03  0.41800000000E+01 0. -1.
        -11    1    1    2    0    0  0.68325980814E+02  0.50257099517E+02  0.47238807696E+03  0.47994240379E+03  0.00000000000E+00 0. -1.
         11    1    1    2    0    0 -0.29640422615E+01 -0.27686154819E+02  0.70062912482E+02  0.75393105922E+02  0.00000000000E+00 0.  1.
</event>
<event>
 7    1  0.2556591E-009  0.1364106E+03  0.7561462E-02  0.1218242E+00
          1   -1    0    0  501    0  0.00000000000E+00  0.00000000000E+00  0.27221928357E+02  0.27221928357E+02  0.00000000000E+00 0. -1.
         -1   -1    0    0    0  501 -0.00000000000E+00 -0.00000000000E+00 -0.75139444685E+03  0.75139444685E+03  0.00000000000E+00 0.  1.
         25    2    1    2    0    0 -0.56934516710E+02 -0.64268035257E+02 -0.49153063115E+03  0.51441419928E+03  0.12509071715E+03 0.  0.
          5    1    3    3  502    0 -0.94975453209E+02 -0.44246062510E+02 -0.39462706297E+03  0.40832100361E+03  0.41800000000E+01 0. -1.
         -5    1    3    3    0  502  0.38040936500E+02 -0.20021972747E+02 -0.96903568182E+02  0.10609319568E+03  0.41800000000E+01 0. -1.
        -11    1    1    2    0    0  0.25530531210E+02  0.83924645292E+02 -0.17347101845E+03  0.19438968170E+03  0.00000000000E+00 0.  1.
         11    1    1    2    0    0  0.31403985500E+02 -0.19656610035E+02 -0.59170868893E+02  0.69812494217E+02  0.00000000000E+00 0. -1.
</event>
<event>
 7    1  0.2556591E-009  0.1120634E+03  0.7561462E-02  0.1256796E+00
         -2   -1    0    0    0  501 -0.00000000000E+00  0.00000000000E+00  0.26690804491E+02  0.26690804491E+02  0.00000000000E+00 0.  1.
          2   -1    0    0  501    0  0.00000000000E+00 -0.00000000000E+00 -0.49145532035E+03  0.49145532035E+03  0.00000000000E+00 0. -1.
         25    2    1    2    0    0 -0.99916542797E+01  0.39968991762E+02 -0.26491985360E+03  0.29585003220E+03  0.12508940508E+03 0.  0.
          5    1    3    3  502    0  0.54807571582E+02  0.29805171866E+02 -0.16294209780E+03  0.17452741277E+03  0.41800000000E+01 0. -1.
         -5    1    3    3    0  502 -0.64799225861E+02  0.10163819895E+02 -0.10197775579E+03  0.12132261942E+03  0.41800000000E+01 0. -1.
        -11    1    1    2    0    0  0.71800517977E+01  0.27462016918E+02 -0.78068040816E+02  0.83068252142E+02  0.00000000000E+00 0.  1.
         11    1    1    2    0    0  0.28116024820E+01 -0.67431008679E+02 -0.12177662144E+03  0.13922784050E+03  0.00000000000E+00 0. -1.
</event>
<event>
 7    1  0.2556591E-009  0.9958579E+02  0.7561462E-02  0.1281169E+00
         -1   -1    0    0    0  501 -0.00000000000E+00  0.00000000000E+00  0.11813073861E+02  0.11813073861E+02  0.00000000000E+00 0.  1.
          1   -1    0    0  501    0  0.00000000000E+00 -0.00000000000E+00 -0.14070268653E+04  0.14070268653E+04  0.00000000000E+00 0. -1.
         25    2    1    2    0    0 -0.84810898874E+01  0.28009745886E+02 -0.11314396684E+04  0.11387100219E+04  0.12509322990E+03 0.  0.
          5    1    3    3  502    0 -0.39827382391E+02 -0.28446465532E+02 -0.76689991617E+03  0.76847145400E+03  0.41800000000E+01 0.  1.
         -5    1    3    3    0  502  0.31346292504E+02  0.56456211418E+02 -0.36453975220E+03  0.37023856795E+03  0.41800000000E+01 0.  1.
        -11    1    1    2    0    0  0.38252098960E+02  0.75225177582E+01 -0.63102285700E+02  0.74173511504E+02  0.00000000000E+00 0.  1.
         11    1    1    2    0    0 -0.29771009072E+02 -0.35532263644E+02 -0.20067183741E+03  0.20595640575E+03  0.00000000000E+00 0. -1.
</event>
<event>
 7    1  0.2556591E-009  0.1871160E+03  0.7561462E-02  0.1161089E+00
         -3   -1    0    0    0  501 -0.00000000000E+00  0.00000000000E+00  0.56416239086E+03  0.56416239086E+03  0.00000000000E+00 0.  1.
          3   -1    0    0  501    0  0.00000000000E+00 -0.00000000000E+00 -0.80387226299E+02  0.80387226299E+02  0.00000000000E+00 0. -1.
         25    2    1    2    0    0  0.98387746088E+01 -0.16648391652E+03  0.35168177901E+03  0.40882888619E+03  0.12508912242E+03 0.  0.
          5    1    3    3  502    0  0.15876488749E+02 -0.18354233991E+03  0.28321259157E+03  0.33788562837E+03  0.41800000000E+01 0. -1.
         -5    1    3    3    0  502 -0.60377141397E+01  0.17058423396E+02  0.68469187439E+02  0.70943257814E+02  0.41800000000E+01 0. -1.
        -11    1    1    2    0    0 -0.13141086460E+02  0.15315776517E+02 -0.14711303596E+02  0.24973658466E+02  0.00000000000E+00 0. -1.
         11    1    1    2    0    0  0.33023118515E+01  0.15116814000E+03  0.14680468915E+03  0.21074707251E+03  0.00000000000E+00 0.  1.
</event>
<event>
 7    1  0.2556591E-009  0.1291043E+03  0.7561462E-02  0.1228791E+00
         -1   -1    0    0    0  501 -0.00000000000E+00  0.00000000000E+00  0.13340622135E+02  0.13340622135E+02  0.00000000000E+00 0.  1.
          1   -1    0    0  501    0  0.00000000000E+00 -0.00000000000E+00 -0.19371438235E+04  0.19371438235E+04  0.00000000000E+00 0. -1.
         25    2    1    2    0    0  0.15881342385E+02 -0.11130270531E+03 -0.12657281561E+04  0.12768537394E+04  0.12508875772E+03 0.  0.
          5    1    3    3  502    0 -0.10756139969E+02 -0.33291552909E+02 -0.94559553363E+03  0.94625176758E+03  0.41800000000E+01 0.  1.
         -5    1    3    3    0  502  0.26637482354E+02 -0.78011152404E+02 -0.32013262248E+03  0.33060197178E+03  0.41800000000E+01 0.  1.
        -11    1    1    2    0    0 -0.49274987041E+02  0.83620138034E+02 -0.51722999375E+03  0.52625774889E+03  0.00000000000E+00 0. -1.
         11    1    1    2    0    0  0.33393644656E+02  0.27682567278E+02 -0.14084505156E+03  0.14737295743E+03  0.00000000000E+00 0.  1.
</event>
<event>
 7    1  0.2556591E-009  0.7356991E+02  0.7561462E-02  0.1348358E+00
          1   -1    0    0  501    0  0.00000000000E+00  0.00000000000E+00  0.36521219958E+02  0.36521219958E+02  0.00000000000E+00 0. -1.
         -1   -1    0    0    0  501 -0.00000000000E+00 -0.00000000000E+00 -0.49118910130E+03  0.49118910130E+03  0.00000000000E+00 0.  1.
         25    2    1    2    0    0 -0.48810282402E+02 -0.47300417892E+02 -0.17608757429E+03  0.22643858742E+03  0.12509127408E+03 0.  0.
          5    1    3    3  502    0 -0.23630961398E+02 -0.31798006829E+02 -0.18954308981E+03  0.19368425560E+03  0.41800000000E+01 0.  1.
         -5    1    3    3    0  502 -0.25179321004E+02 -0.15502411064E+02  0.13455515514E+02  0.32754331817E+02  0.41800000000E+01 0.  1.
        -11    1    1    2    0    0  0.37522955962E+02  0.52886516302E+02 -0.28105350050E+03  0.28843721323E+03  0.00000000000E+00 0.  1.
         11    1    1    2    0    0  0.11287326439E+02 -0.55860984098E+01  0.24731934473E+01  0.12834520615E+02  0.00000000000E+00 0. -1.
</event>
<event>
 7    1  0.2556591E-009  0.8886252E+02  0.7561462E-02  0.1305630E+00
         -2   -1    0    0    0  501 -0.00000000000E+00  0.00000000000E+00  0.16877309296E+03  0.16877309296E+03  0.00000000000E+00 0.  1.
          2   -1    0    0  501    0  0.00000000000E+00 -0.00000000000E+00 -0.11408443072E+03  0.11408443072E+03  0.00000000000E+00 0. -1.
         25    2    1    2    0    0 -0.25669420660E+02  0.19705278735E+02 -0.52295203129E+02  0.13938916945E+03  0.12508930859E+03 0.  0.
          5    1    3    3  502    0 -0.45409831268E+02 -0.43395191492E+02 -0.24636882787E+02  0.67599140629E+02  0.41800000000E+01 0. -1.
         -5    1    3    3    0  502  0.19740410608E+02  0.63100470227E+02 -0.27658320342E+02  0.71790028820E+02  0.41800000000E+01 0. -1.
        -11    1    1    2    0    0 -0.98132338322E+00 -0.21774076406E+02 -0.96308921195E+01  0.23829130952E+02  0.00000000000E+00 0. -1.
         11    1    1    2    0    0  0.26650744043E+02  0.20687976713E+01  0.11661475749E+03  0.11963922327E+03  0.00000000000E+00 0.  1.
</event>
<event>
 7    1  0.2556591E-009  0.1496530E+03  0.7561462E-02  0.1200900E+00
         -2   -1    0    0    0  501 -0.00000000000E+00  0.00000000000E+00  0.63077798339E+02  0.63077798339E+02  0.00000000000E+00 0.  1.
          2   -1    0    0  501    0  0.00000000000E+00 -0.00000000000E+00 -0.39764658577E+03  0.39764658577E+03  0.00000000000E+00 0. -1.
         25    2    1    2    0    0 -0.26490113480E+02 -0.11156752182E+03 -0.15789926071E+03  0.23179309596E+03  0.12508726860E+03 0.  0.
          5    1    3    3  502    0  0.23605308871E+02 -0.99057605661E+02 -0.53170787855E+02  0.11495314231E+03  0.41800000000E+01 0.  1.
         -5    1    3    3    0  502 -0.50095422351E+02 -0.12509916161E+02 -0.10472847286E+03  0.11683995365E+03  0.41800000000E+01 0.  1.
        -11    1    1    2    0    0  0.59770323385E+02  0.64434505762E+02 -0.10554981056E+03  0.13735013505E+03  0.00000000000E+00 0.  1.
         11    1    1    2    0    0 -0.33280209905E+02  0.47133016060E+02 -0.71119716159E+02  0.91581153087E+02  0.00000000000E+00 0. -1.
</event>
<event>
 7    1  0.2556591E-009  0.7892047E+02  0.7561462E-02  0.1332143E+00
          2   -1    0    0  501    0  0.00000000000E+00  0.00000000000E+00  0.95546727249E+03  0.95546727249E+03  0.00000000000E+00 0.  1.
         -2   -1    0    0    0  501 -0.00000000000E+00 -0.00000000000E+00 -0.16683085646E+02  0.16683085646E+02  0.00000000000E+00 0. -1.
         25    2    1    2    0    0 -0.11099433766E+02  0.48325947357E+02  0.68028023590E+03  0.69346049243E+03  0.12509060953E+03 0.  0.
          5    1    3    3  502    0 -0.23384513337E+02  0.18932854227E+02  0.31058290922E+02  0.43443966994E+02  0.41800000000E+01 0. -1.
         -5    1    3    3    0  502  0.12285079571E+02  0.29393093130E+02  0.64922194498E+03  0.65001652544E+03  0.41800000000E+01 0. -1.
        -11    1    1    2    0    0 -0.62159789519E+00  0.23021533090E+02  0.23871998427E+02  0.33170011737E+02  0.00000000000E+00 0. -1.
         11    1    1    2    0    0  0.11721031662E+02 -0.71347480447E+02  0.23463195252E+03  0.24551985397E+03  0.00000000000E+00 0.  1.
</event>
<event>
 7    1  0.2556591E-009  0.8253601E+02  0.7561462E-02  0.1322005E+00
          1   -1    0    0  501    0  0.00000000000E+00  0.00000000000E+00  0.24920263437E+03  0.24920263437E+03  0.00000000000E+00 0. -1.
         -1   -1    0    0    0  501 -0.00000000000E+00 -0.00000000000E+00 -0.70061028592E+02  0.70061028592E+02  0.00000000000E+00 0.  1.
         25    2    1    2    0    0 -0.37234608083E+02  0.51925693141E+02  0.15047074160E+03  0.20584452814E+03  0.12509129482E+03 0.  0.
          5    1    3    3  502    0 -0.52770683154E+02  0.37917957961E+02  0.12587257357E+02  0.66320645234E+02  0.41800000000E+01 0. -1.
         -5    1    3    3    0  502  0.15536075070E+02  0.14007735180E+02  0.13788348424E+03  0.13952388290E+03  0.41800000000E+01 0. -1.
        -11    1    1    2    0    0  0.47673489035E+02 -0.47463326884E+02  0.53607985358E+02  0.86019445765E+02  0.00000000000E+00 0. -1.
         11    1    1    2    0    0 -0.10438880952E+02 -0.44623662577E+01 -0.24937121177E+02  0.27399689063E+02  0.00000000000E+00 0.  1.
</event>
<event>
 7    1  0.2556591E-009  0.1394169E+03  0.7561462E-02  0.1214116E+00
         -1   -1    0    0    0  501 -0.00000000000E+00  0.00000000000E+00  0.14947370597E+03  0.14947370597E+03  0.00000000000E+00 0. -1.
          1   -1    0    0  501    0  0.00000000000E+00 -0.00000000000E+00 -0.31248327270E+03  0.31248327270E+03  0.00000000000E+00 0.  1.
         25    2    1    2    0    0  0.47667044708E+02  0.10271318846E+03 -0.23923818646E+03  0.29275233552E+03  0.12508746484E+03 0.  0.
          5    1    3    3  502    0  0.48972490565E+02  0.12259906058E+03 -0.14417131284E+03  0.19552921606E+03  0.41800000000E+01 0. -1.
         -5    1    3    3    0  502 -0.13054458571E+01 -0.19885872119E+02 -0.95066873621E+02  0.97223119467E+02  0.41800000000E+01 0. -1.
        -11    1    1    2    0    0 -0.37706054494E+01 -0.73638382456E+02  0.88449700888E+02  0.11515284809E+03  0.00000000000E+00 0. -1.
         11    1    1    2    0    0 -0.43896439259E+02 -0.29074806005E+02 -0.12221081167E+02  0.54051795055E+02  0.00000000000E+00 0.  1.
</event>
<event>
 7    1  0.2556591E-009  0.1782378E+03  0.7561462E-02  0.1169519E+00
          1   -1    0    0  501    0  0.00000000000E+00  0.00000000000E+00  0.75864645565E+03  0.75864645565E+03  0.00000000000E+00 0. -1.
         -1   -1    0    0    0  501 -0.00000000000E+00 -0.00000000000E+00 -0.44305049146E+02  0.44305049146E+02  0.00000000000E+00 0.  1.
         25    2    1    2    0    0  0.14677379722E+03 -0.13219385013E+02  0.37984622474E+03  0.42620625887E+03  0.12510523953E+03 0.  0.
          5    1    3    3  502    0  0.53724486287E+02 -0.58528029491E+02  0.99869844288E+02  0.12768441119E+03  0.41800000000E+01 0. -1.
         -5    1    3    3    0  502  0.93049310934E+02  0.45308644478E+02  0.27997638045E+03  0.29852184768E+03  0.41800000000E+01 0. -1.
        -11    1    1    2    0    0  0.35598642282E+01 -0.19219457834E+02  0.36504033201E+02  0.41407784687E+02  0.00000000000E+00 0.  1.
         11    1    1    2    0    0 -0.15033366145E+03  0.32438842847E+02  0.29799114856E+03  0.33533746124E+03  0.00000000000E+00 0. -1.
</event>
<event>
 7    1  0.2556591E-009  0.1850495E+03  0.7561462E-02  0.1163004E+00
         -2   -1    0    0    0  501 -0.00000000000E+00  0.00000000000E+00  0.31391725508E+03  0.31391725508E+03  0.00000000000E+00 0.  1.
          2   -1    0    0  501    0  0.00000000000E+00 -0.00000000000E+00 -0.16894640971E+03  0.16894640971E+03  0.00000000000E+00 0. -1.
         25    2    1    2    0    0  0.15607321695E+03  0.92473934166E+02 -0.19894709212E+02  0.22125503736E+03  0.12509082521E+03 0.  0.
          5    1    3    3  502    0  0.13193501647E+03  0.83566647791E+02  0.35341512050E+02  0.16017717711E+03  0.41800000000E+01 0. -1.
         -5    1    3    3    0  502  0.24138200485E+02  0.89072863753E+01 -0.55236221263E+02  0.61077860249E+02  0.41800000000E+01 0. -1.
        -11    1    1    2    0    0  0.87602135092E-01 -0.12232181514E+02  0.50768126704E+02  0.52221036257E+02  0.00000000000E+00 0.  1.
         11    1    1    2    0    0 -0.15616081909E+03 -0.80241752652E+02  0.11409742788E+03  0.20938759117E+03  0.00000000000E+00 0. -1.
</event>
<event>
 7    1  0.2556591E-009  0.7149190E+02  0.7561462E-02  0.1355092E+00
          2   -1    0    0  501    0  0.00000000000E+00  0.00000000000E+00  0.17889090995E+03  0.17889090995E+03  0.00000000000E+00 0. -1.
         -2   -1    0    0    0  501 -0.00000000000E+00 -0.00000000000E+00 -0.74440664386E+02  0.74440664386E+02  0.00000000000E+00 0.  1.
         25    2    1    2    0    0 -0.60080008527E+01 -0.34798180486E+02  0.79185166035E+02  0.15219247200E+03  0.12508096807E+03 0.  0.
          5    1    3    3  502    0 -0.29413454782E+02 -0.30057724763E+02  0.10714904405E+03  0.11518249945E+03  0.41800000000E+01 0.  1.
         -5    1    3    3    0  502  0.23405453929E+02 -0.47404557229E+01 -0.27963878013E+02  0.37009972543E+02  0.41800000000E+01 0.  1.
        -11    1    1    2    0    0  0.16772891136E+02  0.52856765227E+02  0.45671402599E+02  0.71840410096E+02  0.00000000000E+00 0. -1.
         11    1    1    2    0    0 -0.10764890284E+02 -0.18058584741E+02 -0.20406323072E+02  0.29298692240E+02  0.00000000000E+00 0.  1.
</event>
<event>
 7    1  0.2556591E-009  0.8688561E+02  0.7561462E-02  0.1310574E+00
          2   -1    0    0  501    0  0.00000000000E+00  0.00000000000E+00  0.28784236604E+03  0.28784236604E+03  0.00000000000E+00 0. -1.
         -2   -1    0    0    0  501 -0.00000000000E+00 -0.00000000000E+00 -0.53891173340E+02  0.53891173340E+02  0.00000000000E+00 0.  1.
         25    2    1    2    0    0 -0.51963348861E+02 -0.20912950734E+02  0.99006085627E+02  0.16907884376E+03  0.12509160356E+03 0.  0.
          5    1    3    3  502    0 -0.19707157245E+02  0.22153808818E+02  0.10999864101E+03  0.11400147681E+03  0.41800000000E+01 0.  1.
         -5    1    3    3    0  502 -0.32256191616E+02 -0.43066759552E+02 -0.10992555379E+02  0.55077366945E+02  0.41800000000E+01 0.  1.
        -11    1    1    2    0    0 -0.27030702809E+01  0.33624704036E+02  0.92192745336E+01  0.34970306452E+02  0.00000000000E+00 0. -1.
         11    1    1    2    0    0  0.54666419142E+02 -0.12711753302E+02  0.12572583254E+03  0.13768438917E+03  0.00000000000E+00 0.  1.
</event>
<event>
 7    1  0.2556591E-009  0.1037535E+03  0.7561462E-02  0.1272595E+00
          3   -1    0    0  501    0  0.00000000000E+00  0.00000000000E+00  0.67538086372E+02  0.67538086372E+02  0.00000000000E+00 0. -1.
         -3   -1    0    0    0  501 -0.00000000000E+00 -0.00000000000E+00 -0.19929876824E+03  0.19929876824E+03  0.00000000000E+00 0.  1.
         25    2    1    2    0    0  0.19401970766E+01 -0.60113336333E+01 -0.32763091756E+02  0.12946307211E+03  0.12508943345E+03 0.  0.
          5    1    3    3  502    0  0.39195091178E+02 -0.50480855152E+02 -0.31288786846E+02  0.71281361461E+02  0.41800000000E+01 0.  1.
         -5    1    3    3    0  502 -0.37254894102E+02  0.44469521519E+02 -0.14743049094E+01  0.58181710645E+02  0.41800000000E+01 0.  1.
        -11    1    1    2    0    0  0.23452684736E+02  0.37877605233E+02 -0.81804041464E+02  0.93148497569E+02  0.00000000000E+00 0.  1.
         11    1    1    2    0    0 -0.25392881813E+02 -0.31866271600E+02 -0.17193548643E+02  0.44225284933E+02  0.00000000000E+00 0. -1.
</event>
<event>
 7    1  0.2556591E-009  0.1270106E+03  0.7561462E-02  0.1231960E+00
         -1   -1    0    0    0  501 -0.00000000000E+00  0.00000000000E+00  0.47826940589E+02  0.47826940589E+02  0.00000000000E+00 0.  1.
          1   -1    0    0  501    0  0.00000000000E+00 -0.00000000000E+00 -0.34803500764E+03  0.34803500764E+03  0.00000000000E+00 0. -1.
         25    2    1    2    0    0  0.66367252414E+02 -0.10394491284E+02 -0.19265873292E+03  0.23932363736E+03  0.12508300599E+03 0.  0.
          5    1    3    3  502    0  0.88270728065E+02  0.31351330466E+02 -0.11502603691E+03  0.14840178208E+03  0.41800000000E+01 0. -1.
         -5    1    3    3    0  502 -0.21903475652E+02 -0.41745821750E+02 -0.77632696001E+02  0.90921855280E+02  0.41800000000E+01 0. -1.
        -11    1    1    2    0    0 -0.88705865390E+02  0.10487857343E+01 -0.91756097532E+02  0.12762841353E+03  0.00000000000E+00 0. -1.
         11    1    1    2    0    0  0.22338612976E+02  0.93457055494E+01 -0.15793236603E+02  0.28909897342E+02  0.00000000000E+00 0.  1.
</event>
<event>
 7    1  0.2556591E-009  0.1520320E+03  0.7561462E-02  0.1197998E+00
          1   -1    0    0  501    0  0.00000000000E+00  0.00000000000E+00  0.15483041750E+04  0.15483041750E+04  0.00000000000E+00 0. -1.
         -1   -1    0    0    0  501 -0.00000000000E+00 -0.00000000000E+00 -0.20903207690E+02  0.20903207690E+02  0.00000000000E+00 0.  1.
         25    2    1    2    0    0  0.49563990268E+02  0.12657385996E+03  0.96213353408E+03  0.97970649753E+03  0.12508538180E+03 0.  0.
          5    1    3    3  502    0  0.20171682821E+02  0.92110867107E+02  0.88604486721E+03  0.89105795981E+03  0.41800000000E+01 0. -1.
         -5    1    3    3    0  502  0.29392307447E+02  0.34462992858E+02  0.76088666865E+02  0.88648537715E+02  0.41800000000E+01 0. -1.
        -11    1    1    2    0    0  0.14876706483E+02 -0.87656467192E+02  0.24899825471E+03  0.26439573273E+03  0.00000000000E+00 0.  1.
         11    1    1    2    0    0 -0.64440696751E+02 -0.38917392772E+02  0.31626917854E+03  0.32510515245E+03  0.00000000000E+00 0. -1.
</event>
<event>
 7    1  0.2556591E-009  0.1180089E+03  0.7561462E-02  0.1246418E+00
         -1   -1    0    0    0  501 -0.00000000000E+00  0.00000000000E+00  0.16014609825E+02  0.16014609825E+02  0.00000000000E+00 0.  1.
          1   -1    0    0  501    0  0.00000000000E+00 -0.00000000000E+00 -0.15955759759E+04  0.15955759759E+04  0.00000000000E+00 0. -1.
         25    2    1    2    0    0  0.81479676174E+02 -0.47105911231E+02 -0.12004505353E+04  0.12106143212E+04  0.12509053661E+03 0.  0.
          5    1    3    3  502    0  0.52440264777E+02 -0.56323138242E+02 -0.30336097978E+03  0.31299781744E+03  0.41800000000E+01 0. -1.
         -5    1    3    3    0  502  0.29039411397E+02  0.92172270106E+01 -0.89708955557E+03  0.89761650375E+03  0.41800000000E+01 0. -1.
        -11    1    1    2    0    0 -0.45470653002E+02  0.71477054127E+02 -0.28465031243E+03  0.29698880436E+03  0.00000000000E+00 0. -1.
         11    1    1    2    0    0 -0.36009023172E+02 -0.24371142896E+02 -0.94460518298E+02  0.10398746017E+03  0.00000000000E+00 0.  1.
</event>
<event>
 7    1  0.2556591E-009  0.1397622E+03  0.7561462E-02  0.1213649E+00
          1   -1    0    0  501    0  0.00000000000E+00  0.00000000000E+00  0.29229489995E+03  0.29229489995E+03  0.00000000000E+00 0. -1.
         -1   -1    0    0    0  501 -0.00000000000E+00 -0.00000000000E+00 -0.81023457538E+02  0.81023457538E+02  0.00000000000E+00 0.  1.
         25    2    1    2    0    0  0.10950301331E+03  0.74082240031E+01  0.13077327610E+03  0.21164531995E+03  0.12508517102E+03 0.  0.
          5    1    3    3  502    0  0.12900182322E+03 -0.29250093332E+01  0.70009130804E+02  0.14686312291E+03  0.41800000000E+01 0.  1.
         -5    1    3    3    0  502 -0.19498809918E+02  0.10333233336E+02  0.60764145300E+02  0.64782197041E+02  0.41800000000E+01 0.  1.
        -11    1    1    2    0    0 -0.26852551245E+02 -0.31958581063E+02 -0.27370241940E+01  0.41831826560E+02  0.00000000000E+00 0.  1.
         11    1    1    2    0    0 -0.82650462061E+02  0.24550357060E+02  0.83235190502E+02  0.11984121098E+03  0.00000000000E+00 0. -1.
</event>
<event>
 7    1  0.2556591E-009  0.1130405E+03  0.7561462E-02  0.1255041E+00
         -2   -1    0    0    0  501 -0.00000000000E+00  0.00000000000E+00  0.82598075980E+03  0.82598075980E+03  0.00000000000E+00 0.  1.
          2   -1    0    0  501    0  0.00000000000E+00 -0.00000000000E+00 -0.37754941230E+02  0.37754941230E+02  0.00000000000E+00 0. -1.
         25    2    1    2    0    0  0.68959510092E+02 -0.74054434852E+02  0.64968509825E+03  0.66931124413E+03  0.12508933318E+03 0.  0.
          5    1    3    3  502    0  0.63736856906E+02 -0.37937874555E+02  0.14164559184E+03  0.15994566371E+03  0.41800000000E+01 0.  1.
         -5    1    3    3    0  502  0.52226531865E+01 -0.36116560297E+02  0.50803950642E+03  0.50936558042E+03  0.41800000000E+01 0.  1.
        -11    1    1    2    0    0 -0.64428580359E+02  0.30523760822E+02  0.13220435492E+03  0.15020230824E+03  0.00000000000E+00 0.  1.
         11    1    1    2    0    0 -0.45309297333E+01  0.43530674030E+02  0.63363654038E+01  0.44222148662E+02  0.00000000000E+00 0. -1.
</event>
<event>
 7    1  0.2556591E-009  0.9992293E+02  0.7561462E-02  0.1280458E+00
         -1   -1    0    0    0  501 -0.00000000000E+00  0.00000000000E+00  0.61025451255E+02  0.61025451255E+02  0.00000000000E+00 0.  1.
          1   -1    0    0  501    0  0.00000000000E+00 -0.00000000000E+00 -0.34462076434E+03  0.34462076434E+03  0.00000000000E+00 0. -1.
         25    2    1    2    0    0 -0.95923730049E+02  0.17382354362E+01 -0.13783800937E+03  0.20940506745E+03  0.12508709764E+03 0.  0.
          5    1    3    3  502    0 -0.57679027974E+02  0.20679206958E+01  0.81446439452E+01  0.58437609371E+02  0.41800000000E+01 0.  1.
         -5    1    3    3    0  502 -0.38244702075E+02 -0.32968525963E+00 -0.14598265332E+03  0.15096745808E+03  0.41800000000E+01 0.  1.
        -11    1    1    2    0    0  0.86513127252E+02 -0.14426320564E+02 -0.53706465516E+02  0.10284466126E+03  0.00000000000E+00 0.  1.
         11    1    1    2    0    0  0.94106027968E+01  0.12688085128E+02 -0.92050838199E+02  0.93396486884E+02  0.00000000000E+00 0. -1.
</event>
<event>
 7    1  0.2556591E-009  0.1575129E+03  0.7561462E-02  0.1191534E+00
          1   -1    0    0  501    0  0.00000000000E+00  0.00000000000E+00  0.12146756958E+03  0.12146756958E+03  0.00000000000E+00 0. -1.
         -1   -1    0    0    0  501 -0.00000000000E+00 -0.00000000000E+00 -0.54657788653E+03  0.54657788653E+03  0.00000000000E+00 0.  1.
         25    2    1    2    0    0 -0.84605356181E+02 -0.79486923394E+02 -0.48051456460E+03  0.50991949193E+03  0.12508958461E+03 0.  0.
          5    1    3    3  502    0 -0.10861410831E+03 -0.89687212721E+02 -0.36122028906E+03  0.38773494849E+03  0.41800000000E+01 0. -1.
         -5    1    3    3    0  502  0.24008752132E+02  0.10200289327E+02 -0.11929427554E+03  0.12218454345E+03  0.41800000000E+01 0. -1.
        -11    1    1    2    0    0  0.57392354434E+02 -0.62539806076E+01  0.27457868787E+02  0.63929094935E+02  0.00000000000E+00 0.  1.
         11    1    1    2    0    0  0.27213001747E+02  0.85740904002E+02  0.27946378868E+02  0.94196869242E+02  0.00000000000E+00 0. -1.
</event>
<event>
 7    1  0.2556591E-009  0.2089104E+03  0.7561462E-02  0.1142432E+00
         -2   -1    0    0    0  501 -0.00000000000E+00  0.00000000000E+00  0.53136155188E+02  0.53136155188E+02  0.00000000000E+00 0.  1.
          2   -1    0    0  501    0  0.00000000000E+00 -0.00000000000E+00 -0.97595706035E+03  0.97595706035E+03  0.00000000000E+00 0. -1.
         25    2    1    2    0    0 -0.12071907783E+03 -0.13536704067E+03 -0.29044583167E+03  0.36456008813E+03  0.12509174741E+03 0.  0.
          5    1    3    3  502    0 -0.13416142898E+03 -0.76956305473E+02 -0.16940770260E+03  0.22942973669E+03  0.41800000000E+01 0. -1.
         -5    1    3    3    0  502  0.13442351153E+02 -0.58410735196E+02 -0.12103812908E+03  0.13513035144E+03  0.41800000000E+01 0. -1.
        -11    1    1    2    0    0  0.49932574732E+02 -0.36481638021E+00 -0.18854284822E+03  0.19504307403E+03  0.00000000000E+00 0. -1.
         11    1    1    2    0    0  0.70786503093E+02  0.13573185705E+03 -0.44383222527E+03  0.46949005338E+03  0.00000000000E+00 0.  1.
</event>
<event>
 7    1  0.2556591E-009  0.1039810E+03  0.7561462E-02  0.1272140E+00
          2   -1    0    0  501    0  0.00000000000E+00  0.00000000000E+00  0.73593328400E+03  0.73593328400E+03  0.00000000000E+00 0.  1.
         -2   -1    0    0    0  501 -0.00000000000E+00 -0.00000000000E+00 -0.24177105089E+02  0.24177105089E+02  0.00000000000E+00 0. -1.
         25    2    1    2    0    0 -0.18741151958E+02  0.23892698157E+02  0.61248120502E+03  0.62586300258E+03  0.12509668142E+03 0.  0.
          5    1    3    3  502    0 -0.81046184063E+01 -0.50867875913E+02  0.20432501156E+03  0.21075912410E+03  0.41800000000E+01 0.  1.
         -5    1    3    3    0  502 -0.10636533552E+02  0.74760574070E+02  0.40815619345E+03  0.41510387849E+03  0.41800000000E+01 0.  1.
        -11    1    1    2    0    0  0.44803152102E+02  0.71749296618E+00  0.23902669542E+02  0.50785577142E+02  0.00000000000E+00 0. -1.
         11    1    1    2    0    0 -0.26062000144E+02 -0.24610191123E+02  0.75372304350E+02  0.83461809360E+02  0.00000000000E+00 0.  1.
</event>
<event>
 7    1  0.2556591E-009  0.1173048E+03  0.7561462E-02  0.1247611E+00
         -2   -1    0    0    0  501 -0.00000000000E+00  0.00000000000E+00  0.19496059598E+02  0.19496059598E+02  0.00000000000E+00 0.  1.
          2   -1    0    0  501    0  0.00000000000E+00 -0.00000000000E+00 -0.12651518386E+04  0.12651518386E+04  0.00000000000E+00 0. -1.
         25    2    1    2    0    0 -0.63292903071E+02 -0.84883601480E+02 -0.81835700950E+03  0.83460587030E+03  0.12509015293E+03 0.  0.
          5    1    3    3  502    0 -0.77588509823E+02 -0.65661636825E+02 -0.79290631514E+03  0.79940560693E+03  0.41800000000E+01 0. -1.
         -5    1    3    3    0  502  0.14295606752E+02 -0.19221964655E+02 -0.25450694361E+02  0.35200263366E+02  0.41800000000E+01 0. -1.
        -11    1    1    2    0    0  0.33625053492E+02  0.25568459298E+02 -0.43800138864E+02  0.60850986004E+02  0.00000000000E+00 0.  1.
         11    1    1    2    0    0  0.29667849579E+02  0.59315142182E+02 -0.38349863067E+03  0.38919104193E+03  0.00000000000E+00 0. -1.
</event>
<event>
 7    1  0.2556591E-009  0.8130422E+02  0.7561462E-02  0.1325390E+00
         -2   -1    0    0    0  501 -0.00000000000E+00  0.00000000000E+00  0.10164982244E+03  0.10164982244E+03  0.00000000000E+00 0.  1.
          2   -1    0    0  501    0  0.00000000000E+00 -0.00000000000E+00 -0.17032258606E+03  0.17032258606E+03  0.00000000000E+00 0. -1.
         25    2    1    2    0    0  0.16648810228E+02  0.65290507958E+02 -0.63831310392E+02  0.15576143749E+03  0.12508859225E+03 0.  0.
          5    1    3    3  502    0  0.12926166043E+02  0.40197548514E+02 -0.10158192341E+03  0.11008763891E+03  0.41800000000E+01 0.  1.
         -5    1    3    3    0  502  0.37226441851E+01  0.25092959444E+02  0.37750613022E+02  0.45673798583E+02  0.41800000000E+01 0.  1.
        -11    1    1    2    0    0 -0.38467406922E+02 -0.61175050707E+02 -0.33752192808E+02  0.79758001126E+02  0.00000000000E+00 0. -1.
         11    1    1    2    0    0  0.21818596693E+02 -0.41154572510E+01  0.28910739581E+02  0.36452969882E+02  0.00000000000E+00 0.  1.
</event>
<event>
 7    1  0.2556591E-009  0.1287579E+03  0.7561462E-02  0.1229311E+00
          2   -1    0    0  501    0  0.00000000000E+00  0.00000000000E+00  0.77925411332E+02  0.77925411332E+02  0.00000000000E+00 0. -1.
         -2   -1    0    0    0  501 -0.00000000000E+00 -0.00000000000E+00 -0.21990874504E+03  0.21990874504E+03  0.00000000000E+00 0.  1.
         25    2    1    2    0    0 -0.50499516458E+01  0.69711174498E+02 -0.52793370666E+02  0.15270866850E+03  0.12509055754E+03 0.  0.
          5    1    3    3  502    0 -0.34077511593E+02  0.97068466897E+02 -0.41804004534E+02  0.11112430543E+03  0.41800000000E+01 0. -1.
         -5    1    3    3    0  502  0.29027559947E+02 -0.27357292398E+02 -0.10989366133E+02  0.41584363069E+02  0.41800000000E+01 0. -1.
        -11    1    1    2    0    0  0.37377240541E+02 -0.72941104644E+02 -0.65489335343E+02  0.10491099037E+03  0.00000000000E+00 0.  1.
         11    1    1    2    0    0 -0.32327288895E+02  0.32299301458E+01 -0.23700627699E+02  0.40214497503E+02  0.00000000000E+00 0. -1.
</event>
<event>
 7    1  0.2556591E-009  0.1167478E+03  0.7561462E-02  0.1248561E+00
          1   -1    0    0  501    0  0.00000000000E+00  0.00000000000E+00  0.51806308637E+03  0.51806308637E+03  0.00000000000E+00 0. -1.
         -1   -1    0    0    0  501 -0.00000000000E+00 -0.00000000000E+00 -0.55189337065E+02  0.55189337065E+02  0.00000000000E+00 0.  1.
         25    2    1    2    0    0  0.95249070462E+02  0.62414650821E+02  0.14135889559E+03  0.22044852505E+03  0.12508893145E+03 0.  0.
          5    1    3    3  502    0  0.48723818371E+02  0.51345142622E+02 -0.26703287804E+00  0.70907530306E+02  0.41800000000E+01 0.  1.
         -5    1    3    3    0  502  0.46525252091E+02  0.11069508199E+02  0.14162592847E+03  0.14954099474E+03  0.41800000000E+01 0.  1.
        -11    1    1    2    0    0 -0.70383737625E+02 -0.39195287930E+02  0.30408953164E+03  0.31458001267E+03  0.00000000000E+00 0. -1.
         11    1    1    2    0    0 -0.24865332837E+02 -0.23219362891E+02  0.17425322079E+02  0.38223885722E+02  0.00000000000E+00 0.  1.
</event>
<event>
 7    1  0.2556591E-009  0.9823916E+02  0.7561462E-02  0.1284043E+00
          1   -1    0    0  501    0  0.00000000000E+00  0.00000000000E+00  0.31541270879E+03  0.31541270879E+03  0.00000000000E+00 0. -1.
         -1   -1    0    0    0  501 -0.00000000000E+00 -0.00000000000E+00 -0.53926452822E+02  0.53926452822E+02  0.00000000000E+00 0.  1.
         25    2    1    2    0    0  0.54967332533E+02  0.39874895308E+02  0.10429010440E+03  0.17644771836E+03  0.12508379797E+03 0.  0.
          5    1    3    3  502    0  0.52954331868E+02 -0.20602869982E+01 -0.10467718285E+02  0.54179807790E+02  0.41800000000E+01 0.  1.
         -5    1    3    3    0  502  0.20130006650E+01  0.41935182307E+02  0.11475782269E+03  0.12226791057E+03  0.41800000000E+01 0.  1.
        -11    1    1    2    0    0 -0.72315969713E+02 -0.20593753066E+02  0.73029432483E+02  0.10481889214E+03  0.00000000000E+00 0.  1.
         11    1    1    2    0    0  0.17348637181E+02 -0.19281142243E+02  0.84166719080E+02  0.88072551109E+02  0.00000000000E+00 0. -1.
</event>
<event>
 7    1  0.2556591E-009  0.1115465E+03  0.7561462E-02  0.1257733E+00
          1   -1    0    0  501    0  0.00000000000E+00  0.00000000000E+00  0.23308853024E+03  0.23308853024E+03  0.00000000000E+00 0. -1.
         -1   -1    0    0    0  501 -0.00000000000E+00 -0.00000000000E+00 -0.77026251172E+02  0.77026251172E+02  0.00000000000E+00 0.  1.
         25    2    1    2    0    0 -0.25400141352E+02  0.56670437161E+02  0.15032307907E+03  0.20518134703E+03  0.12508257848E+03 0.  0.
          5    1    3    3  502    0 -0.27365638485E+02  0.85631639829E+02  0.15107016110E+03  0.17584459584E+03  0.41800000000E+01 0. -1.
         -5    1    3    3    0  502  0.19654971324E+01 -0.28961202668E+02 -0.74708203175E+00  0.29336751192E+02  0.41800000000E+01 0. -1.
        -11    1    1    2    0    0 -0.26959509996E+02 -0.41085095502E+02  0.99629364955E+01  0.50140406413E+02  0.00000000000E+00 0. -1.
         11    1    1    2    0    0  0.52359651349E+02 -0.15585341660E+02 -0.42237365009E+01  0.54793027969E+02  0.00000000000E+00 0.  1.
</event>
<event>
 7    1  0.2556591E-009  0.1177613E+03  0.7561462E-02  0.1246837E+00
         -1   -1    0    0    0  501 -0.00000000000E+00  0.00000000000E+00  0.57534648541E+02  0.57534648541E+02  0.00000000000E+00 0.  1.
          1   -1    0    0  501    0  0.00000000000E+00 -0.00000000000E+00 -0.40486743765E+03  0.40486743765E+03  0.00000000000E+00 0. -1.
         25    2    1    2    0    0  0.97885362814E+01 -0.10300364660E+03 -0.23014099610E+03  0.28163958916E+03  0.12510161247E+03 0.  0.
          5    1    3    3  502    0  0.42631830274E+02 -0.48801271661E+02 -0.20198177725E+03  0.21216302178E+03  0.41800000000E+01 0. -1.
         -5    1    3    3    0  502 -0.32843293993E+02 -0.54202374937E+02 -0.28159218845E+02  0.69476567382E+02  0.41800000000E+01 0. -1.
        -11    1    1    2    0    0 -0.17054849726E+02  0.37835613300E+02 -0.10653106396E+03  0.11432965110E+03  0.00000000000E+00 0. -1.
         11    1    1    2    0    0  0.72663134444E+01  0.65168033298E+02 -0.10660729059E+02  0.66432845936E+02  0.00000000000E+00 0.  1.
</event>
<event>
 7    1  0.3265490E-009  0.9193554E+02  0.7561462E-02  0.1298231E+00
         -1   -1    0    0    0  501 -0.00000000000E+00  0.00000000000E+00  0.67859949965E+02  0.67859949965E+02  0.00000000000E+00 0. -1.
          1   -1    0    0  501    0  0.00000000000E+00 -0.00000000000E+00 -0.26837717413E+03  0.26837717413E+03  0.00000000000E+00 0.  1.
         25    2    1    2    0    0 -0.91461811661E+01  0.13517971848E+02 -0.20689615394E+03  0.24232123795E+03  0.12508867118E+03 0.  0.
          5    1    3    3  502    0  0.50331163651E+02  0.36087840506E+02 -0.11074243478E+03  0.12695242230E+03  0.41800000000E+01 0. -1.
         -5    1    3    3    0  502 -0.59477344817E+02 -0.22569868658E+02 -0.96153719159E+02  0.11536881566E+03  0.41800000000E+01 0. -1.
        -11    1    1    2    0    0 -0.23068690530E+02 -0.11476987305E+02  0.39825201425E+02  0.47433452214E+02  0.00000000000E+00 0. -1.
         11    1    1    2    0    0  0.32214871697E+02 -0.20409845432E+01 -0.33446271650E+02  0.46482433925E+02  0.00000000000E+00 0.  1.
</event>
<event>
 7    1  0.2556591E-009  0.1145624E+03  0.7561462E-02  0.1252347E+00
         -2   -1    0    0    0  501 -0.00000000000E+00  0.00000000000E+00  0.13670480271E+03  0.13670480271E+03  0.00000000000E+00 0. -1.
          2   -1    0    0  501    0  0.00000000000E+00 -0.00000000000E+00 -0.17397322473E+03  0.17397322473E+03  0.00000000000E+00 0.  1.
         25    2    1    2    0    0  0.44341152574E+02 -0.65685288841E+02  0.56441786782E+02  0.15846355362E+03  0.12507728630E+03 0.  0.
          5    1    3    3  502    0 -0.46961984974E+01 -0.65667792912E+02  0.80174043587E+02  0.10382515577E+03  0.41800000000E+01 0. -1.
         -5    1    3    3    0  502  0.49037351071E+02 -0.17495929736E-01 -0.23732256806E+02  0.54638397847E+02  0.41800000000E+01 0. -1.
        -11    1    1    2    0    0 -0.64757909473E+02  0.67380802438E+02 -0.92806863865E+02  0.13170752961E+03  0.00000000000E+00 0.  1.
         11    1    1    2    0    0  0.20416756899E+02 -0.16955135966E+01 -0.90334493204E+00  0.20506944207E+02  0.00000000000E+00 0. -1.
</event>
<event>
 7    1  0.2556591E-009  0.1259684E+03  0.7561462E-02  0.1233564E+00
          2   -1    0    0  501    0  0.00000000000E+00  0.00000000000E+00  0.39392809582E+03  0.39392809582E+03  0.00000000000E+00 0.  1.
         -2   -1    0    0    0  501 -0.00000000000E+00 -0.00000000000E+00 -0.58936133150E+02  0.58936133150E+02  0.00000000000E+00 0. -1.
         25    2    1    2    0    0  0.24784187710E+02 -0.95422700145E+02  0.11777024363E+03  0.19808134973E+03  0.12508654269E+03 0.  0.
          5    1    3    3  502    0  0.40263125666E+02 -0.91371752574E+01 -0.10364522059E+02  0.42772689623E+02  0.41800000000E+01 0.  1.
         -5    1    3    3    0  502 -0.15478937956E+02 -0.86285524888E+02  0.12813476569E+03  0.15530866011E+03  0.41800000000E+01 0.  1.
        -11    1    1    2    0    0 -0.49219492173E+02  0.45202086463E+02  0.67503244627E+02  0.94986709942E+02  0.00000000000E+00 0. -1.
         11    1    1    2    0    0  0.24435304463E+02  0.50220613683E+02  0.14971847441E+03  0.15979616930E+03  0.00000000000E+00 0.  1.
</event>
<event>
 7    1  0.2556591E-009  0.1112117E+03  0.7561462E-02  0.1258342E+00
         -2   -1    0    0    0  501 -0.00000000000E+00  0.00000000000E+00  0.32865609675E+03  0.32865609675E+03  0.00000000000E+00 0.  1.
          2   -1    0    0  501    0  0.00000000000E+00 -0.00000000000E+00 -0.57537699927E+02  0.57537699927E+02  0.00000000000E+00 0. -1.
         25    2    1    2    0    0  0.84392958776E+01  0.15975286183E+02  0.40853041683E+02  0.13282536807E+03  0.12508867217E+03 0.  0.
          5    1    3    3  502    0 -0.56824363232E+02  0.79161444390E+01  0.48258136040E+01  0.57727242065E+02  0.41800000000E+01 0.  1.
         -5    1    3    3    0  502  0.65263659110E+02  0.80591417439E+01  0.36027228079E+02  0.75098126003E+02  0.41800000000E+01 0.  1.
        -11    1    1    2    0    0  0.44620258871E+02 -0.84998014191E+01  0.62560293800E+02  0.77311089025E+02  0.00000000000E+00 0. -1.
         11    1    1    2    0    0 -0.53059554749E+02 -0.74754847638E+01  0.16770506134E+03  0.17605733959E+03  0.00000000000E+00 0.  1.
</event>
<event>
 7    1  0.2556591E-009  0.8334877E+02  0.7561462E-02  0.1319808E+00
         -1   -1    0    0    0  501 -0.00000000000E+00  0.00000000000E+00  0.34687727014E+03  0.34687727014E+03  0.00000000000E+00 0.  1.
          1   -1    0    0  501    0  0.00000000000E+00 -0.00000000000E+00 -0.39528033024E+02  0.39528033024E+02  0.00000000000E+00 0. -1.
         25    2    1    2    0    0 -0.41883849819E+02 -0.33019349101E+01  0.17348323614E+03  0.21796650642E+03  0.12509118694E+03 0.  0.
          5    1    3    3  502    0 -0.53198475903E+02 -0.23261687349E+01  0.19007112901E+03  0.19743352142E+03  0.41800000000E+01 0. -1.
         -5    1    3    3    0  502  0.11314626085E+02 -0.97576617513E+00 -0.16587892870E+02  0.20532984998E+02  0.41800000000E+01 0. -1.
        -11    1    1    2    0    0  0.39250379276E+01 -0.41941654238E+02  0.67832131073E+02  0.79848019943E+02  0.00000000000E+00 0.  1.
         11    1    1    2    0    0  0.37958811891E+02  0.45243589148E+02  0.66033869907E+02  0.88590776800E+02  0.00000000000E+00 0. -1.
</event>
<event>
 7    1  0.2556591E-009  0.9779072E+02  0.7561462E-02  0.1285012E+00
          1   -1    0    0  501    0  0.00000000000E+00  0.00000000000E+00  0.92398956000E+02  0.92398956000E+02  0.00000000000E+00 0. -1.
         -1   -1    0    0    0  501 -0.00000000000E+00 -0.00000000000E+00 -0.16049768519E+03  0.16049768519E+03  0.00000000000E+00 0.  1.
         25    2    1    2    0    0  0.35354966488E+02  0.39981165423E+02 -0.35169636185E+02  0.14048402901E+03  0.12510152618E+03 0.  0.
          5    1    3    3  502    0  0.24044556592E+02  0.75156868367E+02  0.12525198234E+02  0.80006553202E+02  0.41800000000E+01 0. -1.
         -5    1    3    3    0  502  0.11310409896E+02 -0.35175702944E+02 -0.47694834419E+02  0.60477475806E+02  0.41800000000E+01 0. -1.
        -11    1    1    2    0    0 -0.33566974029E+01 -0.46583284405E+02 -0.55624191767E+02  0.72631401702E+02  0.00000000000E+00 0.  1.
         11    1    1    2    0    0 -0.31998269085E+02  0.66021189820E+01  0.22695098762E+02  0.39781210481E+02  0.00000000000E+00 0. -1.
</event>
<event>
 7    1  0.4112264E-009  0.9141805E+02  0.7561462E-02  0.1299454E+00
          4   -1    0    0  501    0  0.00000000000E+00  0.00000000000E+00  0.35362730506E+03  0.35362730506E+03  0.00000000000E+00 0. -1.
         -4   -1    0    0    0  501 -0.00000000000E+00 -0.00000000000E+00 -0.52812789564E+02  0.52812789564E+02  0.00000000000E+00 0.  1.
         25    2    1    2    0    0  0.68168921287E+02 -0.27221701127E+02  0.10828389759E+03  0.18100020332E+03  0.12509056032E+03 0.  0.
          5    1    3    3  502    0  0.45664738623E+02 -0.31535968214E+02  0.13472252036E+03  0.14576493247E+03  0.41800000000E+01 0.  1.
         -5    1    3    3    0  502  0.22504182664E+02  0.43142670877E+01 -0.26438622769E+02  0.35235270849E+02  0.41800000000E+01 0.  1.
        -11    1    1    2    0    0 -0.40438556983E+02 -0.23000180252E+02  0.36297490901E+02  0.59006720195E+02  0.00000000000E+00 0.  1.
         11    1    1    2    0    0 -0.27730364304E+02  0.50221881379E+02  0.15623312700E+03  0.16643317111E+03  0.00000000000E+00 0. -1.
</event>
<event>
 7    1  0.2556591E-009  0.1144745E+03  0.7561462E-02  0.1252501E+00
         -1   -1    0    0    0  501 -0.00000000000E+00  0.00000000000E+00  0.20704481003E+02  0.20704481003E+02  0.00000000000E+00 0.  1.
          1   -1    0    0  501    0  0.00000000000E+00 -0.00000000000E+00 -0.67801628367E+03  0.67801628367E+03  0.00000000000E+00 0. -1.
         25    2    1    2    0    0  0.28589143225E+02  0.37559065140E+02 -0.35040393372E+03  0.37504462837E+03  0.12509010361E+03 0.  0.
          5    1    3    3  502    0  0.56365327036E+01  0.82341816702E+02 -0.20044942330E+03  0.21681648687E+03  0.41800000000E+01 0.  1.
         -5    1    3    3    0  502  0.22952610521E+02 -0.44782751562E+02 -0.14995451042E+03  0.15822814150E+03  0.41800000000E+01 0.  1.
        -11    1    1    2    0    0  0.19471057739E+02 -0.43236854884E+02 -0.21084867570E+03  0.21611504286E+03  0.00000000000E+00 0. -1.
         11    1    1    2    0    0 -0.48060200963E+02  0.56777897438E+01 -0.96059193251E+02  0.10756109344E+03  0.00000000000E+00 0.  1.
</event>
<event>
 7    1  0.2556591E-009  0.1256572E+03  0.7561462E-02  0.1234046E+00
          2   -1    0    0  501    0  0.00000000000E+00  0.00000000000E+00  0.58994594632E+02  0.58994594632E+02  0.00000000000E+00 0.  1.
         -2   -1    0    0    0  501 -0.00000000000E+00 -0.00000000000E+00 -0.27754490335E+03  0.27754490335E+03  0.00000000000E+00 0. -1.
         25    2    1    2    0    0 -0.26446960055E+01  0.63658053243E+02 -0.13407151196E+03  0.19411836243E+03  0.12508967244E+03 0.  0.
          5    1    3    3  502    0 -0.62351074416E+02  0.44602503206E+02 -0.83912532523E+02  0.11373576960E+03  0.41800000000E+01 0.  1.
         -5    1    3    3    0  502  0.59706378411E+02  0.19055550037E+02 -0.50158979441E+02  0.80382592821E+02  0.41800000000E+01 0.  1.
        -11    1    1    2    0    0  0.30227797950E+02 -0.75787819314E+02 -0.46406036660E+02  0.93867105867E+02  0.00000000000E+00 0.  1.
         11    1    1    2    0    0 -0.27583101945E+02  0.12129766071E+02 -0.38072760092E+02  0.48554029687E+02  0.00000000000E+00 0. -1.
</event>
<event>
 7    1  0.2556591E-009  0.7707922E+02  0.7561462E-02  0.1337551E+00
          2   -1    0    0  501    0  0.00000000000E+00  0.00000000000E+00  0.14365499831E+03  0.14365499831E+03  0.00000000000E+00 0. -1.
         -2   -1    0    0    0  501 -0.00000000000E+00 -0.00000000000E+00 -0.92112404200E+02  0.92112404200E+02  0.00000000000E+00 0.  1.
         25    2    1    2    0    0  0.74777015300E+01  0.62328948425E+01  0.65272402725E+02  0.14143044789E+03  0.12508924827E+03 0.  0.
          5    1    3    3  502    0  0.28851851148E+02  0.35871045238E+02  0.87140109096E+02  0.98640925657E+02  0.41800000000E+01 0.  1.
         -5    1    3    3    0  502 -0.21374149618E+02 -0.29638150395E+02 -0.21867706371E+02  0.42789522230E+02  0.41800000000E+01 0.  1.
        -11    1    1    2    0    0  0.13498900960E+02 -0.33868771063E+02  0.23554708677E+02  0.43406661716E+02  0.00000000000E+00 0. -1.
         11    1    1    2    0    0 -0.20976602490E+02  0.27635876221E+02 -0.37284517289E+02  0.50930292911E+02  0.00000000000E+00 0.  1.
</event>
<event>
 7    1  0.2556591E-009  0.8618059E+02  0.7561462E-02  0.1312374E+00
          4   -1    0    0  501    0  0.00000000000E+00  0.00000000000E+00  0.18598880101E+03  0.18598880101E+03  0.00000000000E+00 0. -1.
         -4   -1    0    0    0  501 -0.00000000000E+00 -0.00000000000E+00 -0.67000034333E+02  0.67000034333E+02  0.00000000000E+00 0.  1.
         25    2    1    2    0    0 -0.18650218018E+02 -0.15624864215E+02  0.77669040892E+02  0.14923484180E+03  0.12508633451E+03 0.  0.
          5    1    3    3  502    0 -0.68686615514E+02 -0.12016002028E+02  0.19950790320E+02  0.72648068728E+02  0.41800000000E+01 0. -1.
         -5    1    3    3    0  502  0.50036397496E+02 -0.36088621869E+01  0.57718250572E+02  0.76586773073E+02  0.41800000000E+01 0. -1.
        -11    1    1    2    0    0  0.33214211832E+02  0.38481898237E+01 -0.20458653116E+02  0.39198838246E+02  0.00000000000E+00 0.  1.
         11    1    1    2    0    0 -0.14563993813E+02  0.11776674391E+02  0.61778378899E+02  0.64555155293E+02  0.00000000000E+00 0. -1.
</event>
<event>
 7    1  0.2556591E-009  0.1157015E+03  0.7561462E-02  0.1250361E+00
          2   -1    0    0  501    0  0.00000000000E+00  0.00000000000E+00  0.12666670946E+03  0.12666670946E+03  0.00000000000E+00 0. -1.
         -2   -1    0    0    0  501 -0.00000000000E+00 -0.00000000000E+00 -0.18711720423E+03  0.18711720423E+03  0.00000000000E+00 0.  1.
         25    2    1    2    0    0  0.18426390312E+02  0.59484161598E+02  0.58889910499E+02  0.15163364942E+03  0.12508734843E+03 0.  0.
          5    1    3    3  502    0  0.68699150376E+02  0.37185940492E+02  0.11806119104E+02  0.79115259470E+02  0.41800000000E+01 0.  1.
         -5    1    3    3    0  502 -0.50272760064E+02  0.22298221105E+02  0.47083791395E+02  0.72518389951E+02  0.41800000000E+01 0.  1.
        -11    1    1    2    0    0  0.29574505543E+02 -0.27120673286E+02 -0.15025834458E+02  0.42848080456E+02  0.00000000000E+00 0. -1.
         11    1    1    2    0    0 -0.48000895855E+02 -0.32363488312E+02 -0.10431457081E+03  0.11930218381E+03  0.00000000000E+00 0.  1.
</event>
<event>
 7    1  0.2556591E-009  0.1062563E+03  0.7561462E-02  0.1267664E+00
          3   -1    0    0  501    0  0.00000000000E+00  0.00000000000E+00  0.15449015055E+02  0.15449015055E+02  0.00000000000E+00 0. -1.
         -3   -1    0    0    0  501 -0.00000000000E+00 -0.00000000000E+00 -0.11086479556E+04  0.11086479556E+04  0.00000000000E+00 0.  1.
         25    2    1    2    0    0 -0.10180307596E+02  0.97776140051E+01 -0.87061871817E+03  0.87967265501E+03  0.12509111540E+03 0.  0.
          5    1    3    3  502    0 -0.59867854556E+02 -0.24362631158E+02 -0.49599612125E+03  0.50020727954E+03  0.41800000000E+01 0.  1.
         -5    1    3    3    0  502  0.49687546960E+02  0.34140245163E+02 -0.37462259692E+03  0.37946537548E+03  0.41800000000E+01 0.  1.
        -11    1    1    2    0    0 -0.38202467193E+02 -0.70853084667E+01 -0.16330058692E+03  0.16785920226E+03  0.00000000000E+00 0.  1.
         11    1    1    2    0    0  0.48382774789E+02 -0.26923055384E+01 -0.59279635404E+02  0.76565113328E+02  0.00000000000E+00 0. -1.
</event>
<event>
 7    1  0.2556591E-009  0.1185070E+03  0.7561462E-02  0.1245581E+00
         -2   -1    0    0    0  501 -0.00000000000E+00  0.00000000000E+00  0.89614624340E+02  0.89614624340E+02  0.00000000000E+00 0.  1.
          2   -1    0    0  501    0  0.00000000000E+00 -0.00000000000E+00 -0.17462746316E+03  0.17462746316E+03  0.00000000000E+00 0. -1.
         25    2    1    2    0    0  0.53699599121E+02  0.31953901633E+02 -0.41893752065E+02  0.14597023815E+03  0.12509006831E+03 0.  0.
          5    1    3    3  502    0  0.42796427584E+02 -0.44687591418E+02 -0.23275663588E+02  0.66240047978E+02  0.41800000000E+01 0.  1.
         -5    1    3    3    0  502  0.10903171537E+02  0.76641493051E+02 -0.18618088477E+02  0.79730190174E+02  0.41800000000E+01 0.  1.
        -11    1    1    2    0    0 -0.71680486527E+02 -0.34073126245E+02 -0.92979478794E+01  0.79909460739E+02  0.00000000000E+00 0.  1.
         11    1    1    2    0    0  0.17980887406E+02  0.21192246115E+01 -0.33821138871E+02  0.38362388604E+02  0.00000000000E+00 0. -1.
</event>
<event>
 7    1  0.2792026E-009  0.1425177E+03  0.7561462E-02  0.1209981E+00
         -2   -1    0    0    0  501 -0.00000000000E+00  0.00000000000E+00  0.13946262935E+03  0.13946262935E+03  0.00000000000E+00 0.  1.
          2   -1    0    0  501    0  0.00000000000E+00 -0.00000000000E+00 -0.18713394812E+03  0.18713394812E+03  0.00000000000E+00 0. -1.
         25    2    1    2    0    0 -0.54156360901E+02 -0.96474558144E+02 -0.71181305223E+02  0.18153309011E+03  0.12508889958E+03 0.  0.
          5    1    3    3  502    0 -0.50419603570E+02  0.15322393573E+02 -0.94428951262E+01  0.53698722865E+02  0.41800000000E+01 0. -1.
         -5    1    3    3    0  502 -0.37367573303E+01 -0.11179695172E+03 -0.61738410097E+02  0.12783436725E+03  0.41800000000E+01 0. -1.
        -11    1    1    2    0    0  0.58461713084E+02  0.60963351235E+02  0.52126197619E+02  0.99254433497E+02  0.00000000000E+00 0.  1.
         11    1    1    2    0    0 -0.43053521836E+01  0.35511206909E+02 -0.28616211170E+02  0.45809053857E+02  0.00000000000E+00 0. -1.
</event>
<event>
 7    1  0.2556591E-009  0.1009065E+03  0.7561462E-02  0.1278401E+00
         -1   -1    0    0    0  501 -0.00000000000E+00  0.00000000000E+00  0.37784231252E+03  0.37784231252E+03  0.00000000000E+00 0.  1.
          1   -1    0    0  501    0  0.00000000000E+00 -0.00000000000E+00 -0.40768265825E+02  0.40768265825E+02  0.00000000000E+00 0. -1.
         25    2    1    2    0    0  0.18484365730E+02  0.43317488906E+02  0.12301552695E+03  0.18165463635E+03  0.12509000925E+03 0.  0.
          5    1    3    3  502    0  0.36853028809E+02  0.71846707741E+02  0.36659930832E+02  0.88777914338E+02  0.41800000000E+01 0.  1.
         -5    1    3    3    0  502 -0.18368663079E+02 -0.28529218835E+02  0.86355596118E+02  0.92876722012E+02  0.41800000000E+01 0.  1.
        -11    1    1    2    0    0 -0.35056634480E+02  0.52550137655E+01  0.15366755207E+03  0.15770320019E+03  0.00000000000E+00 0.  1.
         11    1    1    2    0    0  0.16572268750E+02 -0.48572502671E+02  0.60390967679E+02  0.79252741810E+02  0.00000000000E+00 0. -1.
</event>
<event>
 7    1  0.2556591E-009  0.1113520E+03  0.7561462E-02  0.1258086E+00
         -2   -1    0    0    0  501 -0.00000000000E+00  0.00000000000E+00  0.23468455979E+03  0.23468455979E+03  0.00000000000E+00 0.  1.
          2   -1    0    0  501    0  0.00000000000E+00 -0.00000000000E+00 -0.80983184558E+02  0.80983184558E+02  0.00000000000E+00 0. -1.
         25    2    1    2    0    0 -0.59963553966E+02  0.49017718844E+02  0.40606902076E+02  0.15261304204E+03  0.12507380038E+03 0.  0.
          5    1    3    3  502    0 -0.36525903302E+02 -0.12899517201E+02  0.69955977470E+02  0.80074030371E+02  0.41800000000E+01 0. -1.
         -5    1    3    3    0  502 -0.23437650665E+02  0.61917236045E+02 -0.29349075393E+02  0.72539011674E+02  0.41800000000E+01 0. -1.
        -11    1    1    2    0    0  0.76329592584E+02 -0.12443999696E+02  0.72167821912E+02  0.10577927184E+03  0.00000000000E+00 0. -1.
         11    1    1    2    0    0 -0.16366038618E+02 -0.36573719148E+02  0.40926651245E+02  0.57275430461E+02  0.00000000000E+00 0.  1.
</event>
<event>
 7    1  0.2556591E-009  0.1071272E+03  0.7561462E-02  0.1265984E+00
          1   -1    0    0  501    0  0.00000000000E+00  0.00000000000E+00  0.17568048544E+03  0.17568048544E+03  0.00000000000E+00 0. -1.
         -1   -1    0    0    0  501 -0.00000000000E+00 -0.00000000000E+00 -0.13687263791E+03  0.13687263791E+03  0.00000000000E+00 0.  1.
         25    2    1    2    0    0 -0.82394326309E+01 -0.94063581672E+02 -0.37652828573E+02  0.16118822570E+03  0.12509221782E+03 0.  0.
          5    1    3    3  502    0 -0.38617309806E+02 -0.35300461872E+02 -0.69952719015E+02  0.87454413969E+02  0.41800000000E+01 0. -1.
         -5    1    3    3    0  502  0.30377877175E+02 -0.58763119800E+02  0.32299890442E+02  0.73733811735E+02  0.41800000000E+01 0. -1.
        -11    1    1    2    0    0  0.98944216435E+01  0.34308524605E+02 -0.17683491182E+02  0.39845706175E+02  0.00000000000E+00 0.  1.
         11    1    1    2    0    0 -0.16549890126E+01  0.59755057067E+02  0.94144167287E+02  0.11151919148E+03  0.00000000000E+00 0. -1.
</event>
<event>
 7    1  0.2556591E-009  0.1308612E+03  0.7561462E-02  0.1226183E+00
         -3   -1    0    0    0  501 -0.00000000000E+00  0.00000000000E+00  0.51934090549E+03  0.51934090549E+03  0.00000000000E+00 0.  1.
          3   -1    0    0  501    0  0.00000000000E+00 -0.00000000000E+00 -0.48264068234E+02  0.48264068234E+02  0.00000000000E+00 0. -1.
         25    2    1    2    0    0 -0.74713745240E+02  0.75958098500E+02  0.33119391482E+03  0.36971974450E+03  0.12510597031E+03 0.  0.
          5    1    3    3  502    0 -0.79323516564E+02  0.82378735145E+02  0.15179978744E+03  0.19010293041E+03  0.41800000000E+01 0. -1.
         -5    1    3    3    0  502  0.46097713241E+01 -0.64206366451E+01  0.17939412737E+03  0.17961681409E+03  0.41800000000E+01 0. -1.
        -11    1    1    2    0    0  0.61326427894E+02 -0.11354983780E+00  0.77132723279E+02  0.98541365184E+02  0.00000000000E+00 0.  1.
         11    1    1    2    0    0  0.13387317346E+02 -0.75844548662E+02  0.62750199159E+02  0.99343864038E+02  0.00000000000E+00 0. -1.
</event>
<event>
 7    1  0.2556591E-009  0.1265822E+03  0.7561462E-02  0.1232617E+00
          1   -1    0    0  501    0  0.00000000000E+00  0.00000000000E+00  0.10341453601E+04  0.10341453601E+04  0.00000000000E+00 0. -1.
         -1   -1    0    0    0  501 -0.00000000000E+00 -0.00000000000E+00 -0.29411149150E+02  0.29411149150E+02  0.00000000000E+00 0.  1.
         25    2    1    2    0    0  0.13239436976E+02 -0.75623065396E+02  0.87690406814E+03  0.88910204264E+03  0.12509023463E+03 0.  0.
          5    1    3    3  502    0 -0.82040003399E+01  0.28807388764E+02  0.88794781193E+02  0.93803821010E+02  0.41800000000E+01 0.  1.
         -5    1    3    3    0  502  0.21443437316E+02 -0.10443045416E+03  0.78810928694E+03  0.79529822163E+03  0.41800000000E+01 0.  1.
        -11    1    1    2    0    0 -0.44871768607E+02  0.14072131083E+02  0.34776470019E+02  0.58488489108E+02  0.00000000000E+00 0.  1.
         11    1    1    2    0    0  0.31632331631E+02  0.61550934313E+02  0.93053672827E+02  0.11596597754E+03  0.00000000000E+00 0. -1.
</event>
<event>
 7    1  0.2556591E-009  0.9628301E+02  0.7561462E-02  0.1288312E+00
          1   -1    0    0  501    0  0.00000000000E+00  0.00000000000E+00  0.73643233438E+03  0.73643233438E+03  0.00000000000E+00 0. -1.
         -1   -1    0    0    0  501 -0.00000000000E+00 -0.00000000000E+00 -0.18962365659E+02  0.18962365659E+02  0.00000000000E+00 0.  1.
         25    2    1    2    0    0 -0.86430996405E+01  0.15984314216E+02  0.53001826201E+03  0.54488433363E+03  0.12509747199E+03 0.  0.
          5    1    3    3  502    0 -0.62363028002E+02 -0.14937956541E+02  0.27461246320E+03  0.28203150028E+03  0.41800000000E+01 0.  1.
         -5    1    3    3    0  502  0.53719928361E+02  0.30922270757E+02  0.25540579881E+03  0.26285283335E+03  0.41800000000E+01 0.  1.
        -11    1    1    2    0    0 -0.22840364250E+02  0.10403881399E+02  0.78895566196E+01  0.26309087611E+02  0.00000000000E+00 0.  1.
         11    1    1    2    0    0  0.31483463891E+02 -0.26388195615E+02  0.17956215009E+03  0.18420127880E+03  0.00000000000E+00 0. -1.
</event>
<event>
 7    1  0.2556591E-009  0.3182726E+03  0.7561462E-02  0.1076447E+00
         -1   -1    0    0    0  501 -0.00000000000E+00  0.00000000000E+00  0.28927363482E+03  0.28927363482E+03  0.00000000000E+00 0.  1.
          1   -1    0    0  501    0  0.00000000000E+00 -0.00000000000E+00 -0.40818659614E+03  0.40818659614E+03  0.00000000000E+00 0. -1.
         25    2    1    2    0    0 -0.31104239017E+03 -0.63581371388E+02 -0.13479683517E+03  0.36688661733E+03  0.12508254846E+03 0.  0.
          5    1    3    3  502    0 -0.23234112706E+03 -0.37084579247E+02 -0.36488854528E+02  0.23813142222E+03  0.41800000000E+01 0.  1.
         -5    1    3    3    0  502 -0.78701263109E+02 -0.26496792141E+02 -0.98307980645E+02  0.12875519511E+03  0.41800000000E+01 0.  1.
        -11    1    1    2    0    0  0.36824257654E+02  0.11424889258E+01  0.32107086593E+02  0.48869174764E+02  0.00000000000E+00 0.  1.
         11    1    1    2    0    0  0.27421813252E+03  0.62438882462E+02 -0.16223212737E+02  0.28170443887E+03  0.00000000000E+00 0. -1.
</event>
<event>
 7    1  0.2556591E-009  0.8761600E+02  0.7561462E-02  0.1308730E+00
         -2   -1    0    0    0  501 -0.00000000000E+00  0.00000000000E+00  0.65836563244E+02  0.65836563244E+02  0.00000000000E+00 0. -1.
          2   -1    0    0  501    0  0.00000000000E+00 -0.00000000000E+00 -0.20331049088E+03  0.20331049088E+03  0.00000000000E+00 0.  1.
         25    2    1    2    0    0  0.30371034290E+02 -0.21308423550E+02 -0.76012021895E+02  0.15099576001E+03  0.12508174699E+03 0.  0.
          5    1    3    3  502    0  0.58700875388E+02  0.46396905647E+01  0.69843226560E+01  0.59443861440E+02  0.41800000000E+01 0.  1.
         -5    1    3    3    0  502 -0.28329841098E+02 -0.25948114115E+02 -0.82996344551E+02  0.91551898569E+02  0.41800000000E+01 0.  1.
        -11    1    1    2    0    0  0.21406988569E+02 -0.40134905173E+00 -0.58084100501E+02  0.61904628031E+02  0.00000000000E+00 0.  1.
         11    1    1    2    0    0 -0.51778022859E+02  0.21709772602E+02 -0.33778052417E+01  0.56246666087E+02  0.00000000000E+00 0. -1.
</event>
<event>
 7    1  0.2556591E-009  0.1050255E+03  0.7561462E-02  0.1270069E+00
         -1   -1    0    0    0  501 -0.00000000000E+00  0.00000000000E+00  0.30657152998E+02  0.30657152998E+02  0.00000000000E+00 0.  1.
          1   -1    0    0  501    0  0.00000000000E+00 -0.00000000000E+00 -0.43875326148E+03  0.43875326148E+03  0.00000000000E+00 0. -1.
         25    2    1    2    0    0  0.71342570536E+01 -0.23677229103E+02 -0.29805045186E+03  0.32418487183E+03  0.12510096109E+03 0.  0.
          5    1    3    3  502    0 -0.14339772367E+02 -0.70726153954E+02 -0.13581035303E+03  0.15384973940E+03  0.41800000000E+01 0.  1.
         -5    1    3    3    0  502  0.21474029421E+02  0.47048924852E+02 -0.16224009883E+03  0.17033513243E+03  0.41800000000E+01 0.  1.
        -11    1    1    2    0    0  0.29690207206E+02 -0.14321593391E+02 -0.74537573784E+02  0.81501327270E+02  0.00000000000E+00 0.  1.
         11    1    1    2    0    0 -0.36824464259E+02  0.37998822494E+02 -0.35508082835E+02  0.63724215377E+02  0.00000000000E+00 0. -1.
</event>
<event>
 7    1  0.2556591E-009  0.1013347E+03  0.7561462E-02  0.1277514E+00
         -1   -1    0    0    0  501 -0.00000000000E+00  0.00000000000E+00  0.10283244215E+02  0.10283244215E+02  0.00000000000E+00 0.  1.
          1   -1    0    0  501    0  0.00000000000E+00 -0.00000000000E+00 -0.13696004953E+04  0.13696004953E+04  0.00000000000E+00 0. -1.
         25    2    1    2    0    0  0.42447325910E+02  0.55188507002E+01 -0.87486590513E+03  0.88479936097E+03  0.12508926417E+03 0.  0.
          5    1    3    3  502    0 -0.12936025528E+02  0.37026965225E+02 -0.64568914502E+03  0.64689278965E+03  0.41800000000E+01 0.  1.
         -5    1    3    3    0  502  0.55383351438E+02 -0.31508114525E+02 -0.22917676012E+03  0.23790657132E+03  0.41800000000E+01 0.  1.
        -11    1    1    2    0    0 -0.23748143166E+02  0.42030707872E+02 -0.17931545518E+03  0.18570026164E+03  0.00000000000E+00 0.  1.
         11    1    1    2    0    0 -0.18699182744E+02 -0.47549558572E+02 -0.30513589077E+03  0.30938411691E+03  0.00000000000E+00 0. -1.
</event>
<event>
 7    1  0.2556591E-009  0.2816318E+03  0.7561462E-02  0.1094801E+00
         -2   -1    0    0    0  501 -0.00000000000E+00  0.00000000000E+00  0.12003454608E+03  0.12003454608E+03  0.00000000000E+00 0.  1.
          2   -1    0    0  501    0  0.00000000000E+00 -0.00000000000E+00 -0.75471591575E+03  0.75471591575E+03  0.00000000000E+00 0. -1.
         25    2    1    2    0    0 -0.13743330869E+03  0.24039850459E+03 -0.37339867485E+03  0.48140826254E+03  0.12509192429E+03 0.  0.
          5    1    3    3  502    0 -0.44064501348E+02  0.24739355376E+02 -0.15119222893E+02  0.52912940613E+02  0.41800000000E+01 0. -1.
         -5    1    3    3    0  502 -0.93368807341E+02  0.21565914922E+03 -0.35827945195E+03  0.42849532193E+03  0.41800000000E+01 0. -1.
        -11    1    1    2    0    0  0.54245538279E+02 -0.11326579966E+03 -0.18430129725E+03  0.22302172083E+03  0.00000000000E+00 0.  1.
         11    1    1    2    0    0  0.83187770410E+02 -0.12713270493E+03 -0.76981397576E+02  0.17032047846E+03  0.00000000000E+00 0. -1.
</event>
<event>
 7    1  0.2556591E-009  0.1181050E+03  0.7561462E-02  0.1246256E+00
         -1   -1    0    0    0  501 -0.00000000000E+00  0.00000000000E+00  0.66318477147E+02  0.66318477147E+02  0.00000000000E+00 0.  1.
          1   -1    0    0  501    0  0.00000000000E+00 -0.00000000000E+00 -0.24532556688E+03  0.24532556688E+03  0.00000000000E+00 0. -1.
         25    2    1    2    0    0 -0.65703033105E+02  0.74846422871E+01 -0.10890774102E+03  0.17855352794E+03  0.12509019888E+03 0.  0.
          5    1    3    3  502    0 -0.36983506964E+02 -0.48489921105E+02 -0.11013116402E+02  0.62111298239E+02  0.41800000000E+01 0. -1.
         -5    1    3    3    0  502 -0.28719526142E+02  0.55974563392E+02 -0.97894624621E+02  0.11644222970E+03  0.41800000000E+01 0. -1.
        -11    1    1    2    0    0  0.85998682355E+02 -0.19858154455E+02 -0.62446573346E+02  0.10811888913E+03  0.00000000000E+00 0.  1.
         11    1    1    2    0    0 -0.20295649250E+02  0.12373512168E+02 -0.76527753686E+01  0.24971626953E+02  0.00000000000E+00 0. -1.
</event>
<event>
 7    1  0.2556591E-009  0.1312294E+03  0.7561462E-02  0.1225643E+00
          1   -1    0    0  501    0  0.00000000000E+00  0.00000000000E+00  0.10917100244E+04  0.10917100244E+04  0.00000000000E+00 0.  1.
         -1   -1    0    0    0  501 -0.00000000000E+00 -0.00000000000E+00 -0.25258477650E+02  0.25258477650E+02  0.00000000000E+00 0. -1.
         25    2    1    2    0    0 -0.86449633849E+02  0.78675871376E+02  0.71018252818E+03  0.73052929085E+03  0.12510151692E+03 0.  0.
          5    1    3    3  502    0 -0.31217152922E+02  0.81735013944E+02  0.21367145706E+03  0.23092874897E+03  0.41800000000E+01 0. -1.
         -5    1    3    3    0  502 -0.55232480926E+02 -0.30591425681E+01  0.49651107112E+03  0.49960054188E+03  0.41800000000E+01 0. -1.
        -11    1    1    2    0    0  0.78705245740E+02 -0.59361188851E+02  0.35153775879E+03  0.36509870214E+03  0.00000000000E+00 0.  1.
         11    1    1    2    0    0  0.77443881083E+01 -0.19314682525E+02  0.47312597972E+01  0.21340509072E+02  0.00000000000E+00 0. -1.
</event>
<event>
 7    1  0.2556591E-009  0.1195711E+03  0.7561462E-02  0.1243806E+00
          2   -1    0    0  501    0  0.00000000000E+00  0.00000000000E+00  0.29645337283E+03  0.29645337283E+03  0.00000000000E+00 0. -1.
         -2   -1    0    0    0  501 -0.00000000000E+00 -0.00000000000E+00 -0.70429502893E+02  0.70429502893E+02  0.00000000000E+00 0.  1.
         25    2    1    2    0    0 -0.69509191058E+02  0.51578729889E+02  0.17283078462E+03  0.23023663229E+03  0.12508610521E+03 0.  0.
          5    1    3    3  502    0 -0.27000538322E+02 -0.33840834563E+02  0.15471473248E+02  0.46163514144E+02  0.41800000000E+01 0.  1.
         -5    1    3    3    0  502 -0.42508652736E+02  0.85419564452E+02  0.15735931137E+03  0.18407311815E+03  0.41800000000E+01 0.  1.
        -11    1    1    2    0    0  0.64337002933E+02 -0.61470486110E+02  0.71497804164E+01  0.89269199442E+02  0.00000000000E+00 0.  1.
         11    1    1    2    0    0  0.51721881257E+01  0.98917562209E+01  0.46043304902E+02  0.47377043992E+02  0.00000000000E+00 0. -1.
</event>
<event>
 7    1  0.2556591E-009  0.1161982E+03  0.7561462E-02  0.1249504E+00
          1   -1    0    0  501    0  0.00000000000E+00  0.00000000000E+00  0.10013336425E+03  0.10013336425E+03  0.00000000000E+00 0. -1.
         -1   -1    0    0    0  501 -0.00000000000E+00 -0.00000000000E+00 -0.19060425709E+03  0.19060425709E+03  0.00000000000E+00 0.  1.
         25    2    1    2    0    0 -0.52728281039E+02 -0.46181982263E+02 -0.24718417528E+00  0.14338796453E+03  0.12508796970E+03 0.  0.
          5    1    3    3  502    0  0.16574622249E+02 -0.65920830846E+02 -0.14956847211E+02  0.69724125814E+02  0.41800000000E+01 0.  1.
         -5    1    3    3    0  502 -0.69302903288E+02  0.19738848582E+02  0.14709663036E+02  0.73663838714E+02  0.41800000000E+01 0.  1.
        -11    1    1    2    0    0  0.59103272858E+01  0.44892031532E+02  0.46400730260E+00  0.45281803922E+02  0.00000000000E+00 0. -1.
         11    1    1    2    0    0  0.46817953753E+02  0.12899507315E+01 -0.90687715969E+02  0.10206785289E+03  0.00000000000E+00 0.  1.
</event>
<event>
 7    1  0.2556591E-009  0.1223270E+03  0.7561462E-02  0.1239307E+00
         -2   -1    0    0    0  501 -0.00000000000E+00  0.00000000000E+00  0.56949154192E+02  0.56949154192E+02  0.00000000000E+00 0.  1.
          2   -1    0    0  501    0  0.00000000000E+00 -0.00000000000E+00 -0.51228654499E+03  0.51228654499E+03  0.00000000000E+00 0. -1.
         25    2    1    2    0    0 -0.11664846306E+03 -0.18626961303E+02 -0.14607695820E+03  0.22569942578E+03  0.12509166822E+03 0.  0.
          5    1    3    3  502    0 -0.47813388257E+02 -0.25722855604E+02 -0.14658382229E+03  0.15637159190E+03  0.41800000000E+01 0. -1.
         -5    1    3    3    0  502 -0.68835074806E+02  0.70958943011E+01  0.50686408366E+00  0.69327833881E+02  0.41800000000E+01 0. -1.
        -11    1    1    2    0    0  0.39302703611E+02  0.18708048326E+02 -0.22494734880E+03  0.22912006310E+03  0.00000000000E+00 0. -1.
         11    1    1    2    0    0  0.77345759452E+02 -0.81087023228E-01 -0.84313083796E+02  0.11441621030E+03  0.00000000000E+00 0.  1.
</event>
<event>
 7    1  0.2556591E-009  0.1448793E+03  0.7561462E-02  0.1206910E+00
          1   -1    0    0  501    0  0.00000000000E+00  0.00000000000E+00  0.25191920921E+02  0.25191920921E+02  0.00000000000E+00 0. -1.
         -1   -1    0    0    0  501 -0.00000000000E+00 -0.00000000000E+00 -0.10612085971E+04  0.10612085971E+04  0.00000000000E+00 0.  1.
         25    2    1    2    0    0  0.71094916823E+02  0.18547193265E+02 -0.67819731303E+03  0.69354031304E+03  0.12509230527E+03 0.  0.
          5    1    3    3  502    0  0.87792323747E+02 -0.17466478193E+02 -0.58954365741E+03  0.59631515691E+03  0.41800000000E+01 0. -1.
         -5    1    3    3    0  502 -0.16697406925E+02  0.36013671459E+02 -0.88653655615E+02  0.97225156127E+02  0.41800000000E+01 0. -1.
        -11    1    1    2    0    0  0.61809489352E+01 -0.68134842866E+02 -0.18348658641E+03  0.19582616867E+03  0.00000000000E+00 0.  1.
         11    1    1    2    0    0 -0.77275865758E+02  0.49587649600E+02 -0.17433277677E+03  0.19703403635E+03  0.00000000000E+00 0. -1.
</event>
<event>
 7    1  0.2556591E-009  0.1117402E+03  0.7561462E-02  0.1257381E+00
          2   -1    0    0  501    0  0.00000000000E+00  0.00000000000E+00  0.51872879430E+03  0.51872879430E+03  0.00000000000E+00 0. -1.
         -2   -1    0    0    0  501 -0.00000000000E+00 -0.00000000000E+00 -0.32604625639E+02  0.32604625639E+02  0.00000000000E+00 0.  1.
         25    2    1    2    0    0  0.64390642127E+02 -0.20335719803E+02  0.22404206613E+03  0.26533482029E+03  0.12509205878E+03 0.  0.
          5    1    3    3  502    0 -0.28238151072E+02  0.22353098971E+02  0.88620698261E+02  0.95750481826E+02  0.41800000000E+01 0. -1.
         -5    1    3    3    0  502  0.92628793199E+02 -0.42688818775E+02  0.13542136786E+03  0.16958433846E+03  0.41800000000E+01 0. -1.
        -11    1    1    2    0    0 -0.35732238450E+02 -0.15762983550E+02  0.22046872664E+03  0.22390114770E+03  0.00000000000E+00 0. -1.
         11    1    1    2    0    0 -0.28658403677E+02  0.36098703354E+02  0.41613375891E+02  0.62097451946E+02  0.00000000000E+00 0.  1.
</event>
<event>
 7    1  0.2556591E-009  0.1608399E+03  0.7561462E-02  0.1187752E+00
         -1   -1    0    0    0  501 -0.00000000000E+00  0.00000000000E+00  0.37221889898E+02  0.37221889898E+02  0.00000000000E+00 0.  1.
          1   -1    0    0  501    0  0.00000000000E+00 -0.00000000000E+00 -0.70535646146E+03  0.70535646146E+03  0.00000000000E+00 0. -1.
         25    2    1    2    0    0  0.11594870842E+03  0.28988930432E+02 -0.39012392206E+03  0.42676192941E+03  0.12507841045E+03 0.  0.
          5    1    3    3  502    0  0.91119040663E+02  0.76476282894E+02 -0.27849017163E+03  0.30286226161E+03  0.41800000000E+01 0.  1.
         -5    1    3    3    0  502  0.24829667757E+02 -0.47487352462E+02 -0.11163375044E+03  0.12389966780E+03  0.41800000000E+01 0.  1.
        -11    1    1    2    0    0 -0.22183552367E+02 -0.48312300017E+02 -0.82858041560E+02  0.98446144565E+02  0.00000000000E+00 0.  1.
         11    1    1    2    0    0 -0.93765156054E+02  0.19323369585E+02 -0.19515260794E+03  0.21737027738E+03  0.00000000000E+00 0. -1.
</event>
<event>
 7    1  0.2556591E-009  0.7798672E+02  0.7561462E-02  0.1334864E+00
         -3   -1    0    0    0  501 -0.00000000000E+00  0.00000000000E+00  0.17971838641E+03  0.17971838641E+03  0.00000000000E+00 0.  1.
          3   -1    0    0  501    0  0.00000000000E+00 -0.00000000000E+00 -0.65245726878E+02  0.65245726878E+02  0.00000000000E+00 0. -1.
         25    2    1    2    0    0 -0.75651368888E+01  0.65378994489E+00  0.72579512456E+02  0.14482449145E+03  0.12509471994E+03 0.  0.
          5    1    3    3  502    0 -0.50405211692E+02  0.42429330745E+01 -0.99068233588E+01  0.51713686736E+02  0.41800000000E+01 0.  1.
         -5    1    3    3    0  502  0.42840074803E+02 -0.35891431296E+01  0.82486335815E+02  0.93110804709E+02  0.41800000000E+01 0.  1.
        -11    1    1    2    0    0  0.24214727035E+02 -0.23508028835E+02 -0.14749849982E+02  0.36831216374E+02  0.00000000000E+00 0. -1.
         11    1    1    2    0    0 -0.16649590146E+02  0.22854238891E+02  0.56642997061E+02  0.63308405472E+02  0.00000000000E+00 0.  1.
</event>
<event>
 7    1  0.2556591E-009  0.1195979E+03  0.7561462E-02  0.1243762E+00
          1   -1    0    0  501    0  0.00000000000E+00  0.00000000000E+00  0.48910408352E+03  0.48910408352E+03  0.00000000000E+00 0. -1.
         -1   -1    0    0    0  501 -0.00000000000E+00 -0.00000000000E+00 -0.46927624048E+02  0.46927624048E+02  0.00000000000E+00 0.  1.
         25    2    1    2    0    0  0.89716731314E+02 -0.46049473214E+02  0.27275662789E+03  0.31656501481E+03  0.12509030610E+03 0.  0.
          5    1    3    3  502    0  0.10174948607E+03 -0.27226006913E+02  0.27422678512E+03  0.29378906625E+03  0.41800000000E+01 0. -1.
         -5    1    3    3    0  502 -0.12032754755E+02 -0.18823466301E+02 -0.14701572284E+01  0.22775948561E+02  0.41800000000E+01 0. -1.
        -11    1    1    2    0    0 -0.26248844845E+02 -0.82652542521E+01 -0.31916622455E+01  0.27703844344E+02  0.00000000000E+00 0.  1.
         11    1    1    2    0    0 -0.63467886469E+02  0.54314727466E+02  0.17261149383E+03  0.19176284842E+03  0.00000000000E+00 0. -1.
</event>
<event>
 7    1  0.2556591E-009  0.1095425E+03  0.7561462E-02  0.1261419E+00
          1   -1    0    0  501    0  0.00000000000E+00  0.00000000000E+00  0.12346129026E+03  0.12346129026E+03  0.00000000000E+00 0.  1.
         -1   -1    0    0    0  501 -0.00000000000E+00 -0.00000000000E+00 -0.10203562697E+03  0.10203562697E+03  0.00000000000E+00 0. -1.
         25    2    1    2    0    0  0.16337939071E+02 -0.25489360992E+02  0.50422867373E+01  0.12880467723E+03  0.12509430220E+03 0.  0.
          5    1    3    3  502    0 -0.52052015285E+02 -0.54304946801E+01  0.19420284777E+02  0.55977874456E+02  0.41800000000E+01 0. -1.
         -5    1    3    3    0  502  0.68389954356E+02 -0.20058866312E+02 -0.14377998040E+02  0.72826802774E+02  0.41800000000E+01 0. -1.
        -11    1    1    2    0    0 -0.45289763239E+02  0.42080413657E+02  0.84827152478E+01  0.62400964142E+02  0.00000000000E+00 0. -1.
         11    1    1    2    0    0  0.28951824168E+02 -0.16591052665E+02  0.79006613024E+01  0.34291275862E+02  0.00000000000E+00 0.  1.
</event>
<event>
 7    1  0.2556591E-009  0.1112305E+03  0.7561462E-02  0.1258308E+00
         -3   -1    0    0    0  501 -0.00000000000E+00  0.00000000000E+00  0.13147815058E+03  0.13147815058E+03  0.00000000000E+00 0.  1.
          3   -1    0    0  501    0  0.00000000000E+00 -0.00000000000E+00 -0.10617156736E+03  0.10617156736E+03  0.00000000000E+00 0. -1.
         25    2    1    2    0    0  0.11951443569E+02  0.32344344699E+02  0.47016055884E+02  0.13801149227E+03  0.12509064253E+03 0.  0.
          5    1    3    3  502    0  0.50705556462E+02  0.59181295383E+02  0.46172258367E+02  0.90679815957E+02  0.41800000000E+01 0. -1.
         -5    1    3    3    0  502 -0.38754112894E+02 -0.26836950684E+02  0.84379751736E+00  0.47331676311E+02  0.41800000000E+01 0. -1.
        -11    1    1    2    0    0  0.25389204124E+02  0.20329699348E+02 -0.46544425641E+01  0.32856843994E+02  0.00000000000E+00 0.  1.
         11    1    1    2    0    0 -0.37340647693E+02 -0.52674044048E+02 -0.17055030105E+02  0.66781381674E+02  0.00000000000E+00 0. -1.
</event>
<event>
 7    1  0.2556591E-009  0.9457836E+02  0.7561462E-02  0.1292129E+00
          2   -1    0    0  501    0  0.00000000000E+00  0.00000000000E+00  0.27941422641E+03  0.27941422641E+03  0.00000000000E+00 0.  1.
         -2   -1    0    0    0  501 -0.00000000000E+00 -0.00000000000E+00 -0.59949596279E+02  0.59949596279E+02  0.00000000000E+00 0. -1.
         25    2    1    2    0    0 -0.40201743220E+02 -0.50364960729E+02  0.13926872056E+03  0.19798105963E+03  0.12509162249E+03 0.  0.
          5    1    3    3  502    0 -0.21437301926E+01 -0.60247950200E+02  0.80871840015E+01  0.60969550002E+02  0.41800000000E+01 0. -1.
         -5    1    3    3    0  502 -0.38058013028E+02  0.98829894706E+01  0.13118153656E+03  0.13701150963E+03  0.41800000000E+01 0. -1.
        -11    1    1    2    0    0  0.40127373883E+02  0.13303905011E+01  0.83070230252E+02  0.92263964947E+02  0.00000000000E+00 0.  1.
         11    1    1    2    0    0  0.74369336695E-01  0.49034570228E+02 -0.28743206839E+01  0.49118798109E+02  0.00000000000E+00 0. -1.
</event>
<event>
 7    1  0.2556591E-009  0.9083191E+02  0.7561462E-02  0.1300850E+00
          1   -1    0    0  501    0  0.00000000000E+00  0.00000000000E+00  0.26120378216E+04  0.26120378216E+04  0.00000000000E+00 0. -1.
         -1   -1    0    0    0  501 -0.00000000000E+00 -0.00000000000E+00 -0.10698989899E+02  0.10698989899E+02  0.00000000000E+00 0.  1.
         25    2    1    2    0    0  0.15817022929E+02 -0.15015929848E+01  0.23687834400E+04  0.23721372370E+04  0.12509057814E+03 0.  0.
          5    1    3    3  502    0  0.51491465519E+02 -0.64424086591E+01  0.21282419876E+04  0.21288786499E+04  0.41800000000E+01 0. -1.
         -5    1    3    3    0  502 -0.35674442589E+02  0.49408156743E+01  0.24054145238E+03  0.24325858716E+03  0.41800000000E+01 0. -1.
        -11    1    1    2    0    0  0.96880788443E+01  0.43305483888E+02  0.11344651882E+03  0.12181681509E+03  0.00000000000E+00 0.  1.
         11    1    1    2    0    0 -0.25505101773E+02 -0.41803890903E+02  0.11910887287E+03  0.12878275936E+03  0.00000000000E+00 0. -1.
</event>
<event>
 7    1  0.2556591E-009  0.1228721E+03  0.7561462E-02  0.1238433E+00
          1   -1    0    0  501    0  0.00000000000E+00  0.00000000000E+00  0.53523845372E+02  0.53523845372E+02  0.00000000000E+00 0. -1.
         -1   -1    0    0    0  501 -0.00000000000E+00 -0.00000000000E+00 -0.43395100264E+03  0.43395100264E+03  0.00000000000E+00 0.  1.
         25    2    1    2    0    0 -0.18173300576E+02 -0.93404341594E+02 -0.13724143289E+03  0.20865771440E+03  0.12509272958E+03 0.  0.
          5    1    3    3  502    0  0.29382237577E+02  0.13931207500E+02 -0.59051565255E+02  0.67542240017E+02  0.41800000000E+01 0.  1.
         -5    1    3    3    0  502 -0.47555538153E+02 -0.10733554909E+03 -0.78189867637E+02  0.14111547438E+03  0.41800000000E+01 0.  1.
        -11    1    1    2    0    0  0.10216316518E+02  0.70556246182E+02 -0.24440684740E+03  0.25459234878E+03  0.00000000000E+00 0.  1.
         11    1    1    2    0    0  0.79569840576E+01  0.22848095411E+02  0.12211230227E+01  0.24224784842E+02  0.00000000000E+00 0. -1.
</event>
<event>
 7    1  0.2556591E-009  0.1185939E+03  0.7561462E-02  0.1245435E+00
         -1   -1    0    0    0  501 -0.00000000000E+00  0.00000000000E+00  0.52422492421E+02  0.52422492421E+02  0.00000000000E+00 0.  1.
          1   -1    0    0  501    0  0.00000000000E+00 -0.00000000000E+00 -0.43672099692E+03  0.43672099692E+03  0.00000000000E+00 0. -1.
         25    2    1    2    0    0 -0.20931510462E+02  0.55488311916E+02 -0.35420091053E+03  0.38029268414E+03  0.12508860741E+03 0.  0.
          5    1    3    3  502    0  0.35176386759E+02  0.66875831614E+02 -0.25147810468E+03  0.26261847721E+03  0.41800000000E+01 0. -1.
         -5    1    3    3    0  502 -0.56107897221E+02 -0.11387519699E+02 -0.10272280585E+03  0.11767420693E+03  0.41800000000E+01 0. -1.
        -11    1    1    2    0    0 -0.27696306417E+02 -0.47272012437E+02 -0.10514061940E+02  0.55787758939E+02  0.00000000000E+00 0.  1.
         11    1    1    2    0    0  0.48627816880E+02 -0.82162994786E+01 -0.19583532033E+02  0.53063046261E+02  0.00000000000E+00 0. -1.
</event>
<event>
 7    1  0.2556591E-009  0.1166024E+03  0.7561462E-02  0.1248810E+00
         -2   -1    0    0    0  501 -0.00000000000E+00  0.00000000000E+00  0.15422440184E+03  0.15422440184E+03  0.00000000000E+00 0.  1.
          2   -1    0    0  501    0  0.00000000000E+00 -0.00000000000E+00 -0.14793274507E+03  0.14793274507E+03  0.00000000000E+00 0. -1.
         25    2    1    2    0    0 -0.99885730423E+02  0.31154305073E+02  0.19168329427E+02  0.16420172837E+03  0.12508810047E+03 0.  0.
          5    1    3    3  502    0 -0.58986038919E+02  0.30493187097E+02 -0.50347468911E+02  0.83435767345E+02  0.41800000000E+01 0.  1.
         -5    1    3    3    0  502 -0.40899691504E+02  0.66111797640E+00  0.69515798337E+02  0.80765961027E+02  0.41800000000E+01 0.  1.
        -11    1    1    2    0    0  0.60523902364E+02  0.17469434317E+02  0.21513608678E+02  0.66566953145E+02  0.00000000000E+00 0.  1.
         11    1    1    2    0    0  0.39361828059E+02 -0.48623739390E+02 -0.34390281334E+02  0.71388465389E+02  0.00000000000E+00 0. -1.
</event>
<event>
 7    1  0.2556591E-009  0.1015825E+03  0.7561462E-02  0.1277003E+00
         -2   -1    0    0    0  501 -0.00000000000E+00  0.00000000000E+00  0.25169545378E+03  0.25169545378E+03  0.00000000000E+00 0.  1.
          2   -1    0    0  501    0  0.00000000000E+00 -0.00000000000E+00 -0.74582168930E+02  0.74582168930E+02  0.00000000000E+00 0. -1.
         25    2    1    2    0    0  0.19647191948E+02  0.78768124113E+02  0.11360842926E+03  0.18746932036E+03  0.12508973320E+03 0.  0.
          5    1    3    3  502    0  0.92321373122E+01  0.48359970811E+02 -0.17496738551E+02  0.52416861754E+02  0.41800000000E+01 0.  1.
         -5    1    3    3    0  502  0.10415054636E+02  0.30408153302E+02  0.13110516781E+03  0.13505245861E+03  0.41800000000E+01 0.  1.
        -11    1    1    2    0    0  0.33606968371E+02 -0.51544040637E+02  0.19477228857E+02  0.64541296022E+02  0.00000000000E+00 0.  1.
         11    1    1    2    0    0 -0.53254160319E+02 -0.27224083476E+02  0.44027626734E+02  0.74267006324E+02  0.00000000000E+00 0. -1.
</event>
<event>
 7    1  0.2556591E-009  0.1410977E+03  0.7561462E-02  0.1211860E+00
          2   -1    0    0  501    0  0.00000000000E+00  0.00000000000E+00  0.53332621432E+02  0.53332621432E+02  0.00000000000E+00 0. -1.
         -2   -1    0    0    0  501 -0.00000000000E+00 -0.00000000000E+00 -0.46940475336E+03  0.46940475336E+03  0.00000000000E+00 0.  1.
         25    2    1    2    0    0  0.94702483036E+02 -0.61875666755E+02 -0.23968947529E+03  0.29307941817E+03  0.12508933752E+03 0.  0.
          5    1    3    3  502    0  0.30374928367E+02 -0.92313386243E+02 -0.14315645712E+03  0.17307698047E+03  0.41800000000E+01 0. -1.
         -5    1    3    3    0  502  0.64327554669E+02  0.30437719488E+02 -0.96533018164E+02  0.12000243770E+03  0.41800000000E+01 0. -1.
        -11    1    1    2    0    0 -0.56592634118E+02  0.43192939243E+02 -0.17300545214E+03  0.18708084538E+03  0.00000000000E+00 0.  1.
         11    1    1    2    0    0 -0.38109848918E+02  0.18682727512E+02 -0.33772045007E+01  0.42577111247E+02  0.00000000000E+00 0. -1.
</event>
<event>
 7    1  0.2556591E-009  0.1180942E+03  0.7561462E-02  0.1246275E+00
         -2   -1    0    0    0  501 -0.00000000000E+00  0.00000000000E+00  0.34042590239E+02  0.34042590239E+02  0.00000000000E+00 0.  1.
          2   -1    0    0  501    0  0.00000000000E+00 -0.00000000000E+00 -0.62147722513E+03  0.62147722513E+03  0.00000000000E+00 0. -1.
         25    2    1    2    0    0  0.14545029270E+02 -0.59031281811E+02 -0.14966495503E+03  0.20431120331E+03  0.12508884413E+03 0.  0.
          5    1    3    3  502    0 -0.31139377157E-01 -0.97473802284E+02 -0.10996119257E+03  0.14700367129E+03  0.41800000000E+01 0.  1.
         -5    1    3    3    0  502  0.14576168647E+02  0.38442520473E+02 -0.39703762456E+02  0.57307532017E+02  0.41800000000E+01 0.  1.
        -11    1    1    2    0    0  0.30849648418E+02  0.16004262906E+02 -0.69937477255E+02  0.78096657825E+02  0.00000000000E+00 0.  1.
         11    1    1    2    0    0 -0.45394677688E+02  0.43027018905E+02 -0.36783220261E+03  0.37311195424E+03  0.00000000000E+00 0. -1.
</event>
<event>
 7    1  0.2556591E-009  0.5638465E+02  0.7561462E-02  0.1413662E+00
         -2   -1    0    0    0  501 -0.00000000000E+00  0.00000000000E+00  0.26714063888E+02  0.26714063888E+02  0.00000000000E+00 0.  1.
          2   -1    0    0  501    0  0.00000000000E+00 -0.00000000000E+00 -0.53373870678E+03  0.53373870678E+03  0.00000000000E+00 0. -1.
         25    2    1    2    0    0 -0.38143882124E+01 -0.58966233858E+01 -0.39840181529E+03  0.41763565826E+03  0.12508483882E+03 0.  0.
          5    1    3    3  502    0  0.26762211194E+02 -0.76500902561E+01 -0.38124525305E+03  0.38228282096E+03  0.41800000000E+01 0.  1.
         -5    1    3    3    0  502 -0.30576599407E+02  0.17534668703E+01 -0.17156562238E+02  0.35352837300E+02  0.41800000000E+01 0.  1.
        -11    1    1    2    0    0  0.24716454823E+02 -0.10787478227E+02  0.38202734134E+01  0.27237241316E+02  0.00000000000E+00 0.  1.
         11    1    1    2    0    0 -0.20902066611E+02  0.16684101613E+02 -0.11244310101E+03  0.11557987109E+03  0.00000000000E+00 0. -1.
</event>
<event>
 7    1  0.2903638E-009  0.1013043E+03  0.7561462E-02  0.1277577E+00
         -1   -1    0    0    0  501 -0.00000000000E+00  0.00000000000E+00  0.23357460642E+02  0.23357460642E+02  0.00000000000E+00 0.  1.
          1   -1    0    0  501    0  0.00000000000E+00 -0.00000000000E+00 -0.55918642338E+03  0.55918642338E+03  0.00000000000E+00 0. -1.
         25    2    1    2    0    0  0.30519674900E+02 -0.21215494453E+02 -0.30242483115E+03  0.32937812183E+03  0.12509045082E+03 0.  0.
          5    1    3    3  502    0  0.63033736127E+01 -0.71057234731E+02 -0.20656042512E+03  0.21857160097E+03  0.41800000000E+01 0.  1.
         -5    1    3    3    0  502  0.24216301287E+02  0.49841740278E+02 -0.95864406028E+02  0.11080652086E+03  0.41800000000E+01 0.  1.
        -11    1    1    2    0    0 -0.34844048133E+02 -0.15837725820E+02 -0.36946310765E+02  0.53197472953E+02  0.00000000000E+00 0.  1.
         11    1    1    2    0    0  0.43243732332E+01  0.37053220274E+02 -0.19645782082E+03  0.19996828923E+03  0.00000000000E+00 0. -1.
</event>
<event>
 7    1  0.2556591E-009  0.1087414E+03  0.7561462E-02  0.1262919E+00
          2   -1    0    0  501    0  0.00000000000E+00  0.00000000000E+00  0.14253774255E+03  0.14253774255E+03  0.00000000000E+00 0. -1.
         -2   -1    0    0    0  501 -0.00000000000E+00 -0.00000000000E+00 -0.10938867963E+03  0.10938867963E+03  0.00000000000E+00 0.  1.
         25    2    1    2    0    0 -0.12718525467E+01  0.77421285221E+02  0.10038031384E+02  0.14746046380E+03  0.12509257890E+03 0.  0.
          5    1    3    3  502    0 -0.42918355164E+02 -0.85350473974E+01  0.25186672032E+02  0.50662343927E+02  0.41800000000E+01 0.  1.
         -5    1    3    3    0  502  0.41646502617E+02  0.85956332618E+02 -0.15148640648E+02  0.96798119873E+02  0.41800000000E+01 0.  1.
        -11    1    1    2    0    0 -0.37528943256E+01 -0.30602157438E+02 -0.23073482897E+02  0.38509243938E+02  0.00000000000E+00 0.  1.
         11    1    1    2    0    0  0.50247468724E+01 -0.46819127783E+02  0.46184514433E+02  0.65956714449E+02  0.00000000000E+00 0. -1.
</event>
<event>
 7    1  0.2556591E-009  0.8702661E+02  0.7561462E-02  0.1310216E+00
          1   -1    0    0  501    0  0.00000000000E+00  0.00000000000E+00  0.17007833936E+03  0.17007833936E+03  0.00000000000E+00 0. -1.
         -1   -1    0    0    0  501 -0.00000000000E+00 -0.00000000000E+00 -0.80433779789E+02  0.80433779789E+02  0.00000000000E+00 0.  1.
         25    2    1    2    0    0 -0.63223078215E+01 -0.22855154852E+02  0.11491957875E+02  0.12783549900E+03  0.12509004768E+03 0.  0.
          5    1    3    3  502    0 -0.54479762904E+02 -0.10487141761E+02  0.41680458173E+02  0.69518038680E+02  0.41800000000E+01 0. -1.
         -5    1    3    3    0  502  0.48157455083E+02 -0.12368013091E+02 -0.30188500298E+02  0.58317460320E+02  0.41800000000E+01 0. -1.
        -11    1    1    2    0    0 -0.19721055391E+02  0.34697938907E+02  0.84428742212E+02  0.93386720157E+02  0.00000000000E+00 0. -1.
         11    1    1    2    0    0  0.26043363212E+02 -0.11842784054E+02 -0.62761405197E+01  0.29289899989E+02  0.00000000000E+00 0.  1.
</event>
<event>
 7    1  0.2556591E-009  0.1066837E+03  0.7561462E-02  0.1266837E+00
          1   -1    0    0  501    0  0.00000000000E+00  0.00000000000E+00  0.54761599184E+03  0.54761599184E+03  0.00000000000E+00 0. -1.
         -1   -1    0    0    0  501 -0.00000000000E+00 -0.00000000000E+00 -0.24964535823E+02  0.24964535823E+02  0.00000000000E+00 0.  1.
         25    2    1    2    0    0 -0.26817036431E+02  0.31454611550E+02  0.33253938768E+03  0.35768452842E+03  0.12508889433E+03 0.  0.
          5    1    3    3  502    0 -0.61296911374E+02  0.47830620377E+02  0.12997410599E+03  0.15151178243E+03  0.41800000000E+01 0. -1.
         -5    1    3    3    0  502  0.34479874943E+02 -0.16376008827E+02  0.20256528169E+03  0.20617274599E+03  0.41800000000E+01 0. -1.
        -11    1    1    2    0    0  0.59063852984E+02 -0.25407096355E+02  0.98903249074E+02  0.11796572363E+03  0.00000000000E+00 0.  1.
         11    1    1    2    0    0 -0.32246816553E+02 -0.60475151950E+01  0.91208819264E+02  0.96930275608E+02  0.00000000000E+00 0. -1.
</event>
<event>
 7    1  0.2556591E-009  0.1192185E+03  0.7561462E-02  0.1244392E+00
         -1   -1    0    0    0  501 -0.00000000000E+00  0.00000000000E+00  0.18731394173E+03  0.18731394173E+03  0.00000000000E+00 0.  1.
          1   -1    0    0  501    0  0.00000000000E+00 -0.00000000000E+00 -0.15662759473E+03  0.15662759473E+03  0.00000000000E+00 0. -1.
         25    2    1    2    0    0  0.61178756541E+02 -0.82661121033E+02 -0.66617885283E+02  0.17510363667E+03  0.12509052624E+03 0.  0.
          5    1    3    3  502    0  0.48073298566E+02 -0.15407511954E+02  0.28253740975E+02  0.58001549452E+02  0.41800000000E+01 0.  1.
         -5    1    3    3    0  502  0.13105457974E+02 -0.67253609079E+02 -0.94871626259E+02  0.11710208722E+03  0.41800000000E+01 0.  1.
        -11    1    1    2    0    0 -0.42632999945E+02  0.95232783033E+01 -0.24612338841E+01  0.43752979169E+02  0.00000000000E+00 0. -1.
         11    1    1    2    0    0 -0.18545756595E+02  0.73137842730E+02  0.99765466169E+02  0.12508492062E+03  0.00000000000E+00 0.  1.
</event>
<event>
 7    1  0.2556591E-009  0.1360130E+03  0.7561462E-02  0.1218797E+00
         -2   -1    0    0    0  501 -0.00000000000E+00  0.00000000000E+00  0.17333336995E+02  0.17333336995E+02  0.00000000000E+00 0.  1.
          2   -1    0    0  501    0  0.00000000000E+00 -0.00000000000E+00 -0.14853755020E+04  0.14853755020E+04  0.00000000000E+00 0. -1.
         25    2    1    2    0    0 -0.13132460732E+02  0.84392533404E+02 -0.11658928024E+04  0.11756903532E+04  0.12508884320E+03 0.  0.
          5    1    3    3  502    0 -0.57583416222E+02  0.41749522367E+01 -0.54136702284E+03  0.54445294183E+03  0.41800000000E+01 0.  1.
         -5    1    3    3    0  502  0.44450955490E+02  0.80217581168E+02 -0.62452577957E+03  0.63123741138E+03  0.41800000000E+01 0.  1.
        -11    1    1    2    0    0  0.39060545948E+02 -0.56916670314E+01 -0.67830585113E+02  0.78479994904E+02  0.00000000000E+00 0.  1.
         11    1    1    2    0    0 -0.25928085215E+02 -0.78700866373E+02 -0.23431877749E+03  0.24853849090E+03  0.00000000000E+00 0. -1.
</event>
<event>
 7    1  0.2556591E-009  0.2387667E+03  0.7561462E-02  0.1120617E+00
         -2   -1    0    0    0  501 -0.00000000000E+00  0.00000000000E+00  0.26603128331E+03  0.26603128331E+03  0.00000000000E+00 0.  1.
          2   -1    0    0  501    0  0.00000000000E+00 -0.00000000000E+00 -0.26025498890E+03  0.26025498890E+03  0.00000000000E+00 0. -1.
         25    2    1    2    0    0 -0.21701339859E+03  0.97323712197E+01  0.10327257404E+03  0.27111096482E+03  0.12508555663E+03 0.  0.
          5    1    3    3  502    0 -0.11259646660E+03 -0.55572333798E+02  0.35868682882E+02  0.13065329458E+03  0.41800000000E+01 0. -1.
         -5    1    3    3    0  502 -0.10441693199E+03  0.65304705018E+02  0.67403891163E+02  0.14045767024E+03  0.41800000000E+01 0. -1.
        -11    1    1    2    0    0  0.16700709062E+03 -0.37935111226E+02 -0.44278358576E+02  0.17689266242E+03  0.00000000000E+00 0.  1.
         11    1    1    2    0    0  0.50006307972E+02  0.28202740006E+02 -0.53217921055E+02  0.78282644963E+02  0.00000000000E+00 0. -1.
</event>
<event>
 7    1  0.2556591E-009  0.3727043E+03  0.7561462E-02  0.1053664E+00
          2   -1    0    0  501    0  0.00000000000E+00  0.00000000000E+00  0.11574802924E+04  0.11574802924E+04  0.00000000000E+00 0. -1.
         -2   -1    0    0    0  501 -0.00000000000E+00 -0.00000000000E+00 -0.13370133017E+03  0.13370133017E+03  0.00000000000E+00 0.  1.
         25    2    1    2    0    0  0.21325120711E+03  0.29177168277E+03  0.69887830465E+03  0.79667144140E+03  0.12509080160E+03 0.  0.
          5    1    3    3  502    0  0.79282972439E+02  0.34142224824E+02  0.10833329811E+03  0.13858231170E+03  0.41800000000E+01 0. -1.
         -5    1    3    3    0  502  0.13396823467E+03  0.25762945794E+03  0.59054500653E+03  0.65808912971E+03  0.41800000000E+01 0. -1.
        -11    1    1    2    0    0 -0.80271495454E+02 -0.55957191906E+02  0.55087513718E+02  0.11229138202E+03  0.00000000000E+00 0.  1.
         11    1    1    2    0    0 -0.13297971166E+03 -0.23581449086E+03  0.26981314386E+03  0.38221879913E+03  0.00000000000E+00 0. -1.
</event>
<event>
 7    1  0.2556591E-009  0.1610551E+03  0.7561462E-02  0.1187511E+00
         -1   -1    0    0    0  501 -0.00000000000E+00  0.00000000000E+00  0.84823283738E+02  0.84823283738E+02  0.00000000000E+00 0.  1.
          1   -1    0    0  501    0  0.00000000000E+00 -0.00000000000E+00 -0.33745839835E+03  0.33745839835E+03  0.00000000000E+00 0. -1.
         25    2    1    2    0    0  0.12304678584E+03 -0.53290134252E+01 -0.19336306681E+03  0.26116159571E+03  0.12508874281E+03 0.  0.
          5    1    3    3  502    0  0.37521447371E+02  0.57886157662E+02 -0.75603867289E+02  0.10243087138E+03  0.41800000000E+01 0.  1.
         -5    1    3    3    0  502  0.85525338472E+02 -0.63215171087E+02 -0.11775919952E+03  0.15873072434E+03  0.41800000000E+01 0.  1.
        -11    1    1    2    0    0 -0.62142400998E+02 -0.37068018468E+02 -0.12577560136E+02  0.73443250296E+02  0.00000000000E+00 0.  1.
         11    1    1    2    0    0 -0.60904384845E+02  0.42397031894E+02 -0.46694487663E+02  0.87676836079E+02  0.00000000000E+00 0. -1.
</event>
<event>
 7    1  0.2556591E-009  0.1302422E+03  0.7561462E-02  0.1227097E+00
          3   -1    0    0  501    0  0.00000000000E+00  0.00000000000E+00  0.12860727184E+03  0.12860727184E+03  0.00000000000E+00 0. -1.
         -3   -1    0    0    0  501 -0.00000000000E+00 -0.00000000000E+00 -0.18316580042E+03  0.18316580042E+03  0.00000000000E+00 0.  1.
         25    2    1    2    0    0 -0.32072073667E+02  0.10046923452E+03 -0.48224741418E+02  0.17057485440E+03  0.12508984880E+03 0.  0.
          5    1    3    3  502    0 -0.16843331973E+02  0.10211060162E+03  0.15655302311E+02  0.10475129443E+03  0.41800000000E+01 0. -1.
         -5    1    3    3    0  502 -0.15228741694E+02 -0.16413671023E+01 -0.63880043728E+02  0.65823559964E+02  0.41800000000E+01 0. -1.
        -11    1    1    2    0    0  0.25121871378E+02  0.12354095400E+02 -0.22897289103E+01  0.28088697961E+02  0.00000000000E+00 0. -1.
         11    1    1    2    0    0  0.69502022893E+01 -0.11282332992E+03 -0.40440582533E+01  0.11310951990E+03  0.00000000000E+00 0.  1.
</event>
<event>
 7    1  0.2556591E-009  0.1217871E+03  0.7561462E-02  0.1240178E+00
         -1   -1    0    0    0  501 -0.00000000000E+00  0.00000000000E+00  0.28093501721E+02  0.28093501721E+02  0.00000000000E+00 0.  1.
          1   -1    0    0  501    0  0.00000000000E+00 -0.00000000000E+00 -0.73985571185E+03  0.73985571185E+03  0.00000000000E+00 0. -1.
         25    2    1    2    0    0  0.42445518826E+02 -0.80823117486E+02 -0.45350172629E+03  0.47921366007E+03  0.12509163787E+03 0.  0.
          5    1    3    3  502    0  0.43187006324E+02 -0.92824657286E+02 -0.45500078573E+03  0.46639545659E+03  0.41800000000E+01 0. -1.
         -5    1    3    3    0  502 -0.74148749808E+00  0.12001539800E+02  0.14990594399E+01  0.12818203481E+02  0.41800000000E+01 0. -1.
        -11    1    1    2    0    0 -0.42864490512E+02  0.10020745742E+03 -0.20718304764E+03  0.23410193143E+03  0.00000000000E+00 0.  1.
         11    1    1    2    0    0  0.41897168625E+00 -0.19384339929E+02 -0.51077436204E+02  0.54633622074E+02  0.00000000000E+00 0. -1.
</event>
<event>
 7    1  0.3528777E-009  0.1443706E+03  0.7561462E-02  0.1207566E+00
          2   -1    0    0  501    0  0.00000000000E+00  0.00000000000E+00  0.12855607383E+04  0.12855607383E+04  0.00000000000E+00 0. -1.
         -2   -1    0    0    0  501 -0.00000000000E+00 -0.00000000000E+00 -0.21654786466E+02  0.21654786466E+02  0.00000000000E+00 0.  1.
         25    2    1    2    0    0  0.11426881613E+03 -0.14241355271E+02  0.87869158193E+03  0.89498961450E+03  0.12508930958E+03 0.  0.
          5    1    3    3  502    0  0.11364757380E+03  0.29008791106E+02  0.75076816554E+03  0.75988656508E+03  0.41800000000E+01 0. -1.
         -5    1    3    3    0  502  0.62124233472E+00 -0.43250146378E+02  0.12792341639E+03  0.13510304943E+03  0.41800000000E+01 0. -1.
        -11    1    1    2    0    0 -0.34430109698E+02 -0.21343671185E+02  0.43214554336E+02  0.59232444318E+02  0.00000000000E+00 0.  1.
         11    1    1    2    0    0 -0.79838706433E+02  0.35585026456E+02  0.34199981560E+03  0.35299346598E+03  0.00000000000E+00 0. -1.
</event>
<event>
 7    1  0.2556591E-009  0.8341667E+02  0.7561462E-02  0.1319626E+00
          2   -1    0    0  501    0  0.00000000000E+00  0.00000000000E+00  0.24366053291E+03  0.24366053291E+03  0.00000000000E+00 0.  1.
         -2   -1    0    0    0  501 -0.00000000000E+00 -0.00000000000E+00 -0.68499391909E+02  0.68499391909E+02  0.00000000000E+00 0. -1.
         25    2    1    2    0    0 -0.22843736203E+02  0.35732049245E+02  0.16488767629E+03  0.21127535576E+03  0.12510281583E+03 0.  0.
          5    1    3    3  502    0  0.34399414053E+02  0.31811752856E+02  0.12918983655E+02  0.48781962298E+02  0.41800000000E+01 0. -1.
         -5    1    3    3    0  502 -0.57243150256E+02  0.39202963887E+01  0.15196869264E+03  0.16249339346E+03  0.41800000000E+01 0. -1.
        -11    1    1    2    0    0 -0.74985121684E+01 -0.30581707411E+02  0.44719308042E+02  0.54692641412E+02  0.00000000000E+00 0.  1.
         11    1    1    2    0    0  0.30342248372E+02 -0.51503418339E+01 -0.34445843333E+02  0.46191927652E+02  0.00000000000E+00 0. -1.
</event>
<event>
 7    1  0.2556591E-009  0.1102045E+03  0.7561462E-02  0.1260192E+00
         -1   -1    0    0    0  501 -0.00000000000E+00  0.00000000000E+00  0.10902642407E+03  0.10902642407E+03  0.00000000000E+00 0.  1.
          1   -1    0    0  501    0  0.00000000000E+00 -0.00000000000E+00 -0.12955431808E+03  0.12955431808E+03  0.00000000000E+00 0. -1.
         25    2    1    2    0    0 -0.33016817743E+02  0.93445782473E+01  0.14294879721E+02  0.13049637143E+03  0.12509007944E+03 0.  0.
          5    1    3    3  502    0  0.44420463747E+02  0.20194797987E+02 -0.66869490281E+01  0.49428687546E+02  0.41800000000E+01 0.  1.
         -5    1    3    3    0  502 -0.77437281489E+02 -0.10850219740E+02  0.20981828749E+02  0.81067683885E+02  0.41800000000E+01 0.  1.
        -11    1    1    2    0    0  0.53768525778E+02  0.19846042534E+02  0.11455500255E+01  0.57325666621E+02  0.00000000000E+00 0.  1.
         11    1    1    2    0    0 -0.20751708036E+02 -0.29190620781E+02 -0.35968323760E+02  0.50758704102E+02  0.00000000000E+00 0. -1.
</event>
<event>
 7    1  0.2556591E-009  0.1626420E+03  0.7561462E-02  0.1185746E+00
          1   -1    0    0  501    0  0.00000000000E+00  0.00000000000E+00  0.44678810436E+03  0.44678810436E+03  0.00000000000E+00 0. -1.
         -1   -1    0    0    0  501 -0.00000000000E+00 -0.00000000000E+00 -0.66447452910E+02  0.66447452910E+02  0.00000000000E+00 0.  1.
         25    2    1    2    0    0 -0.17901615873E+02  0.11960560053E+03  0.12009227692E+03  0.21141415388E+03  0.12509125451E+03 0.  0.
          5    1    3    3  502    0  0.15283364063E+02  0.13587757291E+03  0.94357989945E+02  0.16618423121E+03  0.41800000000E+01 0.  1.
         -5    1    3    3    0  502 -0.33184979937E+02 -0.16271972374E+02  0.25734286974E+02  0.45229922666E+02  0.41800000000E+01 0.  1.
        -11    1    1    2    0    0 -0.16283145227E+02 -0.11574900397E+03  0.21779438029E+03  0.24717881144E+03  0.00000000000E+00 0. -1.
         11    1    1    2    0    0  0.34184761101E+02 -0.38565965618E+01  0.42453994243E+02  0.54642591957E+02  0.00000000000E+00 0.  1.
</event>
<event>
 7    1  0.2556591E-009  0.1092388E+03  0.7561462E-02  0.1261986E+00
          2   -1    0    0  501    0  0.00000000000E+00  0.00000000000E+00  0.22082398039E+03  0.22082398039E+03  0.00000000000E+00 0. -1.
         -2   -1    0    0    0  501 -0.00000000000E+00 -0.00000000000E+00 -0.69989426782E+02  0.69989426782E+02  0.00000000000E+00 0.  1.
         25    2    1    2    0    0  0.30002257081E+02 -0.69805577997E+02  0.65676522731E+02  0.16041731629E+03  0.12508939035E+03 0.  0.
          5    1    3    3  502    0  0.66293899312E+02 -0.58821661605E+02  0.80198141173E+02  0.11959967896E+03  0.41800000000E+01 0. -1.
         -5    1    3    3    0  502 -0.36291642231E+02 -0.10983916393E+02 -0.14521618442E+02  0.40817637332E+02  0.41800000000E+01 0. -1.
        -11    1    1    2    0    0 -0.21697799595E+02  0.77379897144E+02  0.87615877391E+02  0.11889064286E+03  0.00000000000E+00 0. -1.
         11    1    1    2    0    0 -0.83044574852E+01 -0.75743191469E+01 -0.24578465113E+01  0.11505448020E+02  0.00000000000E+00 0.  1.
</event>
<event>
 7    1  0.2556591E-009  0.6400653E+02  0.7561462E-02  0.1381748E+00
          2   -1    0    0  501    0  0.00000000000E+00  0.00000000000E+00  0.73525133942E+03  0.73525133942E+03  0.00000000000E+00 0. -1.
         -2   -1    0    0    0  501 -0.00000000000E+00 -0.00000000000E+00 -0.24851994522E+02  0.24851994522E+02  0.00000000000E+00 0.  1.
         25    2    1    2    0    0  0.10947734861E+02  0.29758309455E+02  0.60550756100E+03  0.61910644503E+03  0.12509186212E+03 0.  0.
          5    1    3    3  502    0 -0.47463614596E+01  0.21232429237E+02  0.59934727142E+03  0.59975659075E+03  0.41800000000E+01 0.  1.
         -5    1    3    3    0  502  0.15694096321E+02  0.85258802175E+01  0.61602895867E+01  0.19349854278E+02  0.41800000000E+01 0.  1.
        -11    1    1    2    0    0 -0.39452464741E+02 -0.40977210488E+02  0.91104407567E+02  0.10740410528E+03  0.00000000000E+00 0. -1.
         11    1    1    2    0    0  0.28504729880E+02  0.11218901033E+02  0.13787376330E+02  0.33592783630E+02  0.00000000000E+00 0.  1.
</event>
<event>
 7    1  0.2556591E-009  0.2331319E+03  0.7561462E-02  0.1124455E+00
          1   -1    0    0  501    0  0.00000000000E+00  0.00000000000E+00  0.92308029032E+02  0.92308029032E+02  0.00000000000E+00 0. -1.
         -1   -1    0    0    0  501 -0.00000000000E+00 -0.00000000000E+00 -0.88482338550E+03  0.88482338550E+03  0.00000000000E+00 0.  1.
         25    2    1    2    0    0  0.11690294630E+03 -0.18150696657E+03 -0.66582901974E+03  0.71104634274E+03  0.12509012845E+03 0.  0.
          5    1    3    3  502    0  0.42798550576E+02 -0.16515711761E+03 -0.40818399243E+03  0.44242539880E+03  0.41800000000E+01 0.  1.
         -5    1    3    3    0  502  0.74104395727E+02 -0.16349848958E+02 -0.25764502731E+03  0.26862094394E+03  0.41800000000E+01 0.  1.
        -11    1    1    2    0    0 -0.83804874391E+02  0.15849370334E+03 -0.13561000472E+03  0.22479676232E+03  0.00000000000E+00 0.  1.
         11    1    1    2    0    0 -0.33098071912E+02  0.23013263233E+02  0.89236679847E+01  0.41288309474E+02  0.00000000000E+00 0. -1.
</event>
<event>
 7    1  0.2556591E-009  0.1078208E+03  0.7561462E-02  0.1264659E+00
         -3   -1    0    0    0  501 -0.00000000000E+00  0.00000000000E+00  0.57095565679E+02  0.57095565679E+02  0.00000000000E+00 0.  1.
          3   -1    0    0  501    0  0.00000000000E+00 -0.00000000000E+00 -0.22648759450E+03  0.22648759450E+03  0.00000000000E+00 0. -1.
         25    2    1    2    0    0 -0.27739523635E+02 -0.13203850954E+02 -0.89501676070E+02  0.15685253326E+03  0.12509334242E+03 0.  0.
          5    1    3    3  502    0 -0.71362958100E+02 -0.17439611247E+02 -0.85259900744E+02  0.11262120095E+03  0.41800000000E+01 0.  1.
         -5    1    3    3    0  502  0.43623434464E+02  0.42357602931E+01 -0.42417753263E+01  0.44231332307E+02  0.41800000000E+01 0.  1.
        -11    1    1    2    0    0  0.57704454901E+02 -0.11926819547E+02 -0.42766004549E+02  0.72807858677E+02  0.00000000000E+00 0. -1.
         11    1    1    2    0    0 -0.29964931266E+02  0.25130670501E+02 -0.37124348203E+02  0.53922768244E+02  0.00000000000E+00 0.  1.
</event>
<event>
 7    1  0.2556591E-009  0.1216445E+03  0.7561462E-02  0.1240409E+00
          1   -1    0    0  501    0  0.00000000000E+00  0.00000000000E+00  0.30105944784E+02  0.30105944784E+02  0.00000000000E+00 0. -1.
         -1   -1    0    0    0  501 -0.00000000000E+00 -0.00000000000E+00 -0.61102023900E+03  0.61102023900E+03  0.00000000000E+00 0.  1.
         25    2    1    2    0    0 -0.31652065967E+02 -0.68012166874E+02 -0.38582844425E+03  0.41248152698E+03  0.12509961467E+03 0.  0.
          5    1    3    3  502    0  0.30325560645E+02 -0.73211912268E+02 -0.26344927509E+03  0.27514108503E+03  0.41800000000E+01 0. -1.
         -5    1    3    3    0  502 -0.61977626611E+02  0.51997453932E+01 -0.12237916916E+03  0.13734044196E+03  0.41800000000E+01 0. -1.
        -11    1    1    2    0    0  0.36201201921E+02  0.28880775716E+01 -0.13541448830E+03  0.14019968493E+03  0.00000000000E+00 0.  1.
         11    1    1    2    0    0 -0.45491359547E+01  0.65124089303E+02 -0.59671361663E+02  0.88444971865E+02  0.00000000000E+00 0. -1.
</event>
<event>
 7    1  0.2556591E-009  0.1111008E+03  0.7561462E-02  0.1258545E+00
          2   -1    0    0  501    0  0.00000000000E+00  0.00000000000E+00  0.33040862564E+03  0.33040862564E+03  0.00000000000E+00 0.  1.
         -2   -1    0    0    0  501 -0.00000000000E+00 -0.00000000000E+00 -0.58459589680E+02  0.58459589680E+02  0.00000000000E+00 0. -1.
         25    2    1    2    0    0 -0.12229407201E+02 -0.51095864526E+02  0.24337601822E+03  0.27863970844E+03  0.12509138701E+03 0.  0.
          5    1    3    3  502    0 -0.30923182375E+02  0.24087005443E+02  0.15985417007E+03  0.16464281074E+03  0.41800000000E+01 0. -1.
         -5    1    3    3    0  502  0.18693775175E+02 -0.75182869969E+02  0.83521848149E+02  0.11399689770E+03  0.41800000000E+01 0. -1.
        -11    1    1    2    0    0 -0.12814659405E+02 -0.23359061631E+02  0.14794486936E+02  0.30475204670E+02  0.00000000000E+00 0.  1.
         11    1    1    2    0    0  0.25044066606E+02  0.74454926158E+02  0.13778530797E+02  0.79753302202E+02  0.00000000000E+00 0. -1.
</event>
<event>
 7    1  0.2556591E-009  0.9356174E+02  0.7561462E-02  0.1294449E+00
         -1   -1    0    0    0  501 -0.00000000000E+00  0.00000000000E+00  0.97861451237E+02  0.97861451237E+02  0.00000000000E+00 0.  1.
          1   -1    0    0  501    0  0.00000000000E+00 -0.00000000000E+00 -0.15606945049E+03  0.15606945049E+03  0.00000000000E+00 0. -1.
         25    2    1    2    0    0 -0.22061291433E+02 -0.34581347616E+02  0.16161839239E+02  0.13263039394E+03  0.12508815358E+03 0.  0.
          5    1    3    3  502    0  0.41774346236E+02  0.12154491624E+02  0.28885418465E+02  0.52389574059E+02  0.41800000000E+01 0.  1.
         -5    1    3    3    0  502 -0.63835637670E+02 -0.46735839240E+02 -0.12723579227E+02  0.80240819877E+02  0.41800000000E+01 0.  1.
        -11    1    1    2    0    0 -0.13217821707E+02  0.23931884015E+02  0.10097330342E+02  0.29144501423E+02  0.00000000000E+00 0.  1.
         11    1    1    2    0    0  0.35279113141E+02  0.10649463602E+02 -0.84467168833E+02  0.92156006368E+02  0.00000000000E+00 0. -1.
</event>
<event>
 7    1  0.2556591E-009  0.1079236E+03  0.7561462E-02  0.1264464E+00
          2   -1    0    0  501    0  0.00000000000E+00  0.00000000000E+00  0.26833099761E+03  0.26833099761E+03  0.00000000000E+00 0.  1.
         -2   -1    0    0    0  501 -0.00000000000E+00 -0.00000000000E+00 -0.93791873142E+02  0.93791873142E+02  0.00000000000E+00 0. -1.
         25    2    1    2    0    0  0.70279901011E+02 -0.67852584625E+02  0.16300430854E+03  0.22751064880E+03  0.12508977970E+03 0.  0.
          5    1    3    3  502    0 -0.48110251296E+01  0.76391779962E+01  0.10637179308E+03  0.10683601344E+03  0.41800000000E+01 0. -1.
         -5    1    3    3    0  502  0.75090926140E+02 -0.75491762621E+02  0.56632515457E+02  0.12067463536E+03  0.41800000000E+01 0. -1.
        -11    1    1    2    0    0 -0.96943442149E+01  0.19669698116E+02  0.45169711042E+02  0.50211354586E+02  0.00000000000E+00 0.  1.
         11    1    1    2    0    0 -0.60585556796E+02  0.48182886509E+02 -0.33634895109E+02  0.84400867375E+02  0.00000000000E+00 0. -1.
</event>
<event>
 7    1  0.2556591E-009  0.3075888E+03  0.7561462E-02  0.1081507E+00
          1   -1    0    0  501    0  0.00000000000E+00  0.00000000000E+00  0.49118647198E+03  0.49118647198E+03  0.00000000000E+00 0. -1.
         -1   -1    0    0    0  501 -0.00000000000E+00 -0.00000000000E+00 -0.20817169014E+03  0.20817169014E+03  0.00000000000E+00 0.  1.
         25    2    1    2    0    0  0.26036423824E+03 -0.14497334792E+03  0.18791431371E+03  0.37385313341E+03  0.12509023904E+03 0.  0.
          5    1    3    3  502    0  0.74199757145E+02 -0.62017394684E+01 -0.84963396208E+00  0.74580559200E+02  0.41800000000E+01 0.  1.
         -5    1    3    3    0  502  0.18616448109E+03 -0.13877160845E+03  0.18876394767E+03  0.29927257421E+03  0.41800000000E+01 0.  1.
        -11    1    1    2    0    0 -0.20979911255E+03  0.14947852390E+03  0.62185906397E+02  0.26500298807E+03  0.00000000000E+00 0.  1.
         11    1    1    2    0    0 -0.50565125692E+02 -0.45051759784E+01  0.32914561736E+02  0.60502040636E+02  0.00000000000E+00 0. -1.
</event>
<event>
 7    1  0.2556591E-009  0.1571048E+03  0.7561462E-02  0.1192005E+00
         -1   -1    0    0    0  501 -0.00000000000E+00  0.00000000000E+00  0.40895667396E+03  0.40895667396E+03  0.00000000000E+00 0.  1.
          1   -1    0    0  501    0  0.00000000000E+00 -0.00000000000E+00 -0.68256048248E+02  0.68256048248E+02  0.00000000000E+00 0. -1.
         25    2    1    2    0    0 -0.10913231571E+03 -0.63577363918E+02  0.19344227953E+03  0.26271574867E+03  0.12509078925E+03 0.  0.
          5    1    3    3  502    0 -0.14693590273E+02 -0.66665489273E+02  0.13553902557E+03  0.15181728791E+03  0.41800000000E+01 0. -1.
         -5    1    3    3    0  502 -0.94438725434E+02  0.30881253548E+01  0.57903253955E+02  0.11089846076E+03  0.41800000000E+01 0. -1.
        -11    1    1    2    0    0  0.39807812482E+02 -0.18416888862E+02  0.20621675252E+02  0.48467486217E+02  0.00000000000E+00 0.  1.
         11    1    1    2    0    0  0.69324503224E+02  0.81994252781E+02  0.12663667093E+03  0.16602948732E+03  0.00000000000E+00 0. -1.
</event>
<event>
 7    1  0.2556591E-009  0.1324406E+03  0.7561462E-02  0.1223879E+00
          1   -1    0    0  501    0  0.00000000000E+00  0.00000000000E+00  0.10479608151E+03  0.10479608151E+03  0.00000000000E+00 0. -1.
         -1   -1    0    0    0  501 -0.00000000000E+00 -0.00000000000E+00 -0.20226364860E+03  0.20226364860E+03  0.00000000000E+00 0.  1.
         25    2    1    2    0    0 -0.77130675217E+02  0.10405525165E+02 -0.11437136022E+03  0.18649841373E+03  0.12507371535E+03 0.  0.
          5    1    3    3  502    0 -0.10016869946E+03  0.41266776553E+02 -0.88000907167E+02  0.13963648256E+03  0.41800000000E+01 0.  1.
         -5    1    3    3    0  502  0.23038024247E+02 -0.30861251388E+02 -0.26370453057E+02  0.46861931169E+02  0.41800000000E+01 0.  1.
        -11    1    1    2    0    0  0.74613153895E+02 -0.42275318754E+02  0.21108254033E+02  0.88316950231E+02  0.00000000000E+00 0. -1.
         11    1    1    2    0    0  0.25175213228E+01  0.31869793589E+02 -0.42044609033E+01  0.32244366151E+02  0.00000000000E+00 0.  1.
</event>
<event>
 7    1  0.2556591E-009  0.8935972E+02  0.7561462E-02  0.1304410E+00
          1   -1    0    0  501    0  0.00000000000E+00  0.00000000000E+00  0.81909284778E+03  0.81909284778E+03  0.00000000000E+00 0. -1.
         -1   -1    0    0    0  501 -0.00000000000E+00 -0.00000000000E+00 -0.16947337817E+02  0.16947337817E+02  0.00000000000E+00 0.  1.
         25    2    1    2    0    0 -0.37897595129E+02 -0.25356236466E+02  0.39149663164E+03  0.41351920380E+03  0.12509737358E+03 0.  0.
          5    1    3    3  502    0 -0.58468725060E+02 -0.20426600346E+02  0.38641064941E+03  0.39136491947E+03  0.41800000000E+01 0.  1.
         -5    1    3    3    0  502  0.20571129931E+02 -0.49296361197E+01  0.50859822334E+01  0.22154284330E+02  0.41800000000E+01 0.  1.
        -11    1    1    2    0    0  0.10453950263E+02  0.54240628713E+02  0.29692727773E+03  0.30202175276E+03  0.00000000000E+00 0. -1.
         11    1    1    2    0    0  0.27443644866E+02 -0.28884392247E+02  0.11372160059E+03  0.12049922904E+03  0.00000000000E+00 0.  1.
</event>
<event>
 7    1  0.2556591E-009  0.1806909E+03  0.7561462E-02  0.1167136E+00
         -1   -1    0    0    0  501 -0.00000000000E+00  0.00000000000E+00  0.32769560529E+03  0.32769560529E+03  0.00000000000E+00 0.  1.
          1   -1    0    0  501    0  0.00000000000E+00 -0.00000000000E+00 -0.11641463980E+03  0.11641463980E+03  0.00000000000E+00 0. -1.
         25    2    1    2    0    0  0.11242292261E+03 -0.11603812937E+03  0.12957394618E+03  0.24195084539E+03  0.12508814116E+03 0.  0.
          5    1    3    3  502    0 -0.11282193676E+02 -0.14134629643E+02 -0.16666383928E+02  0.24946270313E+02  0.41800000000E+01 0. -1.
         -5    1    3    3    0  502  0.12370511629E+03 -0.10190349972E+03  0.14624033011E+03  0.21700457507E+03  0.41800000000E+01 0. -1.
        -11    1    1    2    0    0 -0.43900488708E+02  0.10404676863E+03  0.66150832242E+02  0.13087748308E+03  0.00000000000E+00 0. -1.
         11    1    1    2    0    0 -0.68522433907E+02  0.11991360735E+02  0.15556187065E+02  0.71281916618E+02  0.00000000000E+00 0.  1.
</event>
<event>
 7    1  0.2556591E-009  0.1119280E+03  0.7561462E-02  0.1257041E+00
         -2   -1    0    0    0  501 -0.00000000000E+00  0.00000000000E+00  0.69066498289E+02  0.69066498289E+02  0.00000000000E+00 0.  1.
          2   -1    0    0  501    0  0.00000000000E+00 -0.00000000000E+00 -0.21262796082E+03  0.21262796082E+03  0.00000000000E+00 0. -1.
         25    2    1    2    0    0  0.10939984511E+02  0.29690752117E+02 -0.13365980773E+03  0.18577739418E+03  0.12508825669E+03 0.  0.
          5    1    3    3  502    0  0.24686681737E+02  0.76119623425E+02 -0.89213307099E+02  0.11991712092E+03  0.41800000000E+01 0.  1.
         -5    1    3    3    0  502 -0.13746697226E+02 -0.46428871307E+02 -0.44446500630E+02  0.65860273259E+02  0.41800000000E+01 0.  1.
        -11    1    1    2    0    0 -0.78404797775E+01  0.32207012076E+02  0.51136328814E-01  0.33147660022E+02  0.00000000000E+00 0. -1.
         11    1    1    2    0    0 -0.30995047334E+01 -0.61897764193E+02 -0.99527911327E+01  0.62769404912E+02  0.00000000000E+00 0.  1.
</event>
<event>
 7    1  0.2556591E-009  0.1591489E+03  0.7561462E-02  0.1189661E+00
          2   -1    0    0  501    0  0.00000000000E+00  0.00000000000E+00  0.12474058454E+04  0.12474058454E+04  0.00000000000E+00 0. -1.
         -2   -1    0    0    0  501 -0.00000000000E+00 -0.00000000000E+00 -0.41576140863E+02  0.41576140863E+02  0.00000000000E+00 0.  1.
         25    2    1    2    0    0  0.13555275907E+03  0.42966451655E+02  0.10140522689E+04  0.10315856260E+04  0.12508490445E+03 0.  0.
          5    1    3    3  502    0  0.92642814291E+02  0.82831327227E+00  0.87662400925E+03  0.88151602545E+03  0.41800000000E+01 0. -1.
         -5    1    3    3    0  502  0.42909944784E+02  0.42138138382E+02  0.13742825965E+03  0.15006960058E+03  0.41800000000E+01 0. -1.
        -11    1    1    2    0    0 -0.10620585305E+03  0.79499672452E+01  0.15501819394E+03  0.18807850928E+03  0.00000000000E+00 0.  1.
         11    1    1    2    0    0 -0.29346906029E+02 -0.50916418900E+02  0.36759241656E+02  0.69317850905E+02  0.00000000000E+00 0. -1.
</event>
<event>
 7    1  0.2556591E-009  0.1525612E+03  0.7561462E-02  0.1197361E+00
         -3   -1    0    0    0  501 -0.00000000000E+00  0.00000000000E+00  0.17324048606E+03  0.17324048606E+03  0.00000000000E+00 0.  1.
          3   -1    0    0  501    0  0.00000000000E+00 -0.00000000000E+00 -0.16401131282E+03  0.16401131282E+03  0.00000000000E+00 0. -1.
         25    2    1    2    0    0  0.39631572883E+02 -0.10552588280E+03 -0.57022886122E+02  0.17777887027E+03  0.12508934273E+03 0.  0.
          5    1    3    3  502    0  0.64318165831E+02 -0.12201445929E+03 -0.51534016579E+02  0.14730099116E+03  0.41800000000E+01 0.  1.
         -5    1    3    3    0  502 -0.24686592949E+02  0.16488576495E+02 -0.54888695429E+01  0.30477879111E+02  0.41800000000E+01 0.  1.
        -11    1    1    2    0    0  0.19550314340E+02  0.58129476340E+02  0.41578163875E+01  0.61469815743E+02  0.00000000000E+00 0. -1.
         11    1    1    2    0    0 -0.59181887223E+02  0.47396406459E+02  0.62094242975E+02  0.98003112865E+02  0.00000000000E+00 0.  1.
</event>
<event>
 7    1  0.2556591E-009  0.1537061E+03  0.7561462E-02  0.1195992E+00
         -2   -1    0    0    0  501 -0.00000000000E+00  0.00000000000E+00  0.11631074751E+03  0.11631074751E+03  0.00000000000E+00 0.  1.
          2   -1    0    0  501    0  0.00000000000E+00 -0.00000000000E+00 -0.24141473765E+03  0.24141473765E+03  0.00000000000E+00 0. -1.
         25    2    1    2    0    0  0.21818736060E+02 -0.12164196668E+03 -0.30476812624E+02  0.17846383400E+03  0.12509068166E+03 0.  0.
          5    1    3    3  502    0  0.59942464361E+02 -0.14212860077E+02 -0.92266581584E+01  0.62431626969E+02  0.41800000000E+01 0. -1.
         -5    1    3    3    0  502 -0.38123728301E+02 -0.10742910660E+03 -0.21250154465E+02  0.11603220703E+03  0.41800000000E+01 0. -1.
        -11    1    1    2    0    0 -0.35872557801E+02  0.93371728386E+02 -0.10596390732E+03  0.14571708794E+03  0.00000000000E+00 0. -1.
         11    1    1    2    0    0  0.14053821741E+02  0.28270238290E+02  0.11336729808E+02  0.33544563214E+02  0.00000000000E+00 0.  1.
</event>
<event>
 7    1  0.2556591E-009  0.1262556E+03  0.7561462E-02  0.1233120E+00
          2   -1    0    0  501    0  0.00000000000E+00  0.00000000000E+00  0.16889682446E+03  0.16889682446E+03  0.00000000000E+00 0. -1.
         -2   -1    0    0    0  501 -0.00000000000E+00 -0.00000000000E+00 -0.16233528230E+03  0.16233528230E+03  0.00000000000E+00 0.  1.
         25    2    1    2    0    0  0.16399184185E+02  0.10210085375E+03 -0.69892212310E+02  0.17670988505E+03  0.12509174455E+03 0.  0.
          5    1    3    3  502    0 -0.31040480093E+02  0.68682689414E+02  0.11815081613E+02  0.76406097813E+02  0.41800000000E+01 0. -1.
         -5    1    3    3    0  502  0.47439664278E+02  0.33418164336E+02 -0.81707293924E+02  0.10030378724E+03  0.41800000000E+01 0. -1.
        -11    1    1    2    0    0  0.11954470513E+02 -0.84782493507E+02  0.84543729038E+02  0.12032714860E+03  0.00000000000E+00 0. -1.
         11    1    1    2    0    0 -0.28353654698E+02 -0.17318360243E+02 -0.80899745719E+01  0.34195073107E+02  0.00000000000E+00 0.  1.
</event>
<event>
 7    1  0.2556591E-009  0.1511850E+03  0.7561462E-02  0.1199024E+00
          2   -1    0    0  501    0  0.00000000000E+00  0.00000000000E+00  0.12299633587E+04  0.12299633587E+04  0.00000000000E+00 0. -1.
         -2   -1    0    0    0  501 -0.00000000000E+00 -0.00000000000E+00 -0.26957967058E+02  0.26957967058E+02  0.00000000000E+00 0.  1.
         25    2    1    2    0    0  0.12084526437E+03  0.58163022675E+02  0.82406608885E+03  0.84422662312E+03  0.12508859767E+03 0.  0.
          5    1    3    3  502    0  0.48220589840E+02  0.55257248981E+02  0.15854960068E+03  0.17473991280E+03  0.41800000000E+01 0. -1.
         -5    1    3    3    0  502  0.72624674531E+02  0.29057736943E+01  0.66551648816E+03  0.66948671031E+03  0.41800000000E+01 0. -1.
        -11    1    1    2    0    0 -0.57625110019E+02  0.14871447661E+02  0.20804330741E+03  0.21638814898E+03  0.00000000000E+00 0. -1.
         11    1    1    2    0    0 -0.63220154353E+02 -0.73034470336E+02  0.17089599543E+03  0.19630655370E+03  0.00000000000E+00 0.  1.
</event>
<event>
 7    1  0.2556591E-009  0.9589314E+02  0.7561462E-02  0.1289177E+00
         -2   -1    0    0    0  501 -0.00000000000E+00  0.00000000000E+00  0.25620931884E+02  0.25620931884E+02  0.00000000000E+00 0.  1.
          2   -1    0    0  501    0  0.00000000000E+00 -0.00000000000E+00 -0.57485814517E+03  0.57485814517E+03  0.00000000000E+00 0. -1.
         25    2    1    2    0    0 -0.88349076345E+00  0.29015417670E+02 -0.42177396140E+03  0.44088831723E+03  0.12508620523E+03 0.  0.
          5    1    3    3  502    0 -0.59813160181E+02  0.31661409529E+02 -0.25812573839E+03  0.26688279863E+03  0.41800000000E+01 0. -1.
         -5    1    3    3    0  502  0.58929669418E+02 -0.26459918588E+01 -0.16364822300E+03  0.17400551860E+03  0.41800000000E+01 0. -1.
        -11    1    1    2    0    0 -0.26279813445E+02 -0.26887949644E+02 -0.12688495232E+03  0.13233813342E+03  0.00000000000E+00 0. -1.
         11    1    1    2    0    0  0.27163304208E+02 -0.21274680263E+01 -0.57829956836E+00  0.27252626408E+02  0.00000000000E+00 0.  1.
</event>
<event>
 7    1  0.2556591E-009  0.8938450E+02  0.7561462E-02  0.1304349E+00
         -2   -1    0    0    0  501 -0.00000000000E+00  0.00000000000E+00  0.92167077400E+02  0.92167077400E+02  0.00000000000E+00 0. -1.
          2   -1    0    0  501    0  0.00000000000E+00 -0.00000000000E+00 -0.13229330956E+03  0.13229330956E+03  0.00000000000E+00 0.  1.
         25    2    1    2    0    0  0.41018938465E+01  0.26984549469E+02 -0.29837694913E+02  0.13146917500E+03  0.12509542156E+03 0.  0.
          5    1    3    3  502    0  0.48093733904E+02  0.18862933525E+02  0.27461351516E+02  0.58655057148E+02  0.41800000000E+01 0.  1.
         -5    1    3    3    0  502 -0.43991840058E+02  0.81216159432E+01 -0.57299046428E+02  0.72814117854E+02  0.41800000000E+01 0.  1.
        -11    1    1    2    0    0  0.17589188009E+01 -0.54170443807E+02 -0.26993824168E+02  0.60549131462E+02  0.00000000000E+00 0.  1.
         11    1    1    2    0    0 -0.58608126474E+01  0.27185894338E+02  0.16705286921E+02  0.32442080497E+02  0.00000000000E+00 0. -1.
</event>
<event>
 7    1  0.2556591E-009  0.8373086E+02  0.7561462E-02  0.1318785E+00
         -1   -1    0    0    0  501 -0.00000000000E+00  0.00000000000E+00  0.24160824612E+03  0.24160824612E+03  0.00000000000E+00 0.  1.
          1   -1    0    0  501    0  0.00000000000E+00 -0.00000000000E+00 -0.65253259106E+02  0.65253259106E+02  0.00000000000E+00 0. -1.
         25    2    1    2    0    0 -0.47277178967E+02 -0.31590706395E+02  0.66879758358E+02  0.15281634673E+03  0.12508728700E+03 0.  0.
          5    1    3    3  502    0 -0.62049182937E+02 -0.27529401354E+02  0.97175581664E+02  0.11861085580E+03  0.41800000000E+01 0. -1.
         -5    1    3    3    0  502  0.14772003970E+02 -0.40613050412E+01 -0.30295823306E+02  0.34205490929E+02  0.41800000000E+01 0. -1.
        -11    1    1    2    0    0 -0.11417978583E+02  0.21035143372E+02 -0.54689620581E+01  0.24551110720E+02  0.00000000000E+00 0. -1.
         11    1    1    2    0    0  0.58695157550E+02  0.10555563024E+02  0.11494419072E+03  0.12949404778E+03  0.00000000000E+00 0.  1.
</event>
<event>
 7    1  0.2556591E-009  0.7414383E+02  0.7561462E-02  0.1346543E+00
          2   -1    0    0  501    0  0.00000000000E+00  0.00000000000E+00  0.25573445993E+03  0.25573445993E+03  0.00000000000E+00 0. -1.
         -2   -1    0    0    0  501 -0.00000000000E+00 -0.00000000000E+00 -0.46280478994E+02  0.46280478994E+02  0.00000000000E+00 0.  1.
         25    2    1    2    0    0  0.74309935681E+01 -0.16606006615E+02  0.10385539128E+03  0.16359848362E+03  0.12509013720E+03 0.  0.
          5    1    3    3  502    0  0.31754514581E+02  0.37777508013E+02  0.89321669003E+02  0.10213384484E+03  0.41800000000E+01 0.  1.
         -5    1    3    3    0  502 -0.24323521013E+02 -0.54383514628E+02  0.14533722278E+02  0.61464638785E+02  0.41800000000E+01 0.  1.
        -11    1    1    2    0    0 -0.51925361974E+01  0.27464901432E+02  0.11829964875E+03  0.12155694195E+03  0.00000000000E+00 0. -1.
         11    1    1    2    0    0 -0.22384573706E+01 -0.10858894817E+02 -0.12701059096E+02  0.16859513345E+02  0.00000000000E+00 0.  1.
</event>
<event>
 7    1  0.2556591E-009  0.9634390E+02  0.7561462E-02  0.1288178E+00
         -1   -1    0    0    0  501 -0.00000000000E+00  0.00000000000E+00  0.30896560369E+03  0.30896560369E+03  0.00000000000E+00 0.  1.
          1   -1    0    0  501    0  0.00000000000E+00 -0.00000000000E+00 -0.40370212675E+02  0.40370212675E+02  0.00000000000E+00 0. -1.
         25    2    1    2    0    0 -0.26069888452E+01  0.23137618369E+02  0.15938813499E+03  0.20394615397E+03  0.12508920964E+03 0.  0.
          5    1    3    3  502    0 -0.49846212099E+02 -0.39693210897E+01  0.19610738363E+02  0.53874426490E+02  0.41800000000E+01 0.  1.
         -5    1    3    3    0  502  0.47239223253E+02  0.27106939458E+02  0.13977739663E+03  0.15007172748E+03  0.41800000000E+01 0.  1.
        -11    1    1    2    0    0 -0.22343211603E+02 -0.47824259693E+02  0.92534916253E+02  0.10653210617E+03  0.00000000000E+00 0.  1.
         11    1    1    2    0    0  0.24950200448E+02  0.24686641325E+02  0.16672339776E+02  0.38857556226E+02  0.00000000000E+00 0. -1.
</event>
<event>
 7    1  0.2556591E-009  0.8689411E+02  0.7561462E-02  0.1310552E+00
          2   -1    0    0  501    0  0.00000000000E+00  0.00000000000E+00  0.31872506165E+03  0.31872506165E+03  0.00000000000E+00 0. -1.
         -2   -1    0    0    0  501 -0.00000000000E+00 -0.00000000000E+00 -0.53958727868E+02  0.53958727868E+02  0.00000000000E+00 0.  1.
         25    2    1    2    0    0  0.26788598013E+02 -0.36892075428E+02  0.22618645591E+03  0.26246204789E+03  0.12508940616E+03 0.  0.
          5    1    3    3  502    0  0.55277244709E+01 -0.68137139815E+02  0.57147311013E+02  0.89199288764E+02  0.41800000000E+01 0. -1.
         -5    1    3    3    0  502  0.21260873542E+02  0.31245064387E+02  0.16903914490E+03  0.17326275913E+03  0.41800000000E+01 0. -1.
        -11    1    1    2    0    0 -0.33166727305E+02  0.35800569886E+01 -0.22582749924E+02  0.40284354311E+02  0.00000000000E+00 0.  1.
         11    1    1    2    0    0  0.63781292918E+01  0.33312018439E+02  0.61162627791E+02  0.69937387312E+02  0.00000000000E+00 0. -1.
</event>
<event>
 7    1  0.2556591E-009  0.1318383E+03  0.7561462E-02  0.1224753E+00
          2   -1    0    0  501    0  0.00000000000E+00  0.00000000000E+00  0.59367917827E+03  0.59367917827E+03  0.00000000000E+00 0. -1.
         -2   -1    0    0    0  501 -0.00000000000E+00 -0.00000000000E+00 -0.32133038173E+02  0.32133038173E+02  0.00000000000E+00 0.  1.
         25    2    1    2    0    0 -0.31894090513E+02 -0.70925206480E+02  0.22556712855E+03  0.26939360853E+03  0.12507905065E+03 0.  0.
          5    1    3    3  502    0  0.24550491896E+02  0.25012183553E+02  0.44364275669E+02  0.56692127620E+02  0.41800000000E+01 0.  1.
         -5    1    3    3    0  502 -0.56444582408E+02 -0.95937390033E+02  0.18120285288E+03  0.21270148091E+03  0.41800000000E+01 0.  1.
        -11    1    1    2    0    0  0.13077699731E+02  0.89559855633E+02  0.28413700672E+03  0.29820434698E+03  0.00000000000E+00 0. -1.
         11    1    1    2    0    0  0.18816390782E+02 -0.18634649153E+02  0.51842004823E+02  0.58214260926E+02  0.00000000000E+00 0.  1.
</event>
<event>
 7    1  0.2556591E-009  0.8237534E+02  0.7561462E-02  0.1322443E+00
          1   -1    0    0  501    0  0.00000000000E+00  0.00000000000E+00  0.42384907942E+03  0.42384907942E+03  0.00000000000E+00 0. -1.
         -1   -1    0    0    0  501 -0.00000000000E+00 -0.00000000000E+00 -0.32138640232E+02  0.32138640232E+02  0.00000000000E+00 0.  1.
         25    2    1    2    0    0 -0.40187312517E+01 -0.12280906961E+02  0.15212826223E+03  0.19737610901E+03  0.12508936551E+03 0.  0.
          5    1    3    3  502    0  0.27283580449E+02  0.20053171933E+02 -0.44488278342E+01  0.34406219434E+02  0.41800000000E+01 0.  1.
         -5    1    3    3    0  502 -0.31302311700E+02 -0.32334078894E+02  0.15657709006E+03  0.16296988958E+03  0.41800000000E+01 0.  1.
        -11    1    1    2    0    0 -0.39289800031E+01  0.48346065207E+02  0.70705678024E+02  0.85744223186E+02  0.00000000000E+00 0.  1.
         11    1    1    2    0    0  0.79477112549E+01 -0.36065158245E+02  0.16887649894E+03  0.17286738746E+03  0.00000000000E+00 0. -1.
</event>
<event>
 7    1  0.2556591E-009  0.8447893E+02  0.7561462E-02  0.1316801E+00
         -1   -1    0    0    0  501 -0.00000000000E+00  0.00000000000E+00  0.50363070528E+02  0.50363070528E+02  0.00000000000E+00 0.  1.
          1   -1    0    0  501    0  0.00000000000E+00 -0.00000000000E+00 -0.32282860596E+03  0.32282860596E+03  0.00000000000E+00 0. -1.
         25    2    1    2    0    0 -0.39268582186E+02  0.39052375785E+02 -0.20324346208E+03  0.24499579576E+03  0.12509166822E+03 0.  0.
          5    1    3    3  502    0  0.47880365835E+01  0.16031688793E+01 -0.18370009035E+03  0.18381700422E+03  0.41800000000E+01 0.  1.
         -5    1    3    3    0  502 -0.44056618769E+02  0.37449206906E+02 -0.19543371725E+02  0.61178791534E+02  0.41800000000E+01 0.  1.
        -11    1    1    2    0    0 -0.23481907415E+02 -0.34208510107E+02 -0.12148747345E+02  0.43234409926E+02  0.00000000000E+00 0.  1.
         11    1    1    2    0    0  0.62750489601E+02 -0.48438656778E+01 -0.57073326004E+02  0.84961470803E+02  0.00000000000E+00 0. -1.
</event>
<event>
 7    1  0.2556591E-009  0.1353470E+03  0.7561462E-02  0.1219731E+00
         -1   -1    0    0    0  501 -0.00000000000E+00  0.00000000000E+00  0.13744927265E+04  0.13744927265E+04  0.00000000000E+00 0.  1.
          1   -1    0    0  501    0  0.00000000000E+00 -0.00000000000E+00 -0.20408885167E+02  0.20408885167E+02  0.00000000000E+00 0. -1.
         25    2    1    2    0    0  0.45574889525E+02 -0.10244756690E+03  0.97080489911E+03  0.98523214364E+03  0.12509056802E+03 0.  0.
          5    1    3    3  502    0 -0.25394786319E+02 -0.75481420142E+02  0.67964792657E+03  0.68431068708E+03  0.41800000000E+01 0.  1.
         -5    1    3    3    0  502  0.70969675845E+02 -0.26966146759E+02  0.29115697254E+03  0.30092145657E+03  0.41800000000E+01 0.  1.
        -11    1    1    2    0    0 -0.17704333841E-01  0.25413289606E+02  0.12649296043E+02  0.28387326264E+02  0.00000000000E+00 0. -1.
         11    1    1    2    0    0 -0.45557185192E+02  0.77034277295E+02  0.37062964622E+03  0.38128214180E+03  0.00000000000E+00 0.  1.
</event>
<event>
 7    1  0.2556591E-009  0.1128116E+03  0.7561462E-02  0.1255450E+00
          2   -1    0    0  501    0  0.00000000000E+00  0.00000000000E+00  0.82868798967E+03  0.82868798967E+03  0.00000000000E+00 0. -1.
         -2   -1    0    0    0  501 -0.00000000000E+00 -0.00000000000E+00 -0.31008501662E+02  0.31008501662E+02  0.00000000000E+00 0.  1.
         25    2    1    2    0    0 -0.51212065962E+02 -0.57115344688E+02  0.66852138430E+03  0.68443639230E+03  0.12508994975E+03 0.  0.
          5    1    3    3  502    0  0.37351606695E+02 -0.29263198371E+01  0.10866288566E+03  0.11501652486E+03  0.41800000000E+01 0. -1.
         -5    1    3    3    0  502 -0.88563672657E+02 -0.54189024851E+02  0.55985849864E+03  0.56941986744E+03  0.41800000000E+01 0. -1.
        -11    1    1    2    0    0  0.17501021229E+02 -0.21993811457E+00 -0.10614431389E+02  0.20469496099E+02  0.00000000000E+00 0.  1.
         11    1    1    2    0    0  0.33711044733E+02  0.57335282803E+02  0.13977253509E+03  0.15479060294E+03  0.00000000000E+00 0. -1.
</event>
<event>
 7    1  0.2556591E-009  0.7608670E+02  0.7561462E-02  0.1340539E+00
          3   -1    0    0  501    0  0.00000000000E+00  0.00000000000E+00  0.39302596975E+03  0.39302596975E+03  0.00000000000E+00 0. -1.
         -3   -1    0    0    0  501 -0.00000000000E+00 -0.00000000000E+00 -0.41456480026E+02  0.41456480026E+02  0.00000000000E+00 0.  1.
         25    2    1    2    0    0 -0.54147127486E+02  0.48672242246E+01  0.26492477525E+03  0.29797447366E+03  0.12509216252E+03 0.  0.
          5    1    3    3  502    0  0.11130851078E+02 -0.95395528233E+01 -0.78153113759E+01  0.17130394207E+02  0.41800000000E+01 0. -1.
         -5    1    3    3    0  502 -0.65277978565E+02  0.14406777048E+02  0.27274008663E+03  0.28084407945E+03  0.41800000000E+01 0. -1.
        -11    1    1    2    0    0  0.47810101476E+02 -0.21298309527E+02  0.10102084111E+03  0.11377448804E+03  0.00000000000E+00 0. -1.
         11    1    1    2    0    0  0.63370260104E+01  0.16431085303E+02 -0.14376126634E+02  0.22733488071E+02  0.00000000000E+00 0.  1.
</event>
<event>
 7    1  0.2556591E-009  0.1076737E+03  0.7561462E-02  0.1264940E+00
          2   -1    0    0  501    0  0.00000000000E+00  0.00000000000E+00  0.24393075609E+03  0.24393075609E+03  0.00000000000E+00 0. -1.
         -2   -1    0    0    0  501 -0.00000000000E+00 -0.00000000000E+00 -0.84701235084E+02  0.84701235084E+02  0.00000000000E+00 0.  1.
         25    2    1    2    0    0 -0.35711156551E+02 -0.73593690527E+02  0.32501622933E+02  0.15295647110E+03  0.12509200042E+03 0.  0.
          5    1    3    3  502    0 -0.65651655689E+02 -0.16792517450E+02 -0.19040419032E+02  0.70513392302E+02  0.41800000000E+01 0.  1.
         -5    1    3    3    0  502  0.29940499138E+02 -0.56801173077E+02  0.51542041965E+02  0.82443078797E+02  0.41800000000E+01 0.  1.
        -11    1    1    2    0    0  0.87349237155E+01  0.34649509779E+02  0.12307801171E+03  0.12816038540E+03  0.00000000000E+00 0. -1.
         11    1    1    2    0    0  0.26976232835E+02  0.38944180747E+02  0.36498863605E+01  0.47515134668E+02  0.00000000000E+00 0.  1.
</event>
<event>
 7    1  0.2556591E-009  0.1121241E+03  0.7561462E-02  0.1256686E+00
         -1   -1    0    0    0  501 -0.00000000000E+00  0.00000000000E+00  0.12698601314E+03  0.12698601314E+03  0.00000000000E+00 0.  1.
          1   -1    0    0  501    0  0.00000000000E+00 -0.00000000000E+00 -0.12392912323E+03  0.12392912323E+03  0.00000000000E+00 0. -1.
         25    2    1    2    0    0 -0.23348654129E+02 -0.59643364787E+02 -0.15947630433E+02  0.14143503363E+03  0.12508817374E+03 0.  0.
          5    1    3    3  502    0 -0.34178042960E+02 -0.96182454979E+02 -0.12987078045E+02  0.10298223081E+03  0.41800000000E+01 0. -1.
         -5    1    3    3    0  502  0.10829388830E+02  0.36539090192E+02 -0.29605523879E+01  0.38452802823E+02  0.41800000000E+01 0. -1.
        -11    1    1    2    0    0  0.27932137033E+02  0.43527032842E+01 -0.25719135962E+02  0.38218114288E+02  0.00000000000E+00 0.  1.
         11    1    1    2    0    0 -0.45834829036E+01  0.55290661502E+02  0.44723656299E+02  0.71261988449E+02  0.00000000000E+00 0. -1.
</event>
<event>
 7    1  0.2556591E-009  0.1182585E+03  0.7561462E-02  0.1245998E+00
         -1   -1    0    0    0  501 -0.00000000000E+00  0.00000000000E+00  0.90793645553E+03  0.90793645553E+03  0.00000000000E+00 0.  1.
          1   -1    0    0  501    0  0.00000000000E+00 -0.00000000000E+00 -0.30437370076E+02  0.30437370076E+02  0.00000000000E+00 0. -1.
         25    2    1    2    0    0 -0.27574865473E+02 -0.11319256613E+03  0.33335042696E+03  0.37462493241E+03  0.12509357536E+03 0.  0.
          5    1    3    3  502    0 -0.14871434908E+02 -0.78564771132E+02  0.63389522176E+02  0.10212387948E+03  0.41800000000E+01 0. -1.
         -5    1    3    3    0  502 -0.12703430565E+02 -0.34627794995E+02  0.26996090478E+03  0.27250105292E+03  0.41800000000E+01 0. -1.
        -11    1    1    2    0    0  0.10053496138E+02  0.88392163009E+02  0.51143388917E+03  0.51911354274E+03  0.00000000000E+00 0.  1.
         11    1    1    2    0    0  0.17521369335E+02  0.24800403119E+02  0.32714769326E+02  0.44635350455E+02  0.00000000000E+00 0. -1.
</event>
<event>
 7    1  0.2556591E-009  0.9848379E+02  0.7561462E-02  0.1283517E+00
         -2   -1    0    0    0  501 -0.00000000000E+00  0.00000000000E+00  0.94434331699E+02  0.94434331699E+02  0.00000000000E+00 0.  1.
          2   -1    0    0  501    0  0.00000000000E+00 -0.00000000000E+00 -0.13603742434E+03  0.13603742434E+03  0.00000000000E+00 0. -1.
         25    2    1    2    0    0 -0.71622416091E+01 -0.26775486757E+02 -0.44448792637E+02  0.13561476789E+03  0.12508975060E+03 0.  0.
          5    1    3    3  502    0  0.51225564480E+02 -0.41990381481E+02 -0.13709302411E+02  0.67769225802E+02  0.41800000000E+01 0. -1.
         -5    1    3    3    0  502 -0.58387806089E+02  0.15214894724E+02 -0.30739490226E+02  0.67845542084E+02  0.41800000000E+01 0. -1.
        -11    1    1    2    0    0 -0.25053234255E+02  0.28387119192E+02 -0.30384742976E+02  0.48546119189E+02  0.00000000000E+00 0. -1.
         11    1    1    2    0    0  0.32215475864E+02 -0.16116324350E+01  0.33230442970E+02  0.46310868964E+02  0.00000000000E+00 0.  1.
</event>
<event>
 7    1  0.2556591E-009  0.8488476E+02  0.7561462E-02  0.1315734E+00
         -1   -1    0    0    0  501 -0.00000000000E+00  0.00000000000E+00  0.20467003102E+03  0.20467003102E+03  0.00000000000E+00 0.  1.
          1   -1    0    0  501    0  0.00000000000E+00 -0.00000000000E+00 -0.75476961514E+02  0.75476961514E+02  0.00000000000E+00 0. -1.
         25    2    1    2    0    0 -0.52924210999E+02  0.10649525625E+02  0.10851917990E+03  0.17417818013E+03  0.12508893445E+03 0.  0.
          5    1    3    3  502    0 -0.31951545292E+01  0.24824903494E+02 -0.22089276530E+02  0.33643623224E+02  0.41800000000E+01 0.  1.
         -5    1    3    3    0  502 -0.49729056470E+02 -0.14175377869E+02  0.13060845643E+03  0.14053455691E+03  0.41800000000E+01 0.  1.
        -11    1    1    2    0    0 -0.17104209742E+02  0.96040375954E+01  0.26349804267E+02  0.32849714062E+02  0.00000000000E+00 0.  1.
         11    1    1    2    0    0  0.70028420742E+02 -0.20253563221E+02 -0.56759146592E+01  0.73119098339E+02  0.00000000000E+00 0. -1.
</event>
<event>
 7    1  0.2556591E-009  0.1421840E+03  0.7561462E-02  0.1210420E+00
          1   -1    0    0  501    0  0.00000000000E+00  0.00000000000E+00  0.94246907664E+03  0.94246907664E+03  0.00000000000E+00 0. -1.
         -1   -1    0    0    0  501 -0.00000000000E+00 -0.00000000000E+00 -0.27698610779E+02  0.27698610779E+02  0.00000000000E+00 0.  1.
         25    2    1    2    0    0  0.72869408338E+02  0.88933891338E+02  0.38523416031E+03  0.42103772616E+03  0.12509284902E+03 0.  0.
          5    1    3    3  502    0  0.14208592958E+02  0.10122726275E+03  0.17837964033E+03  0.20563465497E+03  0.41800000000E+01 0.  1.
         -5    1    3    3    0  502  0.58660815380E+02 -0.12293371414E+02  0.20685451998E+03  0.21540307119E+03  0.41800000000E+01 0.  1.
        -11    1    1    2    0    0 -0.35446575153E+02 -0.13788084100E+02  0.52878087525E+02  0.65135728241E+02  0.00000000000E+00 0.  1.
         11    1    1    2    0    0 -0.37422833185E+02 -0.75145807238E+02  0.47665821803E+03  0.48399423303E+03  0.00000000000E+00 0. -1.
</event>
<event>
 7    1  0.2556591E-009  0.8541152E+02  0.7561462E-02  0.1314360E+00
          1   -1    0    0  501    0  0.00000000000E+00  0.00000000000E+00  0.32225766189E+03  0.32225766189E+03  0.00000000000E+00 0. -1.
         -1   -1    0    0    0  501 -0.00000000000E+00 -0.00000000000E+00 -0.51133895375E+02  0.51133895375E+02  0.00000000000E+00 0.  1.
         25    2    1    2    0    0 -0.59396490873E+02  0.20727040655E+02  0.12127888031E+03  0.18523748522E+03  0.12508719271E+03 0.  0.
          5    1    3    3  502    0 -0.50459728775E+02  0.30413466159E+02 -0.39981102941E+01  0.59199834778E+02  0.41800000000E+01 0. -1.
         -5    1    3    3    0  502 -0.89367620987E+01 -0.96864255045E+01  0.12527699060E+03  0.12603765045E+03  0.41800000000E+01 0. -1.
        -11    1    1    2    0    0  0.42384722180E+02  0.24954860681E+02  0.27264377975E+02  0.56236607759E+02  0.00000000000E+00 0.  1.
         11    1    1    2    0    0  0.17011768693E+02 -0.45681901336E+02  0.12258050824E+03  0.13191746428E+03  0.00000000000E+00 0. -1.
</event>
<event>
 7    1  0.2556591E-009  0.2464214E+03  0.7561462E-02  0.1115588E+00
          2   -1    0    0  501    0  0.00000000000E+00  0.00000000000E+00  0.39645525986E+03  0.39645525986E+03  0.00000000000E+00 0. -1.
         -2   -1    0    0    0  501 -0.00000000000E+00 -0.00000000000E+00 -0.17564831677E+03  0.17564831677E+03  0.00000000000E+00 0.  1.
         25    2    1    2    0    0  0.22353823916E+03  0.56470465163E+02  0.40905149588E+02  0.26547745497E+03  0.12508712977E+03 0.  0.
          5    1    3    3  502    0  0.19494847028E+03  0.92654152185E+02  0.30661587120E+02  0.21805344140E+03  0.41800000000E+01 0.  1.
         -5    1    3    3    0  502  0.28589768874E+02 -0.36183687022E+02  0.10243562468E+02  0.47424013567E+02  0.41800000000E+01 0.  1.
        -11    1    1    2    0    0 -0.55657609719E+02 -0.16956023148E+02  0.10189606018E+03  0.11733747620E+03  0.00000000000E+00 0. -1.
         11    1    1    2    0    0 -0.16788062944E+03 -0.39514442015E+02  0.78005733324E+02  0.18928864546E+03  0.00000000000E+00 0.  1.
</event>
<event>
 7    1  0.2556591E-009  0.8490146E+02  0.7561462E-02  0.1315690E+00
         -2   -1    0    0    0  501 -0.00000000000E+00  0.00000000000E+00  0.30954555189E+02  0.30954555189E+02  0.00000000000E+00 0. -1.
          2   -1    0    0  501    0  0.00000000000E+00 -0.00000000000E+00 -0.40818310913E+03  0.40818310913E+03  0.00000000000E+00 0.  1.
         25    2    1    2    0    0 -0.17469101404E+02 -0.25233896081E+01 -0.26488673595E+03  0.29346844650E+03  0.12508880531E+03 0.  0.
          5    1    3    3  502    0 -0.43649870520E+02 -0.32129594394E+02 -0.46621774204E+02  0.71614832697E+02  0.41800000000E+01 0.  1.
         -5    1    3    3    0  502  0.26180769116E+02  0.29606204786E+02 -0.21826496175E+03  0.22185361381E+03  0.41800000000E+01 0.  1.
        -11    1    1    2    0    0 -0.19981310684E+02  0.25014306902E+02 -0.92131880758E+02  0.97535899946E+02  0.00000000000E+00 0.  1.
         11    1    1    2    0    0  0.37450412088E+02 -0.22490917294E+02 -0.20209937238E+02  0.48133317873E+02  0.00000000000E+00 0. -1.
</event>
<event>
 7    1  0.2556591E-009  0.8615717E+02  0.7561462E-02  0.1312434E+00
          2   -1    0    0  501    0  0.00000000000E+00  0.00000000000E+00  0.11843552819E+04  0.11843552819E+04  0.00000000000E+00 0. -1.
         -2   -1    0    0    0  501 -0.00000000000E+00 -0.00000000000E+00 -0.11589418602E+02  0.11589418602E+02  0.00000000000E+00 0.  1.
         25    2    1    2    0    0 -0.32833172867E+02 -0.13983604041E+02  0.81346898535E+03  0.82380372072E+03  0.12508885537E+03 0.  0.
          5    1    3    3  502    0 -0.39282959135E+02 -0.36499025179E+02  0.14093693356E+03  0.15085099058E+03  0.41800000000E+01 0.  1.
         -5    1    3    3    0  502  0.64497862681E+01  0.22515421138E+02  0.67253205179E+03  0.67295273015E+03  0.41800000000E+01 0.  1.
        -11    1    1    2    0    0 -0.29896304568E+02 -0.21311490008E+01  0.15330345492E+03  0.15620589014E+03  0.00000000000E+00 0. -1.
         11    1    1    2    0    0  0.62729477435E+02  0.16114753042E+02  0.20599342299E+03  0.21593508960E+03  0.00000000000E+00 0.  1.
</event>
<event>
 7    1  0.2556591E-009  0.1242360E+03  0.7561462E-02  0.1236268E+00
          1   -1    0    0  501    0  0.00000000000E+00  0.00000000000E+00  0.62008237441E+02  0.62008237441E+02  0.00000000000E+00 0. -1.
         -1   -1    0    0    0  501 -0.00000000000E+00 -0.00000000000E+00 -0.33288594120E+03  0.33288594120E+03  0.00000000000E+00 0.  1.
         25    2    1    2    0    0  0.36880769255E+02 -0.92326472875E+02 -0.17599943699E+03  0.23771340243E+03  0.12508993221E+03 0.  0.
          5    1    3    3  502    0  0.45234435255E+02 -0.10745676990E+03 -0.83367162679E+02  0.14338991507E+03  0.41800000000E+01 0. -1.
         -5    1    3    3    0  502 -0.83536659995E+01  0.15130297026E+02 -0.92632274311E+02  0.94323487360E+02  0.41800000000E+01 0. -1.
        -11    1    1    2    0    0 -0.47660740309E+02  0.45210979640E+02 -0.85703704939E+02  0.10798473914E+03  0.00000000000E+00 0.  1.
         11    1    1    2    0    0  0.10779971053E+02  0.47115493235E+02 -0.91745618284E+01  0.49196037071E+02  0.00000000000E+00 0. -1.
</event>
<event>
 7    1  0.2556591E-009  0.1028935E+03  0.7561462E-02  0.1274326E+00
          3   -1    0    0  501    0  0.00000000000E+00  0.00000000000E+00  0.47517231340E+03  0.47517231340E+03  0.00000000000E+00 0. -1.
         -3   -1    0    0    0  501 -0.00000000000E+00 -0.00000000000E+00 -0.32923723529E+02  0.32923723529E+02  0.00000000000E+00 0.  1.
         25    2    1    2    0    0  0.52017471112E+02  0.16991971231E+02  0.31206119893E+03  0.34062315438E+03  0.12508955607E+03 0.  0.
          5    1    3    3  502    0  0.53427932967E+02 -0.47594934099E+02  0.17117507162E+03  0.18557531980E+03  0.41800000000E+01 0.  1.
         -5    1    3    3    0  502 -0.14104618548E+01  0.64586905330E+02  0.14088612730E+03  0.15504783458E+03  0.41800000000E+01 0.  1.
        -11    1    1    2    0    0 -0.55690850695E+01 -0.21965799333E+02 -0.60456060299E+01  0.23453366520E+02  0.00000000000E+00 0.  1.
         11    1    1    2    0    0 -0.46448386043E+02  0.49738281015E+01  0.13623299698E+03  0.14401951603E+03  0.00000000000E+00 0. -1.
</event>
<event>
 7    1  0.2556591E-009  0.8843710E+02  0.7561462E-02  0.1306681E+00
         -1   -1    0    0    0  501 -0.00000000000E+00  0.00000000000E+00  0.62600018592E+02  0.62600018592E+02  0.00000000000E+00 0.  1.
          1   -1    0    0  501    0  0.00000000000E+00 -0.00000000000E+00 -0.27332558163E+03  0.27332558163E+03  0.00000000000E+00 0. -1.
         25    2    1    2    0    0  0.36254735436E+02  0.53227713434E+02 -0.15836127817E+03  0.21183138129E+03  0.12508654746E+03 0.  0.
          5    1    3    3  502    0  0.94320793406E+01  0.16019052067E+02  0.19997531376E+02  0.27621509932E+02  0.41800000000E+01 0.  1.
         -5    1    3    3    0  502  0.26822656096E+02  0.37208661367E+02 -0.17835880955E+03  0.18420987135E+03  0.41800000000E+01 0.  1.
        -11    1    1    2    0    0  0.11184843708E+02 -0.62441716848E+02 -0.36731123559E+02  0.73302415851E+02  0.00000000000E+00 0.  1.
         11    1    1    2    0    0 -0.47439579144E+02  0.92140034144E+01 -0.15633161309E+02  0.50791803087E+02  0.00000000000E+00 0. -1.
</event>
<event>
 7    1  0.2556591E-009  0.1209808E+03  0.7561462E-02  0.1241488E+00
         -2   -1    0    0    0  501 -0.00000000000E+00  0.00000000000E+00  0.59772267860E+02  0.59772267860E+02  0.00000000000E+00 0.  1.
          2   -1    0    0  501    0  0.00000000000E+00 -0.00000000000E+00 -0.30166851584E+03  0.30166851584E+03  0.00000000000E+00 0. -1.
         25    2    1    2    0    0  0.54526370986E+02  0.49614609457E+02 -0.17940171682E+03  0.23079610580E+03  0.12508849607E+03 0.  0.
          5    1    3    3  502    0  0.55000346310E+02  0.79965561641E+02 -0.17456623220E+03  0.19977580176E+03  0.41800000000E+01 0. -1.
         -5    1    3    3    0  502 -0.47397532376E+00 -0.30350952184E+02 -0.48354846125E+01  0.31020304037E+02  0.41800000000E+01 0. -1.
        -11    1    1    2    0    0 -0.26352707004E+02  0.23819946443E+02 -0.13628159906E+02  0.38047099198E+02  0.00000000000E+00 0.  1.
         11    1    1    2    0    0 -0.28173663982E+02 -0.73434555900E+02 -0.48866371259E+02  0.92597578707E+02  0.00000000000E+00 0. -1.
</event>
<event>
 7    1  0.2556591E-009  0.1142604E+03  0.7561462E-02  0.1252878E+00
         -2   -1    0    0    0  501 -0.00000000000E+00  0.00000000000E+00  0.20045340724E+03  0.20045340724E+03  0.00000000000E+00 0.  1.
          2   -1    0    0  501    0  0.00000000000E+00 -0.00000000000E+00 -0.80124929411E+02  0.80124929411E+02  0.00000000000E+00 0. -1.
         25    2    1    2    0    0 -0.54996640712E+02 -0.21419396854E+02  0.98921383241E+02  0.17004816133E+03  0.12509003181E+03 0.  0.
          5    1    3    3  502    0 -0.91647936397E+02 -0.21670544206E+02  0.44353727868E+02  0.10418100742E+03  0.41800000000E+01 0. -1.
         -5    1    3    3    0  502  0.36651295685E+02  0.25114735168E+00  0.54567655374E+02  0.65867153904E+02  0.41800000000E+01 0. -1.
        -11    1    1    2    0    0 -0.17731546608E+02 -0.72926659398E+01 -0.14938211065E+02  0.24305161416E+02  0.00000000000E+00 0.  1.
         11    1    1    2    0    0  0.72728187319E+02  0.28712062794E+02  0.36345305653E+02  0.86225013909E+02  0.00000000000E+00 0. -1.
</event>
<event>
 7    1  0.3716214E-009  0.1403926E+03  0.7561462E-02  0.1212802E+00
         -2   -1    0    0    0  501 -0.00000000000E+00  0.00000000000E+00  0.30943314272E+02  0.30943314272E+02  0.00000000000E+00 0.  1.
          2   -1    0    0  501    0  0.00000000000E+00 -0.00000000000E+00 -0.78163226290E+03  0.78163226290E+03  0.00000000000E+00 0. -1.
         25    2    1    2    0    0 -0.54175963228E+02  0.91126271534E+02 -0.31853086196E+03  0.35825755379E+03  0.12509009742E+03 0.  0.
          5    1    3    3  502    0 -0.43947505686E+02 -0.13254224170E+02 -0.41552223289E+02  0.62057371639E+02  0.41800000000E+01 0. -1.
         -5    1    3    3    0  502 -0.10228457542E+02  0.10438049570E+03 -0.27697863867E+03  0.29620018216E+03  0.41800000000E+01 0. -1.
        -11    1    1    2    0    0 -0.13328711757E+02 -0.47545883804E+02 -0.88023915344E+02  0.10092806991E+03  0.00000000000E+00 0.  1.
         11    1    1    2    0    0  0.67504674985E+02 -0.43580387730E+02 -0.34413417132E+03  0.35338995346E+03  0.00000000000E+00 0. -1.
</event>
<event>
 7    1  0.2556591E-009  0.1041289E+03  0.7561462E-02  0.1271846E+00
         -2   -1    0    0    0  501 -0.00000000000E+00  0.00000000000E+00  0.40104810844E+02  0.40104810844E+02  0.00000000000E+00 0.  1.
          2   -1    0    0  501    0  0.00000000000E+00 -0.00000000000E+00 -0.31351831079E+03  0.31351831079E+03  0.00000000000E+00 0. -1.
         25    2    1    2    0    0 -0.22816469512E+02  0.10627453389E+02 -0.11863868557E+03  0.17422571123E+03  0.12508367876E+03 0.  0.
          5    1    3    3  502    0  0.88740019055E+01 -0.52705555546E+02 -0.70174520307E+02  0.88309451337E+02  0.41800000000E+01 0.  1.
         -5    1    3    3    0  502 -0.31690471417E+02  0.63333008934E+02 -0.48464165266E+02  0.85916259894E+02  0.41800000000E+01 0.  1.
        -11    1    1    2    0    0 -0.21015527566E+02  0.20956604934E+02 -0.91515280854E+02  0.96207475380E+02  0.00000000000E+00 0. -1.
         11    1    1    2    0    0  0.43831997078E+02 -0.31584058323E+02 -0.63259533524E+02  0.83189935026E+02  0.00000000000E+00 0.  1.
</event>
<event>
 7    1  0.2556591E-009  0.1629068E+03  0.7561462E-02  0.1185454E+00
          1   -1    0    0  501    0  0.00000000000E+00  0.00000000000E+00  0.47623155001E+03  0.47623155001E+03  0.00000000000E+00 0. -1.
         -1   -1    0    0    0  501 -0.00000000000E+00 -0.00000000000E+00 -0.11150333776E+03  0.11150333776E+03  0.00000000000E+00 0.  1.
         25    2    1    2    0    0  0.69079071812E+02  0.12144060617E+03  0.37666378886E+03  0.42076561256E+03  0.12509337268E+03 0.  0.
          5    1    3    3  502    0  0.84223577144E+02  0.24418154687E+02  0.20397973631E+03  0.22206994946E+03  0.41800000000E+01 0.  1.
         -5    1    3    3    0  502 -0.15144505332E+02  0.97022451481E+02  0.17268405255E+03  0.19869566311E+03  0.41800000000E+01 0.  1.
        -11    1    1    2    0    0 -0.55748302766E+02 -0.95933575730E+02 -0.47945330270E+02  0.12087133204E+03  0.00000000000E+00 0.  1.
         11    1    1    2    0    0 -0.13330769046E+02 -0.25507030438E+02  0.36009753664E+02  0.46097943165E+02  0.00000000000E+00 0. -1.
</event>
<event>
 7    1  0.2556591E-009  0.1242687E+03  0.7561462E-02  0.1236217E+00
          1   -1    0    0  501    0  0.00000000000E+00  0.00000000000E+00  0.64296792178E+02  0.64296792178E+02  0.00000000000E+00 0. -1.
         -1   -1    0    0    0  501 -0.00000000000E+00 -0.00000000000E+00 -0.28358541468E+03  0.28358541468E+03  0.00000000000E+00 0.  1.
         25    2    1    2    0    0  0.55005682987E+02  0.52959295693E+02 -0.15904384603E+03  0.21627293752E+03  0.12509486953E+03 0.  0.
          5    1    3    3  502    0  0.76002505952E+02 -0.53781154967E+01 -0.12208671876E+03  0.14397202622E+03  0.41800000000E+01 0.  1.
         -5    1    3    3    0  502 -0.20996822964E+02  0.58337411190E+02 -0.36957127275E+02  0.72300911304E+02  0.41800000000E+01 0.  1.
        -11    1    1    2    0    0 -0.21845218097E+02  0.20207301050E+02 -0.37981593101E+02  0.48250906560E+02  0.00000000000E+00 0. -1.
         11    1    1    2    0    0 -0.33160464890E+02 -0.73166596743E+02 -0.22263183372E+02  0.83358362775E+02  0.00000000000E+00 0.  1.
</event>
<event>
 7    1  0.2556591E-009  0.1463256E+03  0.7561462E-02  0.1205062E+00
          1   -1    0    0  501    0  0.00000000000E+00  0.00000000000E+00  0.16966434900E+03  0.16966434900E+03  0.00000000000E+00 0. -1.
         -1   -1    0    0    0  501 -0.00000000000E+00 -0.00000000000E+00 -0.27873572915E+03  0.27873572915E+03  0.00000000000E+00 0.  1.
         25    2    1    2    0    0 -0.87328409197E+02 -0.45095759166E+02  0.10749030032E+03  0.19199026162E+03  0.12508484060E+03 0.  0.
          5    1    3    3  502    0  0.18189042773E+02  0.25828210598E+02  0.22225619589E+02  0.38850846912E+02  0.41800000000E+01 0.  1.
         -5    1    3    3    0  502 -0.10551745197E+03 -0.70923969764E+02  0.85264680731E+02  0.15313941471E+03  0.41800000000E+01 0.  1.
        -11    1    1    2    0    0  0.76775080293E+02  0.71643388111E+02 -0.19152154056E+03  0.21842089761E+03  0.00000000000E+00 0.  1.
         11    1    1    2    0    0  0.10553328905E+02 -0.26547628944E+02 -0.25040139913E+02  0.37988918915E+02  0.00000000000E+00 0. -1.
</event>
<event>
 7    1  0.2556591E-009  0.2267504E+03  0.7561462E-02  0.1128948E+00
         -1   -1    0    0    0  501 -0.00000000000E+00  0.00000000000E+00  0.43257009392E+03  0.43257009392E+03  0.00000000000E+00 0.  1.
          1   -1    0    0  501    0  0.00000000000E+00 -0.00000000000E+00 -0.14304129649E+03  0.14304129649E+03  0.00000000000E+00 0. -1.
         25    2    1    2    0    0  0.11153520394E+03 -0.17099950410E+03  0.25546576884E+03  0.35012880721E+03  0.12508593235E+03 0.  0.
          5    1    3    3  502    0  0.33784880801E+02  0.15025558992E+02  0.48883352373E+02  0.61434844616E+02  0.41800000000E+01 0. -1.
         -5    1    3    3    0  502  0.77750323135E+02 -0.18602506309E+03  0.20658241647E+03  0.28869396260E+03  0.41800000000E+01 0. -1.
        -11    1    1    2    0    0  0.14817400148E+01  0.46336722171E+02 -0.17406173180E+02  0.49520321483E+02  0.00000000000E+00 0. -1.
         11    1    1    2    0    0 -0.11301694395E+03  0.12466278193E+03  0.51469201771E+02  0.17596226172E+03  0.00000000000E+00 0.  1.
</event>
<event>
 7    1  0.2556591E-009  0.1789203E+03  0.7561462E-02  0.1168852E+00
          1   -1    0    0  501    0  0.00000000000E+00  0.00000000000E+00  0.48795936042E+03  0.48795936042E+03  0.00000000000E+00 0. -1.
         -1   -1    0    0    0  501 -0.00000000000E+00 -0.00000000000E+00 -0.83900902308E+02  0.83900902308E+02  0.00000000000E+00 0.  1.
         25    2    1    2    0    0 -0.64029433739E+02  0.12951547807E+03  0.34044174104E+03  0.39040634681E+03  0.12507001697E+03 0.  0.
          5    1    3    3  502    0 -0.77507563931E+02  0.14737336865E+03  0.31457873942E+03  0.35595447455E+03  0.41800000000E+01 0. -1.
         -5    1    3    3    0  502  0.13478130192E+02 -0.17857890587E+02  0.25863001612E+02  0.34451872258E+02  0.41800000000E+01 0. -1.
        -11    1    1    2    0    0  0.85327618687E+02 -0.92771286070E+02  0.37125810429E+02  0.13139878169E+03  0.00000000000E+00 0.  1.
         11    1    1    2    0    0 -0.21298184947E+02 -0.36744191998E+02  0.26490906646E+02  0.50055134228E+02  0.00000000000E+00 0. -1.
</event>
<event>
 7    1  0.2556591E-009  0.9978761E+02  0.7561462E-02  0.1280743E+00
         -1   -1    0    0    0  501 -0.00000000000E+00  0.00000000000E+00  0.45797771443E+03  0.45797771443E+03  0.00000000000E+00 0.  1.
          1   -1    0    0  501    0  0.00000000000E+00 -0.00000000000E+00 -0.28911735736E+02  0.28911735736E+02  0.00000000000E+00 0. -1.
         25    2    1    2    0    0 -0.23770192107E+01  0.38253221891E+02  0.25297427113E+03  0.28480403120E+03  0.12509354552E+03 0.  0.
          5    1    3    3  502    0  0.44871511728E+02  0.90820142474E+01  0.20858568960E+03  0.21359166148E+03  0.41800000000E+01 0. -1.
         -5    1    3    3    0  502 -0.47248530939E+02  0.29171207643E+02  0.44388581531E+02  0.71212369723E+02  0.41800000000E+01 0. -1.
        -11    1    1    2    0    0  0.32831122811E+02  0.15369698146E+02  0.50422184271E+02  0.62100780291E+02  0.00000000000E+00 0.  1.
         11    1    1    2    0    0 -0.30454103600E+02 -0.53622920037E+02  0.12566952329E+03  0.13998463867E+03  0.00000000000E+00 0. -1.
</event>
<event>
 7    1  0.2556591E-009  0.1445733E+03  0.7561462E-02  0.1207304E+00
          2   -1    0    0  501    0  0.00000000000E+00  0.00000000000E+00  0.36024990174E+03  0.36024990174E+03  0.00000000000E+00 0. -1.
         -2   -1    0    0    0  501 -0.00000000000E+00 -0.00000000000E+00 -0.90873576113E+02  0.90873576113E+02  0.00000000000E+00 0.  1.
         25    2    1    2    0    0 -0.29120838561E+02 -0.10705168610E+03  0.26414801876E+02  0.16927492641E+03  0.12509265453E+03 0.  0.
          5    1    3    3  502    0 -0.66995198157E+02 -0.84636860731E+02 -0.14556393277E+02  0.10900053099E+03  0.41800000000E+01 0.  1.
         -5    1    3    3    0  502  0.37874359596E+02 -0.22414825373E+02  0.40971195153E+02  0.60274395423E+02  0.41800000000E+01 0.  1.
        -11    1    1    2    0    0 -0.14975124019E+02  0.87337480198E+02  0.19292360375E+03  0.21230074581E+03  0.00000000000E+00 0. -1.
         11    1    1    2    0    0  0.44095962580E+02  0.19714205906E+02  0.50037919997E+02  0.69547805630E+02  0.00000000000E+00 0.  1.
</event>
<event>
 7    1  0.2556591E-009  0.1390567E+03  0.7561462E-02  0.1214604E+00
         -2   -1    0    0    0  501 -0.00000000000E+00  0.00000000000E+00  0.35943447755E+02  0.35943447755E+02  0.00000000000E+00 0.  1.
          2   -1    0    0  501    0  0.00000000000E+00 -0.00000000000E+00 -0.93870808063E+03  0.93870808063E+03  0.00000000000E+00 0. -1.
         25    2    1    2    0    0  0.10378593390E+03  0.41884674566E+02 -0.72866563619E+03  0.74774698299E+03  0.12508435223E+03 0.  0.
          5    1    3    3  502    0  0.26076185494E+02 -0.30543114409E+02 -0.40635371887E+03  0.40835482920E+03  0.41800000000E+01 0.  1.
         -5    1    3    3    0  502  0.77709748409E+02  0.72427788975E+02 -0.32231191731E+03  0.33939215379E+03  0.41800000000E+01 0.  1.
        -11    1    1    2    0    0 -0.10476476890E+03 -0.16541164607E+02 -0.90120132537E+02  0.13917939940E+03  0.00000000000E+00 0.  1.
         11    1    1    2    0    0  0.97883499886E+00 -0.25343509960E+02 -0.83978864151E+02  0.87725145991E+02  0.00000000000E+00 0. -1.
</event>
<event>
 7    1  0.2556591E-009  0.8977121E+02  0.7561462E-02  0.1303407E+00
         -3   -1    0    0    0  501 -0.00000000000E+00  0.00000000000E+00  0.26813570809E+03  0.26813570809E+03  0.00000000000E+00 0.  1.
          3   -1    0    0  501    0  0.00000000000E+00 -0.00000000000E+00 -0.61545249426E+02  0.61545249426E+02  0.00000000000E+00 0. -1.
         25    2    1    2    0    0 -0.62521204831E+02  0.45820916923E+01  0.86238937575E+02  0.16436041193E+03  0.12508914437E+03 0.  0.
          5    1    3    3  502    0 -0.33499650190E+02  0.17466769081E+02  0.11512095790E+03  0.12123374915E+03  0.41800000000E+01 0. -1.
         -5    1    3    3    0  502 -0.29021554641E+02 -0.12884677389E+02 -0.28882020321E+02  0.43126662786E+02  0.41800000000E+01 0. -1.
        -11    1    1    2    0    0  0.77511365845E+02 -0.27393037974E+02  0.69688128491E+02  0.10777210037E+03  0.00000000000E+00 0. -1.
         11    1    1    2    0    0 -0.14990161014E+02  0.22810946282E+02  0.50663392594E+02  0.57548445214E+02  0.00000000000E+00 0.  1.
</event>
<event>
 7    1  0.2852478E-009  0.2547116E+03  0.7561462E-02  0.1110363E+00
          1   -1    0    0  501    0  0.00000000000E+00  0.00000000000E+00  0.39281647211E+03  0.39281647211E+03  0.00000000000E+00 0. -1.
         -1   -1    0    0    0  501 -0.00000000000E+00 -0.00000000000E+00 -0.17420527307E+03  0.17420527307E+03  0.00000000000E+00 0.  1.
         25    2    1    2    0    0 -0.13944119305E+03  0.18892973493E+03  0.72974590891E+02  0.27588452739E+03  0.12509472602E+03 0.  0.
          5    1    3    3  502    0 -0.69653462932E+02  0.17783205723E+03  0.30839945795E+02  0.19350560749E+03  0.41800000000E+01 0. -1.
         -5    1    3    3    0  502 -0.69787730119E+02  0.11097677701E+02  0.42134645096E+02  0.82378919894E+02  0.41800000000E+01 0. -1.
        -11    1    1    2    0    0  0.55568691540E+02 -0.13970857669E+03  0.61146779366E+02  0.16231233628E+03  0.00000000000E+00 0.  1.
         11    1    1    2    0    0  0.83872501510E+02 -0.49221158232E+02  0.84489828791E+02  0.12882488151E+03  0.00000000000E+00 0. -1.
</event>
<event>
 7    1  0.2556591E-009  0.2173308E+03  0.7561462E-02  0.1135889E+00
          2   -1    0    0  501    0  0.00000000000E+00  0.00000000000E+00  0.14154437215E+04  0.14154437215E+04  0.00000000000E+00 0. -1.
         -2   -1    0    0    0  501 -0.00000000000E+00 -0.00000000000E+00 -0.41667733867E+02  0.41667733867E+02  0.00000000000E+00 0.  1.
         25    2    1    2    0    0  0.20127748805E+03  0.76816334225E+02  0.78568288804E+03  0.82423179554E+03  0.12508827213E+03 0.  0.
          5    1    3    3  502    0  0.11813198375E+03  0.65636091095E+02  0.65552273862E+03  0.66932114511E+03  0.41800000000E+01 0. -1.
         -5    1    3    3    0  502  0.83145504295E+02  0.11180243131E+02  0.13016014942E+03  0.15491065043E+03  0.41800000000E+01 0. -1.
        -11    1    1    2    0    0 -0.61987659239E+02 -0.22217660722E+02  0.31183956418E+03  0.31871618744E+03  0.00000000000E+00 0. -1.
         11    1    1    2    0    0 -0.13928982881E+03 -0.54598673503E+02  0.27625353543E+03  0.31416347241E+03  0.00000000000E+00 0.  1.
</event>
<event>
 7    1  0.2556591E-009  0.1525483E+03  0.7561462E-02  0.1197376E+00
         -3   -1    0    0    0  501 -0.00000000000E+00  0.00000000000E+00  0.14643424525E+03  0.14643424525E+03  0.00000000000E+00 0.  1.
          3   -1    0    0  501    0  0.00000000000E+00 -0.00000000000E+00 -0.18815658382E+03  0.18815658382E+03  0.00000000000E+00 0. -1.
         25    2    1    2    0    0  0.84864866954E+02  0.90788778011E+02 -0.12136836474E+02  0.17674739587E+03  0.12509073224E+03 0.  0.
          5    1    3    3  502    0  0.80977893624E+02  0.12094761614E+03 -0.11098600252E+02  0.14603559988E+03  0.41800000000E+01 0. -1.
         -5    1    3    3    0  502  0.38869733303E+01 -0.30158838125E+02 -0.10382362217E+01  0.30711795994E+02  0.41800000000E+01 0. -1.
        -11    1    1    2    0    0 -0.13818249395E+02 -0.40458208065E+00  0.26528917100E+02  0.29914731245E+02  0.00000000000E+00 0.  1.
         11    1    1    2    0    0 -0.71046617559E+02 -0.90384195931E+02 -0.56114419200E+02  0.12792870195E+03  0.00000000000E+00 0. -1.
</event>
<event>
 7    1  0.2556591E-009  0.1129214E+03  0.7561462E-02  0.1255254E+00
         -2   -1    0    0    0  501 -0.00000000000E+00  0.00000000000E+00  0.19291132424E+02  0.19291132424E+02  0.00000000000E+00 0.  1.
          2   -1    0    0  501    0  0.00000000000E+00 -0.00000000000E+00 -0.70920188559E+03  0.70920188559E+03  0.00000000000E+00 0. -1.
         25    2    1    2    0    0 -0.43700740937E+02  0.77595389030E+01 -0.34592530358E+03  0.37051481864E+03  0.12508776908E+03 0.  0.
          5    1    3    3  502    0 -0.72087533358E+02 -0.31058768481E+02 -0.15778403993E+03  0.17627970734E+03  0.41800000000E+01 0.  1.
         -5    1    3    3    0  502  0.28386792421E+02  0.38818307384E+02 -0.18814126365E+03  0.19423511129E+03  0.41800000000E+01 0.  1.
        -11    1    1    2    0    0  0.28908025598E+02 -0.48033531057E+02 -0.18530765960E+03  0.19360222818E+03  0.00000000000E+00 0. -1.
         11    1    1    2    0    0  0.14792715338E+02  0.40273992154E+02 -0.15867778999E+03  0.16437597119E+03  0.00000000000E+00 0.  1.
</event>
<event>
 7    1  0.2556591E-009  0.1484233E+03  0.7561462E-02  0.1202424E+00
          2   -1    0    0  501    0  0.00000000000E+00  0.00000000000E+00  0.39397503881E+03  0.39397503881E+03  0.00000000000E+00 0. -1.
         -2   -1    0    0    0  501 -0.00000000000E+00 -0.00000000000E+00 -0.62107598696E+02  0.62107598696E+02  0.00000000000E+00 0.  1.
         25    2    1    2    0    0 -0.10632419629E+03 -0.26545240963E+02  0.21798380659E+03  0.27417673591E+03  0.12508580273E+03 0.  0.
          5    1    3    3  502    0 -0.74374544652E+02  0.37470299623E+02  0.16558956325E+03  0.18539949326E+03  0.41800000000E+01 0.  1.
         -5    1    3    3    0  502 -0.31949651637E+02 -0.64015540586E+02  0.52394243339E+02  0.88777242643E+02  0.41800000000E+01 0.  1.
        -11    1    1    2    0    0  0.85811398040E+02  0.58476445290E+02  0.81201642041E+02  0.13182108085E+03  0.00000000000E+00 0. -1.
         11    1    1    2    0    0  0.20512798248E+02 -0.31931204327E+02  0.32681991489E+02  0.50084820749E+02  0.00000000000E+00 0.  1.
</event>
<event>
 7    1  0.2556591E-009  0.1239449E+03  0.7561462E-02  0.1236728E+00
         -1   -1    0    0    0  501 -0.00000000000E+00  0.00000000000E+00  0.52355135397E+03  0.52355135397E+03  0.00000000000E+00 0.  1.
          1   -1    0    0  501    0  0.00000000000E+00 -0.00000000000E+00 -0.33774324102E+02  0.33774324102E+02  0.00000000000E+00 0. -1.
         25    2    1    2    0    0  0.71951582057E+02 -0.55931425145E+01  0.20277364079E+03  0.24894274310E+03  0.12508807514E+03 0.  0.
          5    1    3    3  502    0  0.43671461484E+02  0.54761772269E+02  0.64155106572E+02  0.95075750586E+02  0.41800000000E+01 0. -1.
         -5    1    3    3    0  502  0.28280120573E+02 -0.60354914783E+02  0.13861853422E+03  0.15386699252E+03  0.41800000000E+01 0. -1.
        -11    1    1    2    0    0 -0.19756675758E+02  0.42598496690E+02  0.14994967539E+03  0.15713008403E+03  0.00000000000E+00 0.  1.
         11    1    1    2    0    0 -0.52194906300E+02 -0.37005354176E+02  0.13705371369E+03  0.15125285094E+03  0.00000000000E+00 0. -1.
</event>
<event>
 7    1  0.2556591E-009  0.1208846E+03  0.7561462E-02  0.1241645E+00
         -2   -1    0    0    0  501 -0.00000000000E+00  0.00000000000E+00  0.41676325431E+02  0.41676325431E+02  0.00000000000E+00 0.  1.
          2   -1    0    0  501    0  0.00000000000E+00 -0.00000000000E+00 -0.48503326511E+03  0.48503326511E+03  0.00000000000E+00 0. -1.
         25    2    1    2    0    0 -0.85211557086E+02 -0.34462700540E+02 -0.22784837077E+03  0.27570164475E+03  0.12509128534E+03 0.  0.
          5    1    3    3  502    0 -0.10977951238E+03 -0.45832763430E+02 -0.21430208861E+03  0.24514289940E+03  0.41800000000E+01 0. -1.
         -5    1    3    3    0  502  0.24567955290E+02  0.11370062890E+02 -0.13546282152E+02  0.30558745351E+02  0.41800000000E+01 0. -1.
        -11    1    1    2    0    0  0.44941692690E+02  0.45397474612E+01 -0.18888560757E+03  0.19421157997E+03  0.00000000000E+00 0. -1.
         11    1    1    2    0    0  0.40269864395E+02  0.29922953078E+02 -0.26622961339E+02  0.56796365815E+02  0.00000000000E+00 0.  1.
</event>
<event>
 7    1  0.2556591E-009  0.1291787E+03  0.7561462E-02  0.1228680E+00
          3   -1    0    0  501    0  0.00000000000E+00  0.00000000000E+00  0.15091832177E+03  0.15091832177E+03  0.00000000000E+00 0. -1.
         -3   -1    0    0    0  501 -0.00000000000E+00 -0.00000000000E+00 -0.11241941327E+03  0.11241941327E+03  0.00000000000E+00 0.  1.
         25    2    1    2    0    0  0.10050695202E+02 -0.69251871061E+02  0.26530103629E+02  0.14576972213E+03  0.12509247528E+03 0.  0.
          5    1    3    3  502    0  0.43953468424E+02  0.18511214076E+02  0.18227775011E+02  0.51227889034E+02  0.41800000000E+01 0. -1.
         -5    1    3    3    0  502 -0.33902773222E+02 -0.87763085136E+02  0.83023286180E+01  0.94541833097E+02  0.41800000000E+01 0. -1.
        -11    1    1    2    0    0 -0.49061451363E+02  0.57450725225E+02  0.18378933309E+01  0.75571090310E+02  0.00000000000E+00 0.  1.
         11    1    1    2    0    0  0.39010756161E+02  0.11801145836E+02  0.10130911544E+02  0.41996922602E+02  0.00000000000E+00 0. -1.
</event>
<event>
 7    1  0.2742846E-009  0.1212134E+03  0.7561462E-02  0.1241109E+00
         -2   -1    0    0    0  501 -0.00000000000E+00  0.00000000000E+00  0.28801378601E+02  0.28801378601E+02  0.00000000000E+00 0.  1.
          2   -1    0    0  501    0  0.00000000000E+00 -0.00000000000E+00 -0.13374151859E+04  0.13374151859E+04  0.00000000000E+00 0. -1.
         25    2    1    2    0    0  0.68629586280E+02  0.90927809640E+02 -0.10935042829E+04  0.11065156079E+04  0.12508911711E+03 0.  0.
          5    1    3    3  502    0  0.55929447748E+02  0.29426397795E+02 -0.91593637094E+03  0.91812358864E+03  0.41800000000E+01 0.  1.
         -5    1    3    3    0  502  0.12700138532E+02  0.61501411845E+02 -0.17756791196E+03  0.18839201929E+03  0.41800000000E+01 0.  1.
        -11    1    1    2    0    0 -0.36372835798E+02 -0.29743003467E+02 -0.17169467946E+02  0.50024194834E+02  0.00000000000E+00 0.  1.
         11    1    1    2    0    0 -0.32256750483E+02 -0.61184806173E+02 -0.19794005641E+03  0.20967676169E+03  0.00000000000E+00 0. -1.
</event>
<event>
 7    1  0.2556591E-009  0.1345053E+03  0.7561462E-02  0.1220920E+00
          2   -1    0    0  501    0  0.00000000000E+00  0.00000000000E+00  0.68904989293E+03  0.68904989293E+03  0.00000000000E+00 0. -1.
         -2   -1    0    0    0  501 -0.00000000000E+00 -0.00000000000E+00 -0.49829145153E+02  0.49829145153E+02  0.00000000000E+00 0.  1.
         25    2    1    2    0    0  0.70148510286E+02  0.46474435768E+02  0.57711378474E+03  0.59647897952E+03  0.12508463453E+03 0.  0.
          5    1    3    3  502    0  0.74236902976E+02  0.84331355858E+02  0.42628460392E+03  0.44086157837E+03  0.41800000000E+01 0.  1.
         -5    1    3    3    0  502 -0.40883926902E+01 -0.37856920090E+02  0.15082918082E+03  0.15561740115E+03  0.41800000000E+01 0.  1.
        -11    1    1    2    0    0 -0.17739788619E+02 -0.61295787166E+02  0.60469134325E+02  0.87911261114E+02  0.00000000000E+00 0. -1.
         11    1    1    2    0    0 -0.52408721667E+02  0.14821351398E+02  0.16378287067E+01  0.54488797444E+02  0.00000000000E+00 0.  1.
</event>
<event>
 7    1  0.2556591E-009  0.9760286E+02  0.7561462E-02  0.1285419E+00
          1   -1    0    0  501    0  0.00000000000E+00  0.00000000000E+00  0.13676407229E+04  0.13676407229E+04  0.00000000000E+00 0. -1.
         -1   -1    0    0    0  501 -0.00000000000E+00 -0.00000000000E+00 -0.12902029569E+02  0.12902029569E+02  0.00000000000E+00 0.  1.
         25    2    1    2    0    0  0.26924166704E+02  0.64618504844E+02  0.85896751541E+03  0.87084691543E+03  0.12509474676E+03 0.  0.
          5    1    3    3  502    0 -0.61653758620E+01  0.60231975465E+01  0.67243663519E+03  0.67250486356E+03  0.41800000000E+01 0.  1.
         -5    1    3    3    0  502  0.33089542566E+02  0.58595307297E+02  0.18653088022E+03  0.19834205187E+03  0.41800000000E+01 0.  1.
        -11    1    1    2    0    0  0.34587391560E+02 -0.37393051290E+02  0.22512257947E+03  0.23081313595E+03  0.00000000000E+00 0. -1.
         11    1    1    2    0    0 -0.61511558264E+02 -0.27225453554E+02  0.27064859841E+03  0.27888270105E+03  0.00000000000E+00 0.  1.
</event>
<event>
 7    1  0.2556591E-009  0.8642412E+02  0.7561462E-02  0.1311750E+00
          2   -1    0    0  501    0  0.00000000000E+00  0.00000000000E+00  0.64436105002E+03  0.64436105002E+03  0.00000000000E+00 0. -1.
         -2   -1    0    0    0  501 -0.00000000000E+00 -0.00000000000E+00 -0.19847170726E+02  0.19847170726E+02  0.00000000000E+00 0.  1.
         25    2    1    2    0    0 -0.32011567608E+02  0.40407258227E+02  0.32601417152E+03  0.35297403136E+03  0.12509172554E+03 0.  0.
          5    1    3    3  502    0 -0.49073151429E+02  0.24129559891E+01  0.29926128658E+03  0.30329653245E+03  0.41800000000E+01 0.  1.
         -5    1    3    3    0  502  0.17061583821E+02  0.37994302238E+02  0.26752884943E+02  0.49677498908E+02  0.41800000000E+01 0.  1.
        -11    1    1    2    0    0  0.35486741730E+02 -0.55674286651E+02  0.27623379467E+03  0.28401416224E+03  0.00000000000E+00 0. -1.
         11    1    1    2    0    0 -0.34751741223E+01  0.15267028425E+02  0.22265913094E+02  0.27220027149E+02  0.00000000000E+00 0.  1.
</event>
<event>
 7    1  0.2556591E-009  0.1308564E+03  0.7561462E-02  0.1226191E+00
          1   -1    0    0  501    0  0.00000000000E+00  0.00000000000E+00  0.24746898964E+03  0.24746898964E+03  0.00000000000E+00 0. -1.
         -1   -1    0    0    0  501 -0.00000000000E+00 -0.00000000000E+00 -0.10556679694E+03  0.10556679694E+03  0.00000000000E+00 0.  1.
         25    2    1    2    0    0  0.38466528857E+02 -0.84230469652E+02 -0.66286586290E+01  0.15577598322E+03  0.12509105473E+03 0.  0.
          5    1    3    3  502    0  0.63827526156E+02 -0.86381987333E+02 -0.39037874274E+02  0.11435571196E+03  0.41800000000E+01 0. -1.
         -5    1    3    3    0  502 -0.25360997299E+02  0.21515176814E+01  0.32409215645E+02  0.41420271258E+02  0.41800000000E+01 0. -1.
        -11    1    1    2    0    0 -0.25867776711E+02 -0.13989899807E+02  0.22777834863E+02  0.37197969429E+02  0.00000000000E+00 0. -1.
         11    1    1    2    0    0 -0.12598752146E+02  0.98220369459E+02  0.12575301647E+03  0.16006183393E+03  0.00000000000E+00 0.  1.
</event>
<event>
 7    1  0.2556591E-009  0.9421572E+02  0.7561462E-02  0.1292952E+00
         -1   -1    0    0    0  501 -0.00000000000E+00  0.00000000000E+00  0.73985511219E+02  0.73985511219E+02  0.00000000000E+00 0.  1.
          1   -1    0    0  501    0  0.00000000000E+00 -0.00000000000E+00 -0.20218746841E+03  0.20218746841E+03  0.00000000000E+00 0. -1.
         25    2    1    2    0    0  0.34078325702E+02  0.40670046262E+02 -0.98386757527E+02  0.16776554464E+03  0.12509971609E+03 0.  0.
          5    1    3    3  502    0 -0.46308647085E+02  0.26573505628E+02 -0.46821206039E+02  0.71136064912E+02  0.41800000000E+01 0.  1.
         -5    1    3    3    0  502  0.80386972787E+02  0.14096540634E+02 -0.51565551488E+02  0.96629479725E+02  0.41800000000E+01 0.  1.
        -11    1    1    2    0    0 -0.19103038765E+02 -0.20316598029E+02  0.31511227205E+02  0.42079064694E+02  0.00000000000E+00 0.  1.
         11    1    1    2    0    0 -0.14975286937E+02 -0.20353448232E+02 -0.61326426872E+02  0.66328370300E+02  0.00000000000E+00 0. -1.
</event>
<event>
 7    1  0.2556591E-009  0.2046345E+03  0.7561462E-02  0.1145887E+00
          2   -1    0    0  501    0  0.00000000000E+00  0.00000000000E+00  0.71641015183E+03  0.71641015183E+03  0.00000000000E+00 0. -1.
         -2   -1    0    0    0  501 -0.00000000000E+00 -0.00000000000E+00 -0.65754368563E+02  0.65754368563E+02  0.00000000000E+00 0.  1.
         25    2    1    2    0    0 -0.18304062229E+03  0.39214485444E+02  0.34399435372E+03  0.41112244339E+03  0.12509157764E+03 0.  0.
          5    1    3    3  502    0 -0.41406750379E+02 -0.27900283056E+02  0.25706452828E+02  0.56313753991E+02  0.41800000000E+01 0.  1.
         -5    1    3    3    0  502 -0.14163387191E+03  0.67114768500E+02  0.31828790089E+03  0.35480868940E+03  0.41800000000E+01 0.  1.
        -11    1    1    2    0    0  0.10381155011E+03 -0.60742398098E+02  0.13532706316E+03  0.18105217725E+03  0.00000000000E+00 0.  1.
         11    1    1    2    0    0  0.79229072183E+02  0.21527912654E+02  0.17133436639E+03  0.18998989975E+03  0.00000000000E+00 0. -1.
</event>
<event>
 7    1  0.2556591E-009  0.1990041E+03  0.7561462E-02  0.1150582E+00
         -4   -1    0    0    0  501 -0.00000000000E+00  0.00000000000E+00  0.14791585301E+03  0.14791585301E+03  0.00000000000E+00 0.  1.
          4   -1    0    0  501    0  0.00000000000E+00 -0.00000000000E+00 -0.27337286207E+03  0.27337286207E+03  0.00000000000E+00 0. -1.
         25    2    1    2    0    0 -0.44991289232E+02  0.16119406548E+03 -0.90297493855E+02  0.22761384502E+03  0.12508669872E+03 0.  0.
          5    1    3    3  502    0 -0.85734764046E+02  0.13264416885E+03 -0.77979319591E+02  0.17619072615E+03  0.41800000000E+01 0. -1.
         -5    1    3    3    0  502  0.40743474814E+02  0.28549896624E+02 -0.12318174264E+02  0.51423118870E+02  0.41800000000E+01 0. -1.
        -11    1    1    2    0    0  0.65431372420E+02 -0.66804132864E+02 -0.23324197173E+02  0.96374658693E+02  0.00000000000E+00 0. -1.
         11    1    1    2    0    0 -0.20440083188E+02 -0.94389932615E+02 -0.11835318033E+02  0.97300211371E+02  0.00000000000E+00 0.  1.
</event>
<event>
 7    1  0.2556591E-009  0.9886104E+02  0.7561462E-02  0.1282709E+00
         -1   -1    0    0    0  501 -0.00000000000E+00  0.00000000000E+00  0.45422322578E+02  0.45422322578E+02  0.00000000000E+00 0.  1.
          1   -1    0    0  501    0  0.00000000000E+00 -0.00000000000E+00 -0.41671438757E+03  0.41671438757E+03  0.00000000000E+00 0. -1.
         25    2    1    2    0    0  0.39697919237E+02  0.16173215066E+01 -0.86653279541E+02  0.15727349026E+03  0.12509044473E+03 0.  0.
          5    1    3    3  502    0  0.27204667665E+02  0.46165587652E+02 -0.95873857684E+02  0.10991189387E+03  0.41800000000E+01 0.  1.
         -5    1    3    3    0  502  0.12493251573E+02 -0.44548266145E+02  0.92205781424E+01  0.47361596391E+02  0.41800000000E+01 0.  1.
        -11    1    1    2    0    0  0.26903966651E+02 -0.13117448545E+02 -0.34122760245E+02  0.45390017015E+02  0.00000000000E+00 0.  1.
         11    1    1    2    0    0 -0.66601885889E+02  0.11500127039E+02 -0.25051602521E+03  0.25947320288E+03  0.00000000000E+00 0. -1.
</event>
<event>
 7    1  0.2556591E-009  0.9926036E+02  0.7561462E-02  0.1281859E+00
         -1   -1    0    0    0  501 -0.00000000000E+00  0.00000000000E+00  0.15608887590E+02  0.15608887590E+02  0.00000000000E+00 0.  1.
          1   -1    0    0  501    0  0.00000000000E+00 -0.00000000000E+00 -0.92163157689E+03  0.92163157689E+03  0.00000000000E+00 0. -1.
         25    2    1    2    0    0 -0.11319641176E+02 -0.10791465278E+02 -0.68624355989E+03  0.69772369249E+03  0.12507412829E+03 0.  0.
          5    1    3    3  502    0  0.51662232964E+02 -0.29647433844E+02 -0.29665097207E+03  0.30260077376E+03  0.41800000000E+01 0.  1.
         -5    1    3    3    0  502 -0.62981874140E+02  0.18855968566E+02 -0.38959258783E+03  0.39512291873E+03  0.41800000000E+01 0.  1.
        -11    1    1    2    0    0 -0.22518115800E+02 -0.17744128568E+02 -0.20156905690E+02  0.35045976728E+02  0.00000000000E+00 0.  1.
         11    1    1    2    0    0  0.33837756977E+02  0.28535593846E+02 -0.19962222371E+03  0.20447079526E+03  0.00000000000E+00 0. -1.
</event>
<event>
 7    1  0.2556591E-009  0.1897315E+03  0.7561462E-02  0.1158704E+00
          2   -1    0    0  501    0  0.00000000000E+00  0.00000000000E+00  0.83473259088E+02  0.83473259088E+02  0.00000000000E+00 0. -1.
         -2   -1    0    0    0  501 -0.00000000000E+00 -0.00000000000E+00 -0.47531847834E+03  0.47531847834E+03  0.00000000000E+00 0.  1.
         25    2    1    2    0    0  0.66491496785E+02  0.15422468272E+03 -0.21340242680E+03  0.29898800921E+03  0.12508741737E+03 0.  0.
          5    1    3    3  502    0  0.62025015597E+02  0.34784817706E+02 -0.24350198292E+02  0.75282738125E+02  0.41800000000E+01 0.  1.
         -5    1    3    3    0  502  0.44664811883E+01  0.11943986501E+03 -0.18905222851E+03  0.22370527109E+03  0.41800000000E+01 0.  1.
        -11    1    1    2    0    0 -0.55837186045E+02 -0.28935354838E+02 -0.65158265098E+02  0.90557416127E+02  0.00000000000E+00 0.  1.
         11    1    1    2    0    0 -0.10654310741E+02 -0.12528932788E+03 -0.11328452735E+03  0.16924631209E+03  0.00000000000E+00 0. -1.
</event>
<event>
 7    1  0.2556591E-009  0.1087717E+03  0.7561462E-02  0.1262862E+00
         -1   -1    0    0    0  501 -0.00000000000E+00  0.00000000000E+00  0.11630698825E+02  0.11630698825E+02  0.00000000000E+00 0. -1.
          1   -1    0    0  501    0  0.00000000000E+00 -0.00000000000E+00 -0.12727964602E+04  0.12727964602E+04  0.00000000000E+00 0.  1.
         25    2    1    2    0    0  0.45184757520E+02 -0.23321663195E+02 -0.82741710186E+03  0.83836247770E+03  0.12508805415E+03 0.  0.
          5    1    3    3  502    0 -0.35869282573E+02 -0.19845408052E+02 -0.47126899504E+03  0.47306699709E+03  0.41800000000E+01 0.  1.
         -5    1    3    3    0  502  0.81054040093E+02 -0.34762551427E+01 -0.35614810682E+03  0.36529548061E+03  0.41800000000E+01 0.  1.
        -11    1    1    2    0    0 -0.65217044869E+02  0.11594434853E+01 -0.36946399845E+03  0.37517762913E+03  0.00000000000E+00 0.  1.
         11    1    1    2    0    0  0.20032287349E+02  0.22162219710E+02 -0.64284661033E+02  0.70887052154E+02  0.00000000000E+00 0. -1.
</event>
<event>
 7    1  0.2556591E-009  0.1757973E+03  0.7561462E-02  0.1171933E+00
         -3   -1    0    0    0  501 -0.00000000000E+00  0.00000000000E+00  0.24864854051E+03  0.24864854051E+03  0.00000000000E+00 0.  1.
          3   -1    0    0  501    0  0.00000000000E+00 -0.00000000000E+00 -0.13703057624E+03  0.13703057624E+03  0.00000000000E+00 0. -1.
         25    2    1    2    0    0 -0.18894934296E+02 -0.13755000822E+03  0.24756325324E+01  0.18689863486E+03  0.12509175693E+03 0.  0.
          5    1    3    3  502    0  0.18641925106E+02 -0.14628746859E+03  0.79700030766E+01  0.14774484149E+03  0.41800000000E+01 0. -1.
         -5    1    3    3    0  502 -0.37536859402E+02  0.87374603657E+01 -0.54943705442E+01  0.39153793368E+02  0.41800000000E+01 0. -1.
        -11    1    1    2    0    0  0.33828023544E+02  0.14479977639E+03  0.10379181137E+03  0.18133960000E+03  0.00000000000E+00 0.  1.
         11    1    1    2    0    0 -0.14933089248E+02 -0.72497681690E+01  0.53505203749E+01  0.17440881895E+02  0.00000000000E+00 0. -1.
</event>
<event>
 7    1  0.2556591E-009  0.8541793E+02  0.7561462E-02  0.1314343E+00
         -2   -1    0    0    0  501 -0.00000000000E+00  0.00000000000E+00  0.84570964049E+01  0.84570964049E+01  0.00000000000E+00 0.  1.
          2   -1    0    0  501    0  0.00000000000E+00 -0.00000000000E+00 -0.15403321422E+04  0.15403321422E+04  0.00000000000E+00 0. -1.
         25    2    1    2    0    0  0.40946578546E+02  0.13268900931E+02 -0.12013801553E+04  0.12086411144E+04  0.12508549018E+03 0.  0.
          5    1    3    3  502    0  0.31589762225E+02 -0.33071649948E+02 -0.10237602284E+04  0.10247897954E+04  0.41800000000E+01 0. -1.
         -5    1    3    3    0  502  0.93568163206E+01  0.46340550879E+02 -0.17761992694E+03  0.18385131905E+03  0.41800000000E+01 0. -1.
        -11    1    1    2    0    0 -0.40088919120E+02  0.19562921971E+02 -0.14291803602E+03  0.14971771562E+03  0.00000000000E+00 0.  1.
         11    1    1    2    0    0 -0.85765942544E+00 -0.32831822902E+02 -0.18757685441E+03  0.19043040851E+03  0.00000000000E+00 0. -1.
</event>
<event>
 7    1  0.2556591E-009  0.1243688E+03  0.7561462E-02  0.1236059E+00
          1   -1    0    0  501    0  0.00000000000E+00  0.00000000000E+00  0.37844609243E+03  0.37844609243E+03  0.00000000000E+00 0. -1.
         -1   -1    0    0    0  501 -0.00000000000E+00 -0.00000000000E+00 -0.45847231063E+02  0.45847231063E+02  0.00000000000E+00 0.  1.
         25    2    1    2    0    0  0.36850730292E+02 -0.61469023768E+02  0.15266099755E+03  0.20997245823E+03  0.12508651342E+03 0.  0.
          5    1    3    3  502    0  0.19412214340E+02  0.37734627245E+02  0.55214024587E+02  0.69762433086E+02  0.41800000000E+01 0.  1.
         -5    1    3    3    0  502  0.17438515952E+02 -0.99203651014E+02  0.97446972958E+02  0.14021002515E+03  0.41800000000E+01 0.  1.
        -11    1    1    2    0    0  0.19707687430E+02 -0.25381463523E+01  0.81978852263E+02  0.84352636882E+02  0.00000000000E+00 0. -1.
         11    1    1    2    0    0 -0.56558417722E+02  0.64007170121E+02  0.97959011562E+02  0.12996822838E+03  0.00000000000E+00 0.  1.
</event>
<event>
 7    1  0.2556591E-009  0.1545604E+03  0.7561462E-02  0.1194979E+00
          1   -1    0    0  501    0  0.00000000000E+00  0.00000000000E+00  0.28665530250E+03  0.28665530250E+03  0.00000000000E+00 0. -1.
         -1   -1    0    0    0  501 -0.00000000000E+00 -0.00000000000E+00 -0.11930188832E+03  0.11930188832E+03  0.00000000000E+00 0.  1.
         25    2    1    2    0    0 -0.10068083019E+03  0.94947257429E+02  0.28857831402E+02  0.18876503132E+03  0.12509137202E+03 0.  0.
          5    1    3    3  502    0 -0.58653444328E+02  0.30089441797E+02  0.73978492456E+02  0.99176059537E+02  0.41800000000E+01 0.  1.
         -5    1    3    3    0  502 -0.42027385857E+02  0.64857815632E+02 -0.45120661054E+02  0.89588971779E+02  0.41800000000E+01 0.  1.
        -11    1    1    2    0    0  0.66524606317E-01  0.15939770340E+02  0.53171068997E+01  0.16803342816E+02  0.00000000000E+00 0.  1.
         11    1    1    2    0    0  0.10061430558E+03 -0.11088702777E+03  0.13317847589E+03  0.20038881669E+03  0.00000000000E+00 0. -1.
</event>
<event>
 7    1  0.2556591E-009  0.1348988E+03  0.7561462E-02  0.1220363E+00
         -2   -1    0    0    0  501 -0.00000000000E+00  0.00000000000E+00  0.25533465778E+02  0.25533465778E+02  0.00000000000E+00 0.  1.
          2   -1    0    0  501    0  0.00000000000E+00 -0.00000000000E+00 -0.93298943680E+03  0.93298943680E+03  0.00000000000E+00 0. -1.
         25    2    1    2    0    0  0.89923163730E+02  0.60030257446E+02 -0.46288736768E+03  0.49153013429E+03  0.12508937037E+03 0.  0.
          5    1    3    3  502    0 -0.25847598852E+02  0.22034363120E+02 -0.18404623379E+03  0.18720069470E+03  0.41800000000E+01 0. -1.
         -5    1    3    3    0  502  0.11577076258E+03  0.37995894326E+02 -0.27884113389E+03  0.30432943959E+03  0.41800000000E+01 0. -1.
        -11    1    1    2    0    0 -0.54539463288E+02 -0.55792864622E+02 -0.40995406147E+03  0.41731250798E+03  0.00000000000E+00 0. -1.
         11    1    1    2    0    0 -0.35383700442E+02 -0.42373928239E+01 -0.34614541872E+02  0.49680260305E+02  0.00000000000E+00 0.  1.
</event>
<event>
 7    1  0.2556591E-009  0.3886770E+03  0.7561462E-02  0.1047772E+00
         -2   -1    0    0    0  501 -0.00000000000E+00  0.00000000000E+00  0.29915617553E+03  0.29915617553E+03  0.00000000000E+00 0.  1.
          2   -1    0    0  501    0  0.00000000000E+00 -0.00000000000E+00 -0.54381275851E+03  0.54381275851E+03  0.00000000000E+00 0. -1.
         25    2    1    2    0    0  0.28432049653E+03 -0.26425478075E+03 -0.11950530268E+03  0.42496819683E+03  0.12509083521E+03 0.  0.
          5    1    3    3  502    0  0.58858646682E+02 -0.50629738196E+02  0.25962621615E+02  0.81970975352E+02  0.41800000000E+01 0.  1.
         -5    1    3    3    0  502  0.22546184985E+03 -0.21362504255E+03 -0.14546792430E+03  0.34299722148E+03  0.41800000000E+01 0.  1.
        -11    1    1    2    0    0 -0.80251643660E+02  0.90539137236E+02 -0.82979627226E+02  0.14670814639E+03  0.00000000000E+00 0.  1.
         11    1    1    2    0    0 -0.20406885287E+03  0.17371564351E+03 -0.42171653073E+02  0.27129259082E+03  0.00000000000E+00 0. -1.
</event>
<event>
 7    1  0.2556591E-009  0.1190626E+03  0.7561462E-02  0.1244652E+00
         -2   -1    0    0    0  501 -0.00000000000E+00  0.00000000000E+00  0.21299433273E+03  0.21299433273E+03  0.00000000000E+00 0.  1.
          2   -1    0    0  501    0  0.00000000000E+00 -0.00000000000E+00 -0.10429992732E+03  0.10429992732E+03  0.00000000000E+00 0. -1.
         25    2    1    2    0    0  0.72515189067E+02  0.16319953208E+02  0.13364334287E+03  0.19756828598E+03  0.12509153055E+03 0.  0.
          5    1    3    3  502    0  0.27323839958E+02 -0.54387709637E+02  0.64203833252E+02  0.88567600136E+02  0.41800000000E+01 0. -1.
         -5    1    3    3    0  502  0.45191349109E+02  0.70707662844E+02  0.69439509620E+02  0.10900068585E+03  0.41800000000E+01 0. -1.
        -11    1    1    2    0    0 -0.36989008993E+01  0.16460957383E+02 -0.38748163917E+02  0.42261864521E+02  0.00000000000E+00 0. -1.
         11    1    1    2    0    0 -0.68816288167E+02 -0.32780910590E+02  0.13799226450E+02  0.77464109540E+02  0.00000000000E+00 0.  1.
</event>
<event>
 7    1  0.4627306E-009  0.1391884E+03  0.7561462E-02  0.1214425E+00
          1   -1    0    0  501    0  0.00000000000E+00  0.00000000000E+00  0.46619606496E+03  0.46619606496E+03  0.00000000000E+00 0. -1.
         -1   -1    0    0    0  501 -0.00000000000E+00 -0.00000000000E+00 -0.46743508150E+02  0.46743508150E+02  0.00000000000E+00 0.  1.
         25    2    1    2    0    0 -0.87691078738E+02 -0.22580471150E+02  0.30013097779E+03  0.33752622140E+03  0.12508294584E+03 0.  0.
          5    1    3    3  502    0  0.19700242039E+02 -0.36632695163E+02  0.51741150809E+02  0.66518215388E+02  0.41800000000E+01 0.  1.
         -5    1    3    3    0  502 -0.10739132078E+03  0.14052224014E+02  0.24838982698E+03  0.27100800601E+03  0.41800000000E+01 0.  1.
        -11    1    1    2    0    0  0.28851247419E+02  0.54191015540E+02  0.63996344747E+02  0.88682539341E+02  0.00000000000E+00 0.  1.
         11    1    1    2    0    0  0.58839831319E+02 -0.31610544391E+02  0.55325234281E+02  0.86730812371E+02  0.00000000000E+00 0. -1.
</event>
<event>
 7    1  0.2556591E-009  0.6838401E+02  0.7561462E-02  0.1365676E+00
          1   -1    0    0  501    0  0.00000000000E+00  0.00000000000E+00  0.72433723181E+02  0.72433723181E+02  0.00000000000E+00 0. -1.
         -1   -1    0    0    0  501 -0.00000000000E+00 -0.00000000000E+00 -0.17967910947E+03  0.17967910947E+03  0.00000000000E+00 0.  1.
         25    2    1    2    0    0 -0.29862415910E+00  0.96413257222E+01 -0.21879010160E+02  0.12735339749E+03  0.12508857833E+03 0.  0.
          5    1    3    3  502    0  0.17208932808E+02 -0.10082761897E+02  0.48215385069E+02  0.52345059110E+02  0.41800000000E+01 0. -1.
         -5    1    3    3    0  502 -0.17507556968E+02  0.19724087620E+02 -0.70094395229E+02  0.75008338376E+02  0.41800000000E+01 0. -1.
        -11    1    1    2    0    0 -0.23399517600E+02 -0.42889587223E+02 -0.35954391042E+02  0.60661127184E+02  0.00000000000E+00 0.  1.
         11    1    1    2    0    0  0.23698141759E+02  0.33248261500E+02 -0.49411985083E+02  0.64098307977E+02  0.00000000000E+00 0. -1.
</event>
<event>
 7    1  0.2556591E-009  0.1018079E+03  0.7561462E-02  0.1276540E+00
         -2   -1    0    0    0  501 -0.00000000000E+00  0.00000000000E+00  0.85257196133E+02  0.85257196133E+02  0.00000000000E+00 0.  1.
          2   -1    0    0  501    0  0.00000000000E+00 -0.00000000000E+00 -0.26228348819E+03  0.26228348819E+03  0.00000000000E+00 0. -1.
         25    2    1    2    0    0  0.48480613390E+02 -0.63043881958E+02 -0.17028399848E+03  0.22576292959E+03  0.12508940527E+03 0.  0.
          5    1    3    3  502    0  0.15430642799E+02  0.10246641959E+02  0.14703845616E+02  0.24016117182E+02  0.41800000000E+01 0. -1.
         -5    1    3    3    0  502  0.33049970591E+02 -0.73290523916E+02 -0.18498784410E+03  0.20174681241E+03  0.41800000000E+01 0. -1.
        -11    1    1    2    0    0 -0.40198900618E+02  0.77588327139E+02 -0.30641925140E+02  0.92600365525E+02  0.00000000000E+00 0. -1.
         11    1    1    2    0    0 -0.82817127721E+01 -0.14544445181E+02  0.23899631565E+02  0.29177389208E+02  0.00000000000E+00 0.  1.
</event>
<event>
 7    1  0.2556591E-009  0.2710270E+03  0.7561462E-02  0.1100693E+00
          1   -1    0    0  501    0  0.00000000000E+00  0.00000000000E+00  0.42302429988E+03  0.42302429988E+03  0.00000000000E+00 0. -1.
         -1   -1    0    0    0  501 -0.00000000000E+00 -0.00000000000E+00 -0.19317823626E+03  0.19317823626E+03  0.00000000000E+00 0.  1.
         25    2    1    2    0    0  0.19076993744E+03 -0.18160228677E+03  0.10028537960E+03  0.30834626587E+03  0.12509077793E+03 0.  0.
          5    1    3    3  502    0  0.27660107953E+02 -0.17390931015E+02  0.66756316721E+02  0.74440609050E+02  0.41800000000E+01 0.  1.
         -5    1    3    3    0  502  0.16310982949E+03 -0.16421135576E+03  0.33529062880E+02  0.23390565682E+03  0.41800000000E+01 0.  1.
        -11    1    1    2    0    0 -0.74907554238E+02  0.17810367655E+02  0.51213241976E+02  0.92472412273E+02  0.00000000000E+00 0. -1.
         11    1    1    2    0    0 -0.11586238321E+03  0.16379191912E+03  0.78347442036E+02  0.21538385799E+03  0.00000000000E+00 0.  1.
</event>
<event>
 7    1  0.2556591E-009  0.1324759E+03  0.7561462E-02  0.1223827E+00
          2   -1    0    0  501    0  0.00000000000E+00  0.00000000000E+00  0.39857371770E+03  0.39857371770E+03  0.00000000000E+00 0. -1.
         -2   -1    0    0    0  501 -0.00000000000E+00 -0.00000000000E+00 -0.44487038966E+02  0.44487038966E+02  0.00000000000E+00 0.  1.
         25    2    1    2    0    0 -0.83773074134E+02 -0.14492511020E+02  0.20397009626E+03  0.25393003229E+03  0.12509476529E+03 0.  0.
          5    1    3    3  502    0  0.80954525531E+01 -0.50943272401E+02  0.80805001943E+02  0.95956626107E+02  0.41800000000E+01 0.  1.
         -5    1    3    3    0  502 -0.91868526687E+02  0.36450761381E+02  0.12316509432E+03  0.15797340618E+03  0.41800000000E+01 0.  1.
        -11    1    1    2    0    0  0.70195684836E+02 -0.23425035819E+02  0.10735182056E+03  0.13038627171E+03  0.00000000000E+00 0. -1.
         11    1    1    2    0    0  0.13577389298E+02  0.37917546839E+02  0.42764761912E+02  0.58744452673E+02  0.00000000000E+00 0.  1.
</event>
<event>
 7    1  0.2556591E-009  0.1779686E+03  0.7561462E-02  0.1169784E+00
         -1   -1    0    0    0  501 -0.00000000000E+00  0.00000000000E+00  0.62139946543E+02  0.62139946543E+02  0.00000000000E+00 0. -1.
          1   -1    0    0  501    0  0.00000000000E+00 -0.00000000000E+00 -0.59505279017E+03  0.59505279017E+03  0.00000000000E+00 0.  1.
         25    2    1    2    0    0  0.15516862796E+03  0.38379056013E+01 -0.22448258834E+03  0.30022167937E+03  0.12509433110E+03 0.  0.
          5    1    3    3  502    0  0.16665301310E+03 -0.15958613208E+02 -0.22006758732E+03  0.27654135224E+03  0.41800000000E+01 0.  1.
         -5    1    3    3    0  502 -0.11484385140E+02  0.19796518809E+02 -0.44150010268E+01  0.23680327132E+02  0.41800000000E+01 0.  1.
        -11    1    1    2    0    0 -0.49614268268E+01  0.13135689844E+02 -0.63046307506E+00  0.14055589191E+02  0.00000000000E+00 0.  1.
         11    1    1    2    0    0 -0.15020720113E+03 -0.16973595445E+02 -0.30779979221E+03  0.34291546815E+03  0.00000000000E+00 0. -1.
</event>
<event>
 7    1  0.2556591E-009  0.2048701E+03  0.7561462E-02  0.1145694E+00
          1   -1    0    0  501    0  0.00000000000E+00  0.00000000000E+00  0.63717655208E+02  0.63717655208E+02  0.00000000000E+00 0. -1.
         -1   -1    0    0    0  501 -0.00000000000E+00 -0.00000000000E+00 -0.76748432300E+03  0.76748432300E+03  0.00000000000E+00 0.  1.
         25    2    1    2    0    0 -0.18513365954E+03  0.41951561254E+02 -0.30279708482E+03  0.37864078887E+03  0.12509343322E+03 0.  0.
          5    1    3    3  502    0 -0.10572786007E+03  0.55666666042E+02 -0.85894923755E+02  0.14721606037E+03  0.41800000000E+01 0. -1.
         -5    1    3    3    0  502 -0.79405799468E+02 -0.13715104788E+02 -0.21690216106E+03  0.23142472850E+03  0.41800000000E+01 0. -1.
        -11    1    1    2    0    0  0.46834587032E+02  0.27938347965E+02 -0.93153503870E+02  0.10794260101E+03  0.00000000000E+00 0.  1.
         11    1    1    2    0    0  0.13829907251E+03 -0.69889909219E+02 -0.30781607911E+03  0.34461858833E+03  0.00000000000E+00 0. -1.
</event>
<event>
 7    1  0.2556591E-009  0.1002853E+03  0.7561462E-02  0.1279697E+00
         -1   -1    0    0    0  501 -0.00000000000E+00  0.00000000000E+00  0.20302915252E+03  0.20302915252E+03  0.00000000000E+00 0.  1.
          1   -1    0    0  501    0  0.00000000000E+00 -0.00000000000E+00 -0.72289493310E+02  0.72289493310E+02  0.00000000000E+00 0. -1.
         25    2    1    2    0    0  0.39949494124E+02  0.20905596779E+02  0.43143933847E+02  0.13979119490E+03  0.12508866091E+03 0.  0.
          5    1    3    3  502    0  0.74627179742E+02 -0.17022838074E+02  0.43675436109E+02  0.88227031525E+02  0.41800000000E+01 0. -1.
         -5    1    3    3    0  502 -0.34677685619E+02  0.37928434853E+02 -0.53150226235E+00  0.51564163378E+02  0.41800000000E+01 0. -1.
        -11    1    1    2    0    0 -0.27265525178E+02  0.17168008912E+02  0.89730411637E+02  0.95339898079E+02  0.00000000000E+00 0.  1.
         11    1    1    2    0    0 -0.12683968946E+02 -0.38073605691E+02 -0.21346862718E+01  0.40187552849E+02  0.00000000000E+00 0. -1.
</event>
<event>
 7    1  0.2556591E-009  0.1146932E+03  0.7561462E-02  0.1252118E+00
          2   -1    0    0  501    0  0.00000000000E+00  0.00000000000E+00  0.12070548346E+03  0.12070548346E+03  0.00000000000E+00 0. -1.
         -2   -1    0    0    0  501 -0.00000000000E+00 -0.00000000000E+00 -0.13481324562E+03  0.13481324562E+03  0.00000000000E+00 0.  1.
         25    2    1    2    0    0  0.51644073815E+02  0.28247379550E+02 -0.37857098181E+02  0.14333723783E+03  0.12508948419E+03 0.  0.
          5    1    3    3  502    0  0.65151855289E+02 -0.21219466325E+02 -0.56198691447E+02  0.88717502890E+02  0.41800000000E+01 0. -1.
         -5    1    3    3    0  502 -0.13507781474E+02  0.49466845875E+02  0.18341593266E+02  0.54619734938E+02  0.41800000000E+01 0. -1.
        -11    1    1    2    0    0 -0.58239838479E+02  0.19249038270E+02  0.17752660339E+02  0.63855784464E+02  0.00000000000E+00 0. -1.
         11    1    1    2    0    0  0.65957646637E+01 -0.47496417820E+02  0.59966756840E+01  0.48325706788E+02  0.00000000000E+00 0.  1.
</event>
<event>
 7    1  0.2556591E-009  0.1356608E+03  0.7561462E-02  0.1219290E+00
          1   -1    0    0  501    0  0.00000000000E+00  0.00000000000E+00  0.30721470353E+02  0.30721470353E+02  0.00000000000E+00 0. -1.
         -1   -1    0    0    0  501 -0.00000000000E+00 -0.00000000000E+00 -0.76452846567E+03  0.76452846567E+03  0.00000000000E+00 0.  1.
         25    2    1    2    0    0  0.78816085575E+02 -0.18118240669E+02 -0.56831117129E+03  0.58750465330E+03  0.12507551419E+03 0.  0.
          5    1    3    3  502    0  0.12032116602E+02  0.49664920376E+02 -0.15120240782E+03  0.15965906387E+03  0.41800000000E+01 0.  1.
         -5    1    3    3    0  502  0.66783968973E+02 -0.67783161045E+02 -0.41710876347E+03  0.42784558943E+03  0.41800000000E+01 0.  1.
        -11    1    1    2    0    0  0.13102168830E+02  0.29406027550E+02 -0.33087639606E+02  0.46164631256E+02  0.00000000000E+00 0.  1.
         11    1    1    2    0    0 -0.91918254405E+02 -0.11287786881E+02 -0.13240818442E+03  0.16158065146E+03  0.00000000000E+00 0. -1.
</event>
<event>
 7    1  0.2556591E-009  0.1202289E+03  0.7561462E-02  0.1242720E+00
          2   -1    0    0  501    0  0.00000000000E+00  0.00000000000E+00  0.95460912831E+03  0.95460912831E+03  0.00000000000E+00 0. -1.
         -2   -1    0    0    0  501 -0.00000000000E+00 -0.00000000000E+00 -0.22574688801E+02  0.22574688801E+02  0.00000000000E+00 0.  1.
         25    2    1    2    0    0 -0.56375078952E+02 -0.11583050090E+02  0.68032940049E+03  0.69412359181E+03  0.12508857247E+03 0.  0.
          5    1    3    3  502    0 -0.26733611268E+02  0.53915445720E+02  0.21691334713E+03  0.22514536154E+03  0.41800000000E+01 0.  1.
         -5    1    3    3    0  502 -0.29641467684E+02 -0.65498495810E+02  0.46341605336E+03  0.46897823027E+03  0.41800000000E+01 0.  1.
        -11    1    1    2    0    0  0.43247224515E+02  0.50827494135E+02  0.70048916522E+02  0.96750231495E+02  0.00000000000E+00 0.  1.
         11    1    1    2    0    0  0.13127854437E+02 -0.39244444045E+02  0.18165612250E+03  0.18630999381E+03  0.00000000000E+00 0. -1.
</event>
<event>
 7    1  0.2556591E-009  0.1065193E+03  0.7561462E-02  0.1267155E+00
         -3   -1    0    0    0  501 -0.00000000000E+00  0.00000000000E+00  0.52251389665E+03  0.52251389665E+03  0.00000000000E+00 0.  1.
          3   -1    0    0  501    0  0.00000000000E+00 -0.00000000000E+00 -0.27132899953E+02  0.27132899953E+02  0.00000000000E+00 0. -1.
         25    2    1    2    0    0 -0.18961675635E+02  0.34802824627E+02  0.21790119814E+03  0.25436032087E+03  0.12508980349E+03 0.  0.
          5    1    3    3  502    0  0.38079205102E+02  0.42208229005E+02  0.46641340178E+02  0.73650848403E+02  0.41800000000E+01 0.  1.
         -5    1    3    3    0  502 -0.57040880737E+02 -0.74054043778E+01  0.17125985796E+03  0.18070947247E+03  0.41800000000E+01 0.  1.
        -11    1    1    2    0    0 -0.36036137434E+02 -0.20825247994E+02  0.15155675907E+03  0.15716788913E+03  0.00000000000E+00 0.  1.
         11    1    1    2    0    0  0.54997813069E+02 -0.13977576633E+02  0.12592303949E+03  0.13811858660E+03  0.00000000000E+00 0. -1.
</event>
<event>
 7    1  0.2556591E-009  0.2499137E+03  0.7561462E-02  0.1113359E+00
         -2   -1    0    0    0  501 -0.00000000000E+00  0.00000000000E+00  0.13399175873E+03  0.13399175873E+03  0.00000000000E+00 0.  1.
          2   -1    0    0  501    0  0.00000000000E+00 -0.00000000000E+00 -0.50644508202E+03  0.50644508202E+03  0.00000000000E+00 0. -1.
         25    2    1    2    0    0 -0.11378798212E+03  0.20716535949E+03 -0.20980997668E+03  0.33990148801E+03  0.12509038406E+03 0.  0.
          5    1    3    3  502    0 -0.75295862711E+02  0.19286524450E+03 -0.11587704970E+03  0.23730030031E+03  0.41800000000E+01 0. -1.
         -5    1    3    3    0  502 -0.38492119413E+02  0.14300114985E+02 -0.93932926984E+02  0.10260118770E+03  0.41800000000E+01 0. -1.
        -11    1    1    2    0    0  0.15257912553E+02 -0.11674253115E+03 -0.91122029250E+02  0.14887863073E+03  0.00000000000E+00 0. -1.
         11    1    1    2    0    0  0.98530069572E+02 -0.90422828337E+02 -0.71521317359E+02  0.15165672201E+03  0.00000000000E+00 0.  1.
</event>
<event>
 7    1  0.2556591E-009  0.1027749E+03  0.7561462E-02  0.1274567E+00
          2   -1    0    0  501    0  0.00000000000E+00  0.00000000000E+00  0.12528002817E+03  0.12528002817E+03  0.00000000000E+00 0. -1.
         -2   -1    0    0    0  501 -0.00000000000E+00 -0.00000000000E+00 -0.12667723833E+03  0.12667723833E+03  0.00000000000E+00 0.  1.
         25    2    1    2    0    0  0.31244867586E+02  0.15333584088E+02  0.53446271782E+02  0.14041210033E+03  0.12509074067E+03 0.  0.
          5    1    3    3  502    0 -0.31259555203E+02  0.37730933061E+02  0.55114250459E+02  0.73863631814E+02  0.41800000000E+01 0. -1.
         -5    1    3    3    0  502  0.62504422790E+02 -0.22397348973E+02 -0.16679786765E+01  0.66548468519E+02  0.41800000000E+01 0. -1.
        -11    1    1    2    0    0  0.12600582663E+02  0.26438704603E+02  0.80794211890E+00  0.29299019694E+02  0.00000000000E+00 0. -1.
         11    1    1    2    0    0 -0.43845450250E+02 -0.41772288691E+02 -0.55651424057E+02  0.82246146473E+02  0.00000000000E+00 0.  1.
</event>
<event>
 7    1  0.2556591E-009  0.1779945E+03  0.7561462E-02  0.1169758E+00
         -1   -1    0    0    0  501 -0.00000000000E+00  0.00000000000E+00  0.20754292690E+03  0.20754292690E+03  0.00000000000E+00 0.  1.
          1   -1    0    0  501    0  0.00000000000E+00 -0.00000000000E+00 -0.19937108353E+03  0.19937108353E+03  0.00000000000E+00 0. -1.
         25    2    1    2    0    0  0.12242925790E+03  0.10722025010E+03  0.51320993334E+02  0.21158610408E+03  0.12509888034E+03 0.  0.
          5    1    3    3  502    0  0.73776755890E+02  0.34986692413E+02  0.85164577907E+02  0.11805742707E+03  0.41800000000E+01 0. -1.
         -5    1    3    3    0  502  0.48652502010E+02  0.72233557687E+02 -0.33843584573E+02  0.93528677018E+02  0.41800000000E+01 0. -1.
        -11    1    1    2    0    0 -0.11004592522E+03 -0.12425430705E+03 -0.25656374744E+02  0.16795085008E+03  0.00000000000E+00 0.  1.
         11    1    1    2    0    0 -0.12383332685E+02  0.17034056954E+02 -0.17492775227E+02  0.27377056266E+02  0.00000000000E+00 0. -1.
</event>
<event>
 7    1  0.2556591E-009  0.1668852E+03  0.7561462E-02  0.1181136E+00
          3   -1    0    0  501    0  0.00000000000E+00  0.00000000000E+00  0.14905060764E+03  0.14905060764E+03  0.00000000000E+00 0. -1.
         -3   -1    0    0    0  501 -0.00000000000E+00 -0.00000000000E+00 -0.23366742553E+03  0.23366742553E+03  0.00000000000E+00 0.  1.
         25    2    1    2    0    0 -0.75663357222E+02  0.12693261368E+03 -0.87273431248E+02  0.21237019772E+03  0.12509043543E+03 0.  0.
          5    1    3    3  502    0 -0.99362802153E+02  0.99949492862E+02 -0.29243353383E+02  0.14399831142E+03  0.41800000000E+01 0.  1.
         -5    1    3    3    0  502  0.23699444931E+02  0.26983120818E+02 -0.58030077865E+02  0.68371886299E+02  0.41800000000E+01 0.  1.
        -11    1    1    2    0    0  0.43490187824E+02 -0.25974016248E+02  0.32597052283E+02  0.60237976182E+02  0.00000000000E+00 0. -1.
         11    1    1    2    0    0  0.32173169398E+02 -0.10095859743E+03 -0.29940438929E+02  0.11010985927E+03  0.00000000000E+00 0.  1.
</event>
<event>
 7    1  0.2556591E-009  0.1191969E+03  0.7561462E-02  0.1244428E+00
          2   -1    0    0  501    0  0.00000000000E+00  0.00000000000E+00  0.62506498829E+03  0.62506498829E+03  0.00000000000E+00 0. -1.
         -2   -1    0    0    0  501 -0.00000000000E+00 -0.00000000000E+00 -0.36637188217E+02  0.36637188217E+02  0.00000000000E+00 0.  1.
         25    2    1    2    0    0 -0.90734583308E+02  0.51749410168E+02  0.27337529392E+03  0.31826474426E+03  0.12509048745E+03 0.  0.
          5    1    3    3  502    0 -0.43409918540E+02 -0.19296492646E+02  0.21551522913E+02  0.52332744968E+02  0.41800000000E+01 0.  1.
         -5    1    3    3    0  502 -0.47324664769E+02  0.71045902814E+02  0.25182377101E+03  0.26593199929E+03  0.41800000000E+01 0.  1.
        -11    1    1    2    0    0  0.28854761310E+02 -0.23504456949E+02  0.23408555053E+02  0.43966091439E+02  0.00000000000E+00 0.  1.
         11    1    1    2    0    0  0.61879821998E+02 -0.28244953219E+02  0.29164395110E+03  0.29947134081E+03  0.00000000000E+00 0. -1.
</event>
<event>
 7    1  0.2556591E-009  0.1152481E+03  0.7561462E-02  0.1251149E+00
         -2   -1    0    0    0  501 -0.00000000000E+00  0.00000000000E+00  0.10191550023E+04  0.10191550023E+04  0.00000000000E+00 0.  1.
          2   -1    0    0  501    0  0.00000000000E+00 -0.00000000000E+00 -0.23422030118E+02  0.23422030118E+02  0.00000000000E+00 0. -1.
         25    2    1    2    0    0 -0.78709014117E+02 -0.65334309060E+02  0.66872534011E+03  0.68797169162E+03  0.12509111527E+03 0.  0.
          5    1    3    3  502    0 -0.65127492305E+02 -0.40430768311E+02  0.64814969055E+03  0.65268042030E+03  0.41800000000E+01 0.  1.
         -5    1    3    3    0  502 -0.13581521812E+02 -0.24903540749E+02  0.20575649561E+02  0.35291271320E+02  0.41800000000E+01 0.  1.
        -11    1    1    2    0    0  0.72292899788E+01  0.51801756878E+02  0.21328168789E+03  0.21960137303E+03  0.00000000000E+00 0.  1.
         11    1    1    2    0    0  0.71479724138E+02  0.13532552182E+02  0.11372594415E+03  0.13500396774E+03  0.00000000000E+00 0. -1.
</event>
<event>
 7    1  0.2556591E-009  0.8954145E+02  0.7561462E-02  0.1303966E+00
         -2   -1    0    0    0  501 -0.00000000000E+00  0.00000000000E+00  0.51597679051E+02  0.51597679051E+02  0.00000000000E+00 0.  1.
          2   -1    0    0  501    0  0.00000000000E+00 -0.00000000000E+00 -0.26120699825E+03  0.26120699825E+03  0.00000000000E+00 0. -1.
         25    2    1    2    0    0 -0.47753423450E+02 -0.97476048918E+01 -0.12632994853E+03  0.18434317169E+03  0.12509094212E+03 0.  0.
          5    1    3    3  502    0  0.18592880240E+02  0.32168758594E+02 -0.22356828747E+01  0.37456573562E+02  0.41800000000E+01 0.  1.
         -5    1    3    3    0  502 -0.66346303690E+02 -0.41916363486E+02 -0.12409426566E+03  0.14688659813E+03  0.41800000000E+01 0.  1.
        -11    1    1    2    0    0  0.31436756018E+02 -0.13900478557E+02  0.58041792031E+01  0.34859452509E+02  0.00000000000E+00 0.  1.
         11    1    1    2    0    0  0.16316667433E+02  0.23648083449E+02 -0.89083549875E+02  0.93602053104E+02  0.00000000000E+00 0. -1.
</event>
<event>
 7    1  0.2556591E-009  0.1606963E+03  0.7561462E-02  0.1187913E+00
          1   -1    0    0  501    0  0.00000000000E+00  0.00000000000E+00  0.39925931416E+03  0.39925931416E+03  0.00000000000E+00 0. -1.
         -1   -1    0    0    0  501 -0.00000000000E+00 -0.00000000000E+00 -0.87252609743E+02  0.87252609743E+02  0.00000000000E+00 0.  1.
         25    2    1    2    0    0 -0.13948021473E+03 -0.42411870234E+01  0.23913879393E+03  0.30382179873E+03  0.12509038592E+03 0.  0.
          5    1    3    3  502    0 -0.36376514451E+02 -0.31232098437E+02  0.17007764521E+03  0.17675568612E+03  0.41800000000E+01 0.  1.
         -5    1    3    3    0  502 -0.10310370027E+03  0.26990911413E+02  0.69061148719E+02  0.12706611260E+03  0.41800000000E+01 0.  1.
        -11    1    1    2    0    0  0.11782784138E+03 -0.34021934881E+02  0.44996537205E+02  0.13063529622E+03  0.00000000000E+00 0.  1.
         11    1    1    2    0    0  0.21652373347E+02  0.38263121905E+02  0.27871373278E+02  0.52054828958E+02  0.00000000000E+00 0. -1.
</event>
<event>
 7    1  0.2556591E-009  0.1685643E+03  0.7561462E-02  0.1179353E+00
         -2   -1    0    0    0  501 -0.00000000000E+00  0.00000000000E+00  0.30482526443E+02  0.30482526443E+02  0.00000000000E+00 0.  1.
          2   -1    0    0  501    0  0.00000000000E+00 -0.00000000000E+00 -0.11009618424E+04  0.11009618424E+04  0.00000000000E+00 0. -1.
         25    2    1    2    0    0  0.57040328772E+02 -0.13356572430E+03 -0.48071515022E+03  0.51752103727E+03  0.12509023361E+03 0.  0.
          5    1    3    3  502    0  0.56167737748E+02 -0.15659120015E+03 -0.39406087696E+03  0.42775818623E+03  0.41800000000E+01 0. -1.
         -5    1    3    3    0  502  0.87259102354E+00  0.23025475850E+02 -0.86654273256E+02  0.89762851040E+02  0.41800000000E+01 0. -1.
        -11    1    1    2    0    0 -0.14253727546E+02  0.64474413000E+02 -0.11807117230E+03  0.13528089447E+03  0.00000000000E+00 0.  1.
         11    1    1    2    0    0 -0.42786601226E+02  0.69091311303E+02 -0.47169299342E+03  0.47864243709E+03  0.00000000000E+00 0. -1.
</event>
<event>
 7    1  0.2556591E-009  0.9732875E+02  0.7561462E-02  0.1286016E+00
          2   -1    0    0  501    0  0.00000000000E+00  0.00000000000E+00  0.44788132134E+02  0.44788132134E+02  0.00000000000E+00 0. -1.
         -2   -1    0    0    0  501 -0.00000000000E+00 -0.00000000000E+00 -0.33554278465E+03  0.33554278465E+03  0.00000000000E+00 0.  1.
         25    2    1    2    0    0 -0.52085478563E+02  0.21144876072E+02 -0.17873396063E+03  0.22528718628E+03  0.12509390375E+03 0.  0.
          5    1    3    3  502    0  0.40632982794E+02 -0.38391392309E+01 -0.53360842715E+02  0.67309956292E+02  0.41800000000E+01 0. -1.
         -5    1    3    3    0  502 -0.92718461357E+02  0.24984015303E+02 -0.12537311792E+03  0.15797722998E+03  0.41800000000E+01 0. -1.
        -11    1    1    2    0    0  0.29807763636E+02 -0.18493376477E+02 -0.12451665635E+03  0.12936346259E+03  0.00000000000E+00 0.  1.
         11    1    1    2    0    0  0.22277714927E+02 -0.26514995956E+01  0.12495964461E+02  0.25680267917E+02  0.00000000000E+00 0. -1.
</event>
<event>
 7    1  0.2556591E-009  0.1094715E+03  0.7561462E-02  0.1261552E+00
         -1   -1    0    0    0  501 -0.00000000000E+00  0.00000000000E+00  0.16616467702E+02  0.16616467702E+02  0.00000000000E+00 0.  1.
          1   -1    0    0  501    0  0.00000000000E+00 -0.00000000000E+00 -0.89438162633E+03  0.89438162633E+03  0.00000000000E+00 0. -1.
         25    2    1    2    0    0 -0.31130688198E+02  0.36622615871E+02 -0.60221876342E+03  0.61694786101E+03  0.12508752316E+03 0.  0.
          5    1    3    3  502    0 -0.45113324532E+02 -0.25828088748E+02 -0.12505761201E+03  0.13549605507E+03  0.41800000000E+01 0.  1.
         -5    1    3    3    0  502  0.13982636334E+02  0.62450704619E+02 -0.47716115141E+03  0.48145180594E+03  0.41800000000E+01 0.  1.
        -11    1    1    2    0    0  0.23849505793E+02  0.28481508283E+02 -0.10108723420E+03  0.10769690877E+03  0.00000000000E+00 0.  1.
         11    1    1    2    0    0  0.72811824049E+01 -0.65104124154E+02 -0.17445916101E+03  0.18635332425E+03  0.00000000000E+00 0. -1.
</event>
<event>
 7    1  0.2556591E-009  0.9318700E+02  0.7561462E-02  0.1295312E+00
         -1   -1    0    0    0  501 -0.00000000000E+00  0.00000000000E+00  0.15599341528E+03  0.15599341528E+03  0.00000000000E+00 0.  1.
          1   -1    0    0  501    0  0.00000000000E+00 -0.00000000000E+00 -0.18879010382E+03  0.18879010382E+03  0.00000000000E+00 0. -1.
         25    2    1    2    0    0 -0.79455017981E+01  0.91883197139E+01  0.11507481497E+03  0.17041347827E+03  0.12510389409E+03 0.  0.
          5    1    3    3  502    0  0.41524876284E+02 -0.28042209024E+02  0.90774160277E+02  0.10376946281E+03  0.41800000000E+01 0. -1.
         -5    1    3    3    0  502 -0.49470378082E+02  0.37230528738E+02  0.24300654696E+02  0.66644015458E+02  0.41800000000E+01 0. -1.
        -11    1    1    2    0    0 -0.28047530214E+02  0.13872445950E+02 -0.14824916085E+02  0.34624945410E+02  0.00000000000E+00 0.  1.
         11    1    1    2    0    0  0.35993032013E+02 -0.23060765664E+02 -0.13304658743E+03  0.13974509542E+03  0.00000000000E+00 0. -1.
</event>
<event>
 7    1  0.2887276E-009  0.1224821E+03  0.7561462E-02  0.1239058E+00
         -2   -1    0    0    0  501 -0.00000000000E+00  0.00000000000E+00  0.11317543418E+03  0.11317543418E+03  0.00000000000E+00 0.  1.
          2   -1    0    0  501    0  0.00000000000E+00 -0.00000000000E+00 -0.18878049821E+03  0.18878049821E+03  0.00000000000E+00 0. -1.
         25    2    1    2    0    0  0.44846664369E+02  0.84540620813E+02 -0.61854581559E+02  0.16920953597E+03  0.12509011924E+03 0.  0.
          5    1    3    3  502    0  0.42512045783E+02  0.12954076202E+02 -0.83145909882E+02  0.94370529600E+02  0.41800000000E+01 0. -1.
         -5    1    3    3    0  502  0.23346185857E+01  0.71586544612E+02  0.21291328323E+02  0.74839006374E+02  0.41800000000E+01 0. -1.
        -11    1    1    2    0    0  0.99863093128E+01 -0.71530737847E+02  0.72900925230E+01  0.72591447703E+02  0.00000000000E+00 0. -1.
         11    1    1    2    0    0 -0.54832973682E+02 -0.13009882966E+02 -0.21040574993E+02  0.60154948704E+02  0.00000000000E+00 0.  1.
</event>
<event>
 7    1  0.2556591E-009  0.1685666E+03  0.7561462E-02  0.1179351E+00
         -1   -1    0    0    0  501 -0.00000000000E+00  0.00000000000E+00  0.23594202127E+02  0.23594202127E+02  0.00000000000E+00 0.  1.
          1   -1    0    0  501    0  0.00000000000E+00 -0.00000000000E+00 -0.14070530230E+04  0.14070530230E+04  0.00000000000E+00 0. -1.
         25    2    1    2    0    0 -0.12626935378E+03 -0.42424125889E+02 -0.96238609561E+03  0.97958047790E+03  0.12508860659E+03 0.  0.
          5    1    3    3  502    0 -0.57788520597E+02 -0.80130306312E+02 -0.41462140790E+03  0.42624964914E+03  0.41800000000E+01 0.  1.
         -5    1    3    3    0  502 -0.68480833184E+02  0.37706180423E+02 -0.54776468771E+03  0.55333082877E+03  0.41800000000E+01 0.  1.
        -11    1    1    2    0    0  0.37561869011E+02  0.58783809716E+02 -0.15117028149E+03  0.16648989247E+03  0.00000000000E+00 0.  1.
         11    1    1    2    0    0  0.88707484770E+02 -0.16359683827E+02 -0.26990244377E+03  0.28457685476E+03  0.00000000000E+00 0. -1.
</event>
<event>
 7    1  0.2556591E-009  0.1016384E+03  0.7561462E-02  0.1276888E+00
          2   -1    0    0  501    0  0.00000000000E+00  0.00000000000E+00  0.94419717195E+02  0.94419717195E+02  0.00000000000E+00 0. -1.
         -2   -1    0    0    0  501 -0.00000000000E+00 -0.00000000000E+00 -0.17570015519E+03  0.17570015519E+03  0.00000000000E+00 0.  1.
         25    2    1    2    0    0  0.66832669919E+02 -0.17017788576E+02 -0.36176850652E+02  0.14735467171E+03  0.12509366033E+03 0.  0.
          5    1    3    3  502    0  0.80127543161E+02  0.20141634466E+02 -0.58965920192E+02  0.10159016072E+03  0.41800000000E+01 0. -1.
         -5    1    3    3    0  502 -0.13294873242E+02 -0.37159423041E+02  0.22789069540E+02  0.45764510986E+02  0.41800000000E+01 0. -1.
        -11    1    1    2    0    0 -0.34832892919E+02 -0.12814409249E+02 -0.64886493717E+02  0.74751565739E+02  0.00000000000E+00 0.  1.
         11    1    1    2    0    0 -0.31999777000E+02  0.29832197825E+02  0.19782906374E+02  0.48013634936E+02  0.00000000000E+00 0. -1.
</event>
<event>
 7    1  0.2556591E-009  0.1091862E+03  0.7561462E-02  0.1262084E+00
          1   -1    0    0  501    0  0.00000000000E+00  0.00000000000E+00  0.41198199948E+02  0.41198199948E+02  0.00000000000E+00 0. -1.
         -1   -1    0    0    0  501 -0.00000000000E+00 -0.00000000000E+00 -0.45828928778E+03  0.45828928778E+03  0.00000000000E+00 0.  1.
         25    2    1    2    0    0  0.14902191425E+02 -0.31934551845E+02 -0.90640278587E+02  0.15844468883E+03  0.12508864219E+03 0.  0.
          5    1    3    3  502    0  0.16162233169E+02  0.42855358404E+02 -0.76198852521E+01  0.46619036628E+02  0.41800000000E+01 0.  1.
         -5    1    3    3    0  502 -0.12600417437E+01 -0.74789910248E+02 -0.83020393335E+02  0.11182565220E+03  0.41800000000E+01 0.  1.
        -11    1    1    2    0    0 -0.46910252041E+01 -0.32190350646E+02 -0.84966928543E+02  0.90981335109E+02  0.00000000000E+00 0. -1.
         11    1    1    2    0    0 -0.10211166221E+02  0.64124902490E+02 -0.24148388070E+03  0.25006146379E+03  0.00000000000E+00 0.  1.
</event>
<event>
 7    1  0.2556591E-009  0.1291361E+03  0.7561462E-02  0.1228743E+00
         -1   -1    0    0    0  501 -0.00000000000E+00  0.00000000000E+00  0.43394490239E+02  0.43394490239E+02  0.00000000000E+00 0.  1.
          1   -1    0    0  501    0  0.00000000000E+00 -0.00000000000E+00 -0.39458086761E+03  0.39458086761E+03  0.00000000000E+00 0. -1.
         25    2    1    2    0    0  0.35518925605E+02  0.61890941202E+02 -0.22501071863E+03  0.26714957727E+03  0.12508793090E+03 0.  0.
          5    1    3    3  502    0  0.35367544989E+02 -0.32961711186E+02 -0.65443425852E+02  0.81471786713E+02  0.41800000000E+01 0. -1.
         -5    1    3    3    0  502  0.15138061590E+00  0.94852652389E+02 -0.15956729278E+03  0.18567779055E+03  0.41800000000E+01 0. -1.
        -11    1    1    2    0    0 -0.32693646006E+02 -0.85233175047E+02 -0.94677187517E+02  0.13151934631E+03  0.00000000000E+00 0.  1.
         11    1    1    2    0    0 -0.28252795990E+01  0.23342233845E+02 -0.31498471228E+02  0.39306434274E+02  0.00000000000E+00 0. -1.
</event>
<event>
 7    1  0.2556591E-009  0.8675280E+02  0.7561462E-02  0.1310911E+00
          2   -1    0    0  501    0  0.00000000000E+00  0.00000000000E+00  0.92052806436E+02  0.92052806436E+02  0.00000000000E+00 0. -1.
         -2   -1    0    0    0  501 -0.00000000000E+00 -0.00000000000E+00 -0.15774606545E+03  0.15774606545E+03  0.00000000000E+00 0.  1.
         25    2    1    2    0    0 -0.14591034873E+02  0.13789960827E+02  0.14254137217E+02  0.12748185276E+03  0.12508149758E+03 0.  0.
          5    1    3    3  502    0  0.14394012200E+02 -0.51629558480E+02  0.14957862335E+02  0.55803305831E+02  0.41800000000E+01 0. -1.
         -5    1    3    3    0  502 -0.28985047073E+02  0.65419519307E+02 -0.70372511828E+00  0.71678546925E+02  0.41800000000E+01 0. -1.
        -11    1    1    2    0    0  0.40150890958E+01  0.15979913967E+02 -0.88150187192E+02  0.89676831416E+02  0.00000000000E+00 0.  1.
         11    1    1    2    0    0  0.10575945777E+02 -0.29769874795E+02  0.82027909616E+01  0.32640187713E+02  0.00000000000E+00 0. -1.
</event>
<event>
 7    1  0.2556591E-009  0.1686688E+03  0.7561462E-02  0.1179243E+00
          3   -1    0    0  501    0  0.00000000000E+00  0.00000000000E+00  0.14701695972E+04  0.14701695972E+04  0.00000000000E+00 0. -1.
         -3   -1    0    0    0  501 -0.00000000000E+00 -0.00000000000E+00 -0.23802488775E+02  0.23802488775E+02  0.00000000000E+00 0.  1.
         25    2    1    2    0    0 -0.12315124743E+03  0.78685266356E+02  0.92454900166E+03  0.94434977456E+03  0.12509212347E+03 0.  0.
          5    1    3    3  502    0 -0.43177142114E+02  0.98523967483E+02  0.45119612562E+03  0.46386059754E+03  0.41800000000E+01 0.  1.
         -5    1    3    3    0  502 -0.79974105311E+02 -0.19838701127E+02  0.47335287604E+03  0.48048917702E+03  0.41800000000E+01 0.  1.
        -11    1    1    2    0    0  0.18234061326E+02 -0.47842636377E+01  0.88135570449E+01  0.20809828418E+02  0.00000000000E+00 0.  1.
         11    1    1    2    0    0  0.10491718610E+03 -0.73901002718E+02  0.51300454970E+03  0.52881248297E+03  0.00000000000E+00 0. -1.
</event>
<event>
 7    1  0.2556591E-009  0.1068882E+03  0.7561462E-02  0.1266443E+00
         -1   -1    0    0    0  501 -0.00000000000E+00  0.00000000000E+00  0.72096588628E+03  0.72096588628E+03  0.00000000000E+00 0.  1.
          1   -1    0    0  501    0  0.00000000000E+00 -0.00000000000E+00 -0.21079694376E+02  0.21079694376E+02  0.00000000000E+00 0. -1.
         25    2    1    2    0    0 -0.62465372542E+01 -0.17068591237E+02  0.54502698237E+03  0.55949273361E+03  0.12508937368E+03 0.  0.
          5    1    3    3  502    0 -0.63237917996E+02 -0.16259113757E+02  0.35796652809E+03  0.36389682698E+03  0.41800000000E+01 0. -1.
         -5    1    3    3    0  502  0.56991380742E+02 -0.80947748059E+00  0.18706045428E+03  0.19559590662E+03  0.41800000000E+01 0. -1.
        -11    1    1    2    0    0  0.78480363543E+01  0.53831232102E+02  0.60975890658E+02  0.81715680661E+02  0.00000000000E+00 0. -1.
         11    1    1    2    0    0 -0.16014991001E+01 -0.36762640865E+02  0.93883318875E+02  0.10083716639E+03  0.00000000000E+00 0.  1.
</event>
<event>
 7    1  0.2556591E-009  0.1689076E+03  0.7561462E-02  0.1178992E+00
         -2   -1    0    0    0  501 -0.00000000000E+00  0.00000000000E+00  0.61850828516E+02  0.61850828516E+02  0.00000000000E+00 0.  1.
          2   -1    0    0  501    0  0.00000000000E+00 -0.00000000000E+00 -0.72235781502E+03  0.72235781502E+03  0.00000000000E+00 0. -1.
         25    2    1    2    0    0 -0.77712233025E+02 -0.11713173432E+03 -0.55033448354E+03  0.58161426638E+03  0.12509227291E+03 0.  0.
          5    1    3    3  502    0 -0.44849445628E+02  0.72112649283E+01 -0.26097964607E+03  0.26493645121E+03  0.41800000000E+01 0.  1.
         -5    1    3    3    0  502 -0.32862787397E+02 -0.12434299925E+03 -0.28935483747E+03  0.31667781518E+03  0.41800000000E+01 0.  1.
        -11    1    1    2    0    0  0.72310370435E+02  0.13044700883E+03 -0.11399725883E+03  0.18772476343E+03  0.00000000000E+00 0. -1.
         11    1    1    2    0    0  0.54018625900E+01 -0.13315274512E+02  0.38247558604E+01  0.14869613720E+02  0.00000000000E+00 0.  1.
</event>
<event>
 7    1  0.2556591E-009  0.1265419E+03  0.7561462E-02  0.1232679E+00
         -1   -1    0    0    0  501 -0.00000000000E+00  0.00000000000E+00  0.30143616004E+02  0.30143616004E+02  0.00000000000E+00 0.  1.
          1   -1    0    0  501    0  0.00000000000E+00 -0.00000000000E+00 -0.54525206629E+03  0.54525206629E+03  0.00000000000E+00 0. -1.
         25    2    1    2    0    0  0.51086269093E+02  0.33155994470E+02 -0.31445528935E+03  0.34385794816E+03  0.12508809958E+03 0.  0.
          5    1    3    3  502    0  0.13201855364E+02  0.77888673426E+02 -0.15727973648E+03  0.17605488446E+03  0.41800000000E+01 0. -1.
         -5    1    3    3    0  502  0.37884413728E+02 -0.44732678956E+02 -0.15717555287E+03  0.16780306371E+03  0.41800000000E+01 0. -1.
        -11    1    1    2    0    0 -0.28240386541E+02 -0.67948090545E+02 -0.11962129277E+03  0.14044114826E+03  0.00000000000E+00 0.  1.
         11    1    1    2    0    0 -0.22845882552E+02  0.34792096076E+02 -0.81031868170E+02  0.91096585874E+02  0.00000000000E+00 0. -1.
</event>
<event>
 7    1  0.2556591E-009  0.1447420E+03  0.7561462E-02  0.1207087E+00
         -1   -1    0    0    0  501 -0.00000000000E+00  0.00000000000E+00  0.77128912591E+02  0.77128912591E+02  0.00000000000E+00 0.  1.
          1   -1    0    0  501    0  0.00000000000E+00 -0.00000000000E+00 -0.37744908891E+03  0.37744908891E+03  0.00000000000E+00 0. -1.
         25    2    1    2    0    0  0.13207289468E+03 -0.31280722657E+02 -0.18743977306E+03  0.26306589705E+03  0.12509302358E+03 0.  0.
          5    1    3    3  502    0  0.96736440144E+02 -0.16092077957E+02 -0.19966865880E+03  0.22249031334E+03  0.41800000000E+01 0.  1.
         -5    1    3    3    0  502  0.35336454534E+02 -0.15188644700E+02  0.12228885741E+02  0.40575583709E+02  0.41800000000E+01 0.  1.
        -11    1    1    2    0    0 -0.34586313580E+02 -0.22540837110E+02 -0.17303463415E+02  0.44762844758E+02  0.00000000000E+00 0.  1.
         11    1    1    2    0    0 -0.97486581097E+02  0.53821559767E+02 -0.95576939847E+02  0.14674925969E+03  0.00000000000E+00 0. -1.
</event>
<event>
 7    1  0.2556591E-009  0.9219503E+02  0.7561462E-02  0.1297622E+00
         -1   -1    0    0    0  501 -0.00000000000E+00  0.00000000000E+00  0.23443042747E+03  0.23443042747E+03  0.00000000000E+00 0.  1.
          1   -1    0    0  501    0  0.00000000000E+00 -0.00000000000E+00 -0.10895864540E+03  0.10895864540E+03  0.00000000000E+00 0. -1.
         25    2    1    2    0    0 -0.71493298268E+02  0.40413953310E+01  0.16796094266E+03  0.22132636353E+03  0.12508739490E+03 0.  0.
          5    1    3    3  502    0 -0.52557410232E+02 -0.31364186323E+01  0.72970183749E+00  0.52821618272E+02  0.41800000000E+01 0. -1.
         -5    1    3    3    0  502 -0.18935888037E+02  0.71778139633E+01  0.16723124082E+03  0.16850474526E+03  0.41800000000E+01 0. -1.
        -11    1    1    2    0    0  0.66660264850E+02  0.32412803519E+02 -0.13740393433E+02  0.75385536766E+02  0.00000000000E+00 0.  1.
         11    1    1    2    0    0  0.48330334184E+01 -0.36454198850E+02 -0.28748767162E+02  0.46677172571E+02  0.00000000000E+00 0. -1.
</event>
<event>
 7    1  0.2556591E-009  0.1157447E+03  0.7561462E-02  0.1250287E+00
          1   -1    0    0  501    0  0.00000000000E+00  0.00000000000E+00  0.62443056838E+03  0.62443056838E+03  0.00000000000E+00 0. -1.
         -1   -1    0    0    0  501 -0.00000000000E+00 -0.00000000000E+00 -0.25968637517E+02  0.25968637517E+02  0.00000000000E+00 0.  1.
         25    2    1    2    0    0  0.50320287581E+02  0.46699832660E+02  0.33293852823E+03  0.36222710140E+03  0.12508958270E+03 0.  0.
          5    1    3    3  502    0  0.42784912472E+02 -0.38091078041E+02  0.13067747211E+03  0.14274296157E+03  0.41800000000E+01 0. -1.
         -5    1    3    3    0  502  0.75353751083E+01  0.84790910702E+02  0.20226105612E+03  0.21948413983E+03  0.41800000000E+01 0. -1.
        -11    1    1    2    0    0 -0.42469341804E+02 -0.10261522533E+01  0.21682200162E+03  0.22094451423E+03  0.00000000000E+00 0. -1.
         11    1    1    2    0    0 -0.78509457771E+01 -0.45673680407E+02  0.48701401009E+02  0.67227590257E+02  0.00000000000E+00 0.  1.
</event>
<event>
 7    1  0.2556591E-009  0.1806711E+03  0.7561462E-02  0.1167155E+00
          1   -1    0    0  501    0  0.00000000000E+00  0.00000000000E+00  0.51828642812E+02  0.51828642812E+02  0.00000000000E+00 0. -1.
         -1   -1    0    0    0  501 -0.00000000000E+00 -0.00000000000E+00 -0.64425181189E+03  0.64425181189E+03  0.00000000000E+00 0.  1.
         25    2    1    2    0    0  0.11866104916E+03  0.81939297839E+02 -0.26841159277E+03  0.32937259528E+03  0.12508809003E+03 0.  0.
          5    1    3    3  502    0  0.66039258614E+02 -0.25584624882E+02 -0.93212692768E+02  0.11714023733E+03  0.41800000000E+01 0. -1.
         -5    1    3    3    0  502  0.52621790545E+02  0.10752392272E+03 -0.17519890000E+03  0.21223235795E+03  0.41800000000E+01 0. -1.
        -11    1    1    2    0    0 -0.31417371117E+02 -0.77078100454E+02 -0.17898291766E+03  0.19739039894E+03  0.00000000000E+00 0.  1.
         11    1    1    2    0    0 -0.87243678042E+02 -0.48611973853E+01 -0.14502865865E+03  0.16931746049E+03  0.00000000000E+00 0. -1.
</event>
<event>
 7    1  0.2556591E-009  0.1528812E+03  0.7561462E-02  0.1196977E+00
         -1   -1    0    0    0  501 -0.00000000000E+00  0.00000000000E+00  0.11489416499E+03  0.11489416499E+03  0.00000000000E+00 0.  1.
          1   -1    0    0  501    0  0.00000000000E+00 -0.00000000000E+00 -0.37062526576E+03  0.37062526576E+03  0.00000000000E+00 0. -1.
         25    2    1    2    0    0  0.87531226895E+02  0.85207564958E+02 -0.28095903739E+03  0.33091956684E+03  0.12509090381E+03 0.  0.
          5    1    3    3  502    0 -0.28601871963E+02  0.37842294942E+02 -0.57728479637E+02  0.74834190899E+02  0.41800000000E+01 0. -1.
         -5    1    3    3    0  502  0.11613309886E+03  0.47365270015E+02 -0.22323055775E+03  0.25608537594E+03  0.41800000000E+01 0. -1.
        -11    1    1    2    0    0 -0.36597887598E+02 -0.40292430716E+01 -0.26813121630E+02  0.45547597828E+02  0.00000000000E+00 0.  1.
         11    1    1    2    0    0 -0.50933339298E+02 -0.81178321886E+02  0.52041058250E+02  0.10905226609E+03  0.00000000000E+00 0. -1.
</event>
<event>
 7    1  0.2556591E-009  0.1203659E+03  0.7561462E-02  0.1242495E+00
          2   -1    0    0  501    0  0.00000000000E+00  0.00000000000E+00  0.31729341001E+02  0.31729341001E+02  0.00000000000E+00 0.  1.
         -2   -1    0    0    0  501 -0.00000000000E+00 -0.00000000000E+00 -0.53411260190E+03  0.53411260190E+03  0.00000000000E+00 0. -1.
         25    2    1    2    0    0  0.38498820090E+02 -0.47572838321E+02 -0.26096582488E+03  0.29579463607E+03  0.12508385538E+03 0.  0.
          5    1    3    3  502    0  0.80681834800E+02 -0.43848921184E+02 -0.21106814048E+03  0.23021624331E+03  0.41800000000E+01 0.  1.
         -5    1    3    3    0  502 -0.42183014710E+02 -0.37239171364E+01 -0.49897684400E+02  0.65578392763E+02  0.41800000000E+01 0.  1.
        -11    1    1    2    0    0 -0.65950920801E+02  0.24361120117E+02 -0.21275204957E+03  0.22406789757E+03  0.00000000000E+00 0. -1.
         11    1    1    2    0    0  0.27452100711E+02  0.23211718204E+02 -0.28665386449E+02  0.45979409258E+02  0.00000000000E+00 0.  1.
</event>
<event>
 7    1  0.2740590E-009  0.7742036E+02  0.7561462E-02  0.1336536E+00
          2   -1    0    0  501    0  0.00000000000E+00  0.00000000000E+00  0.40559209019E+03  0.40559209019E+03  0.00000000000E+00 0. -1.
         -2   -1    0    0    0  501 -0.00000000000E+00 -0.00000000000E+00 -0.32666561434E+02  0.32666561434E+02  0.00000000000E+00 0.  1.
         25    2    1    2    0    0  0.37397038054E+02 -0.59262421813E+01  0.19471961012E+03  0.23451433651E+03  0.12509032202E+03 0.  0.
          5    1    3    3  502    0  0.17693371556E+02 -0.26186584463E+02 -0.54282771635E+01  0.32337767329E+02  0.41800000000E+01 0. -1.
         -5    1    3    3    0  502  0.19703666498E+02  0.20260342282E+02  0.20014788728E+03  0.20217656918E+03  0.41800000000E+01 0. -1.
        -11    1    1    2    0    0 -0.20376277800E+02  0.46295903726E+02  0.65038401728E+02  0.82392336404E+02  0.00000000000E+00 0. -1.
         11    1    1    2    0    0 -0.17020760254E+02 -0.40369661545E+02  0.11316751691E+03  0.12135197871E+03  0.00000000000E+00 0.  1.
</event>
<event>
 7    1  0.2556591E-009  0.1723133E+03  0.7561462E-02  0.1175457E+00
         -2   -1    0    0    0  501 -0.00000000000E+00  0.00000000000E+00  0.13015259960E+03  0.13015259960E+03  0.00000000000E+00 0.  1.
          2   -1    0    0  501    0  0.00000000000E+00 -0.00000000000E+00 -0.23397292721E+03  0.23397292721E+03  0.00000000000E+00 0. -1.
         25    2    1    2    0    0  0.55064073954E+02  0.12071052165E+03 -0.82775426086E+02  0.20025765166E+03  0.12509305979E+03 0.  0.
          5    1    3    3  502    0 -0.32060225272E+02 -0.12265451341E+01 -0.16867494249E+02  0.36487631051E+02  0.41800000000E+01 0. -1.
         -5    1    3    3    0  502  0.87124299226E+02  0.12193706679E+03 -0.65907931836E+02  0.16377002061E+03  0.41800000000E+01 0. -1.
        -11    1    1    2    0    0 -0.81794467990E+02 -0.92847544435E+02 -0.12916883793E+02  0.12440999714E+03  0.00000000000E+00 0.  1.
         11    1    1    2    0    0  0.26730394036E+02 -0.27862977220E+02 -0.81280177315E+01  0.39457878010E+02  0.00000000000E+00 0. -1.
</event>
<event>
 7    1  0.2556591E-009  0.1471277E+03  0.7561462E-02  0.1204047E+00
         -4   -1    0    0    0  501 -0.00000000000E+00  0.00000000000E+00  0.23021974496E+03  0.23021974496E+03  0.00000000000E+00 0.  1.
          4   -1    0    0  501    0  0.00000000000E+00 -0.00000000000E+00 -0.12413585818E+03  0.12413585818E+03  0.00000000000E+00 0. -1.
         25    2    1    2    0    0  0.53639559603E+02 -0.10973484714E+03  0.10092696209E+03  0.20187479626E+03  0.12509293608E+03 0.  0.
          5    1    3    3  502    0  0.81089589700E+02 -0.11337062954E+03  0.58910491143E+02  0.15138143732E+03  0.41800000000E+01 0. -1.
         -5    1    3    3    0  502 -0.27450030097E+02  0.36357823930E+01  0.42016470947E+02  0.50493358938E+02  0.41800000000E+01 0. -1.
        -11    1    1    2    0    0 -0.36235834823E+02  0.36135168159E+02  0.43973438860E+02  0.67471841744E+02  0.00000000000E+00 0.  1.
         11    1    1    2    0    0 -0.17403724780E+02  0.73599678983E+02 -0.38816514168E+02  0.85008965143E+02  0.00000000000E+00 0. -1.
</event>
<event>
 7    1  0.2556591E-009  0.1882938E+03  0.7561462E-02  0.1160009E+00
          1   -1    0    0  501    0  0.00000000000E+00  0.00000000000E+00  0.94152431393E+03  0.94152431393E+03  0.00000000000E+00 0. -1.
         -1   -1    0    0    0  501 -0.00000000000E+00 -0.00000000000E+00 -0.42619135147E+02  0.42619135147E+02  0.00000000000E+00 0.  1.
         25    2    1    2    0    0  0.14109542920E+03  0.72456579500E+02  0.61052454600E+03  0.64307286778E+03  0.12507843921E+03 0.  0.
          5    1    3    3  502    0  0.16366682297E+03  0.71743518644E+02  0.55114012515E+03  0.57940216720E+03  0.41800000000E+01 0. -1.
         -5    1    3    3    0  502 -0.22571393771E+02  0.71306085652E+00  0.59384420850E+02  0.63670700579E+02  0.41800000000E+01 0. -1.
        -11    1    1    2    0    0 -0.10363315544E+03 -0.86373182024E+02  0.17573999480E+03  0.22155067874E+03  0.00000000000E+00 0.  1.
         11    1    1    2    0    0 -0.37462273761E+02  0.13916602524E+02  0.11264063800E+03  0.11951990257E+03  0.00000000000E+00 0. -1.
</event>
<event>
 7    1  0.2556591E-009  0.1057531E+03  0.7561462E-02  0.1268643E+00
          2   -1    0    0  501    0  0.00000000000E+00  0.00000000000E+00  0.70860205433E+03  0.70860205433E+03  0.00000000000E+00 0. -1.
         -2   -1    0    0    0  501 -0.00000000000E+00 -0.00000000000E+00 -0.17061303495E+02  0.17061303495E+02  0.00000000000E+00 0.  1.
         25    2    1    2    0    0 -0.19166617605E+01  0.34768690692E+01  0.32743726037E+03  0.35054492378E+03  0.12510324493E+03 0.  0.
          5    1    3    3  502    0  0.56146204013E+02  0.25047970716E+02  0.18984455103E+03  0.19959514778E+03  0.41800000000E+01 0.  1.
         -5    1    3    3    0  502 -0.58062865774E+02 -0.21571101647E+02  0.13759270935E+03  0.15094977600E+03  0.41800000000E+01 0.  1.
        -11    1    1    2    0    0 -0.38207365551E+02 -0.21472925782E+02  0.13850451171E+03  0.14527349755E+03  0.00000000000E+00 0.  1.
         11    1    1    2    0    0  0.40124027311E+02  0.17996056713E+02  0.22559897875E+03  0.22984493650E+03  0.00000000000E+00 0. -1.
</event>
<event>
 7    1  0.2556591E-009  0.1307602E+03  0.7561462E-02  0.1226332E+00
          2   -1    0    0  501    0  0.00000000000E+00  0.00000000000E+00  0.51667032280E+03  0.51667032280E+03  0.00000000000E+00 0. -1.
         -2   -1    0    0    0  501 -0.00000000000E+00 -0.00000000000E+00 -0.45875686205E+02  0.45875686205E+02  0.00000000000E+00 0.  1.
         25    2    1    2    0    0  0.61087600813E+02  0.75672673853E+02  0.34577125508E+03  0.38034701768E+03  0.12509214394E+03 0.  0.
          5    1    3    3  502    0  0.78537603105E+02  0.84477388806E+01  0.11701042312E+03  0.14123891430E+03  0.41800000000E+01 0.  1.
         -5    1    3    3    0  502 -0.17450002292E+02  0.67224934972E+02  0.22876083196E+03  0.23910810338E+03  0.41800000000E+01 0.  1.
        -11    1    1    2    0    0 -0.32694698422E+02 -0.77777480796E+02  0.12828435973E+03  0.15354203585E+03  0.00000000000E+00 0. -1.
         11    1    1    2    0    0 -0.28392902391E+02  0.21048069436E+01 -0.32609782067E+01  0.28656955479E+02  0.00000000000E+00 0.  1.
</event>
<event>
 7    1  0.2556591E-009  0.9264231E+02  0.7561462E-02  0.1296576E+00
          2   -1    0    0  501    0  0.00000000000E+00  0.00000000000E+00  0.12877042486E+03  0.12877042486E+03  0.00000000000E+00 0.  1.
         -2   -1    0    0    0  501 -0.00000000000E+00 -0.00000000000E+00 -0.11926988437E+03  0.11926988437E+03  0.00000000000E+00 0. -1.
         25    2    1    2    0    0  0.54361494251E+02 -0.11159292555E+01 -0.59704905580E+01  0.13652678386E+03  0.12508996202E+03 0.  0.
          5    1    3    3  502    0  0.84937646545E+01 -0.34169590834E+02 -0.52386795062E+02  0.63257834872E+02  0.41800000000E+01 0. -1.
         -5    1    3    3    0  502  0.45867729596E+02  0.33053661579E+02  0.46416304504E+02  0.73268948989E+02  0.41800000000E+01 0. -1.
        -11    1    1    2    0    0  0.11045851653E+02  0.21882296260E+02 -0.22336935256E+02  0.33162997527E+02  0.00000000000E+00 0. -1.
         11    1    1    2    0    0 -0.65407345903E+02 -0.20766367004E+02  0.37807966305E+02  0.78350527840E+02  0.00000000000E+00 0.  1.
</event>
<event>
 7    1  0.2556591E-009  0.1702553E+03  0.7561462E-02  0.1177582E+00
         -1   -1    0    0    0  501 -0.00000000000E+00  0.00000000000E+00  0.10813059017E+03  0.10813059017E+03  0.00000000000E+00 0.  1.
          1   -1    0    0  501    0  0.00000000000E+00 -0.00000000000E+00 -0.45434620239E+03  0.45434620239E+03  0.00000000000E+00 0. -1.
         25    2    1    2    0    0 -0.13716875558E+03  0.64110685401E+02 -0.28214331402E+02  0.19841632098E+03  0.12509012929E+03 0.  0.
          5    1    3    3  502    0 -0.10646358495E+00  0.40906634038E+02 -0.41854041711E+02  0.58673650392E+02  0.41800000000E+01 0.  1.
         -5    1    3    3    0  502 -0.13706229200E+03  0.23204051364E+02  0.13639710309E+02  0.13974267059E+03  0.41800000000E+01 0.  1.
        -11    1    1    2    0    0  0.83589840266E+02 -0.10032919823E+02 -0.87990496993E+02  0.12177950746E+03  0.00000000000E+00 0.  1.
         11    1    1    2    0    0  0.53578915315E+02 -0.54077765578E+02 -0.23001078383E+03  0.24228096412E+03  0.00000000000E+00 0. -1.
</event>
<event>
 7    1  0.2556591E-009  0.1664777E+03  0.7561462E-02  0.1181572E+00
          1   -1    0    0  501    0  0.00000000000E+00  0.00000000000E+00  0.37037544180E+03  0.37037544180E+03  0.00000000000E+00 0. -1.
         -1   -1    0    0    0  501 -0.00000000000E+00 -0.00000000000E+00 -0.10028804349E+03  0.10028804349E+03  0.00000000000E+00 0.  1.
         25    2    1    2    0    0 -0.10968478063E+03 -0.11593765791E+03  0.14581145774E+03  0.24975788542E+03  0.12508288650E+03 0.  0.
          5    1    3    3  502    0 -0.33829577365E+02 -0.66481155814E+02  0.14028591810E+03  0.15893959733E+03  0.41800000000E+01 0.  1.
         -5    1    3    3    0  502 -0.75855203269E+02 -0.49456502094E+02  0.55255396433E+01  0.90818288085E+02  0.41800000000E+01 0.  1.
        -11    1    1    2    0    0  0.77203393157E+02  0.44477142758E+02  0.21632017626E+02  0.91687100125E+02  0.00000000000E+00 0.  1.
         11    1    1    2    0    0  0.32481387477E+02  0.71460515150E+02  0.10264392294E+03  0.12921849974E+03  0.00000000000E+00 0. -1.
</event>
<event>
 7    1  0.2724386E-009  0.1369783E+03  0.7561462E-02  0.1217454E+00
          2   -1    0    0  501    0  0.00000000000E+00  0.00000000000E+00  0.54353401872E+03  0.54353401872E+03  0.00000000000E+00 0. -1.
         -2   -1    0    0    0  501 -0.00000000000E+00 -0.00000000000E+00 -0.54530309860E+02  0.54530309860E+02  0.00000000000E+00 0.  1.
         25    2    1    2    0    0  0.79638170787E+02 -0.87367340960E+02  0.15212903506E+03  0.22970909647E+03  0.12509090767E+03 0.  0.
          5    1    3    3  502    0  0.19851827987E+02  0.19379523239E+02 -0.70217909242E+01  0.28921254177E+02  0.41800000000E+01 0. -1.
         -5    1    3    3    0  502  0.59786342801E+02 -0.10674686420E+03  0.15915082598E+03  0.20078784229E+03  0.41800000000E+01 0. -1.
        -11    1    1    2    0    0 -0.32939020023E+02  0.62316588940E+02  0.28718793451E+03  0.29571142356E+03  0.00000000000E+00 0. -1.
         11    1    1    2    0    0 -0.46699150765E+02  0.25050752021E+02  0.49686739294E+02  0.72643808550E+02  0.00000000000E+00 0.  1.
</event>
<event>
 7    1  0.2556591E-009  0.9013668E+02  0.7561462E-02  0.1302521E+00
         -2   -1    0    0    0  501 -0.00000000000E+00  0.00000000000E+00  0.12503898623E+03  0.12503898623E+03  0.00000000000E+00 0. -1.
          2   -1    0    0  501    0  0.00000000000E+00 -0.00000000000E+00 -0.99385982516E+02  0.99385982516E+02  0.00000000000E+00 0.  1.
         25    2    1    2    0    0  0.79169933534E+01  0.82184424383E+01  0.39631649730E+02  0.13171429606E+03  0.12509103303E+03 0.  0.
          5    1    3    3  502    0  0.13677138853E+02 -0.42548342567E+02  0.61368629019E+02  0.76032931090E+02  0.41800000000E+01 0. -1.
         -5    1    3    3    0  502 -0.57601454998E+01  0.50766785005E+02 -0.21736979289E+02  0.55681364966E+02  0.41800000000E+01 0. -1.
        -11    1    1    2    0    0  0.30066625044E+02 -0.28184278553E+02  0.11525229515E+02  0.42792363974E+02  0.00000000000E+00 0. -1.
         11    1    1    2    0    0 -0.37983618398E+02  0.19965836115E+02 -0.25503875528E+02  0.49918308718E+02  0.00000000000E+00 0.  1.
</event>
<event>
 7    1  0.2556591E-009  0.9183280E+02  0.7561462E-02  0.1298473E+00
         -2   -1    0    0    0  501 -0.00000000000E+00  0.00000000000E+00  0.13443369997E+03  0.13443369997E+03  0.00000000000E+00 0.  1.
          2   -1    0    0  501    0  0.00000000000E+00 -0.00000000000E+00 -0.14372966138E+03  0.14372966138E+03  0.00000000000E+00 0. -1.
         25    2    1    2    0    0 -0.40221835952E+02  0.15193959596E+02  0.70458465414E+02  0.14986850537E+03  0.12509005179E+03 0.  0.
          5    1    3    3  502    0  0.75298059758E+01  0.55186542442E+02  0.16272732765E+00  0.55854734131E+02  0.41800000000E+01 0. -1.
         -5    1    3    3    0  502 -0.47751641928E+02 -0.39992582846E+02  0.70295738086E+02  0.94013771239E+02  0.41800000000E+01 0. -1.
        -11    1    1    2    0    0  0.41212843095E+02  0.81570462079E+01  0.31776489428E+01  0.42132330716E+02  0.00000000000E+00 0.  1.
         11    1    1    2    0    0 -0.99100714226E+00 -0.23351005804E+02 -0.82932075770E+02  0.86162525257E+02  0.00000000000E+00 0. -1.
</event>
<event>
 7    1  0.2556591E-009  0.1317159E+03  0.7561462E-02  0.1224932E+00
          2   -1    0    0  501    0  0.00000000000E+00  0.00000000000E+00  0.25527985041E+02  0.25527985041E+02  0.00000000000E+00 0. -1.
         -2   -1    0    0    0  501 -0.00000000000E+00 -0.00000000000E+00 -0.10408621075E+04  0.10408621075E+04  0.00000000000E+00 0.  1.
         25    2    1    2    0    0  0.77543000441E+02  0.23704190468E+02 -0.80139315246E+03  0.81514010216E+03  0.12509035047E+03 0.  0.
          5    1    3    3  502    0  0.10662968818E+03 -0.33310235640E+01 -0.64229019774E+03  0.65110303073E+03  0.41800000000E+01 0. -1.
         -5    1    3    3    0  502 -0.29086687743E+02  0.27035214032E+02 -0.15910295472E+03  0.16403707142E+03  0.41800000000E+01 0. -1.
        -11    1    1    2    0    0  0.18930362232E+01  0.24002743153E+02 -0.10733543270E+03  0.11000277441E+03  0.00000000000E+00 0.  1.
         11    1    1    2    0    0 -0.79436036664E+02 -0.47706933621E+02 -0.10660553730E+03  0.14124721597E+03  0.00000000000E+00 0. -1.
</event>
<event>
 7    1  0.2556591E-009  0.1342688E+03  0.7561462E-02  0.1221256E+00
          3   -1    0    0  501    0  0.00000000000E+00  0.00000000000E+00  0.24959054371E+02  0.24959054371E+02  0.00000000000E+00 0. -1.
         -3   -1    0    0    0  501 -0.00000000000E+00 -0.00000000000E+00 -0.93426916412E+03  0.93426916412E+03  0.00000000000E+00 0.  1.
         25    2    1    2    0    0  0.89492216977E+02  0.58565171579E+02 -0.48475894985E+03  0.51193672117E+03  0.12509688565E+03 0.  0.
          5    1    3    3  502    0  0.75238134388E+02  0.82789408877E+02 -0.46245779963E+03  0.47581461929E+03  0.41800000000E+01 0.  1.
         -5    1    3    3    0  502  0.14254082589E+02 -0.24224237299E+02 -0.22301150215E+02  0.36122101878E+02  0.41800000000E+01 0.  1.
        -11    1    1    2    0    0 -0.10171875218E+03 -0.53608350559E+02 -0.41593269763E+03  0.43153281307E+03  0.00000000000E+00 0.  1.
         11    1    1    2    0    0  0.12226535202E+02 -0.49568210193E+01 -0.86184622700E+01  0.15758684258E+02  0.00000000000E+00 0. -1.
</event>
<event>
 7    1  0.2556591E-009  0.9691055E+02  0.7561462E-02  0.1286930E+00
         -2   -1    0    0    0  501 -0.00000000000E+00  0.00000000000E+00  0.55262428796E+03  0.55262428796E+03  0.00000000000E+00 0.  1.
          2   -1    0    0  501    0  0.00000000000E+00 -0.00000000000E+00 -0.41383856812E+02  0.41383856812E+02  0.00000000000E+00 0. -1.
         25    2    1    2    0    0  0.76587489263E+02  0.39087684613E+02  0.39561037161E+03  0.42373142782E+03  0.12508903308E+03 0.  0.
          5    1    3    3  502    0  0.47727447499E+02  0.55388581801E+02  0.88779878270E+02  0.11508754678E+03  0.41800000000E+01 0. -1.
         -5    1    3    3    0  502  0.28860041763E+02 -0.16300897187E+02  0.30683049334E+03  0.30864388104E+03  0.41800000000E+01 0. -1.
        -11    1    1    2    0    0 -0.43012725280E+02 -0.13888464199E+02 -0.21384822733E+01  0.45249940113E+02  0.00000000000E+00 0. -1.
         11    1    1    2    0    0 -0.33574763983E+02 -0.25199220414E+02  0.11776854181E+03  0.12502677684E+03  0.00000000000E+00 0.  1.
</event>
<event>
 7    1  0.2556591E-009  0.1566607E+03  0.7561462E-02  0.1192519E+00
          2   -1    0    0  501    0  0.00000000000E+00  0.00000000000E+00  0.91120584648E+02  0.91120584648E+02  0.00000000000E+00 0. -1.
         -2   -1    0    0    0  501 -0.00000000000E+00 -0.00000000000E+00 -0.36141180006E+03  0.36141180006E+03  0.00000000000E+00 0.  1.
         25    2    1    2    0    0  0.10664555857E+03 -0.99976615829E+02 -0.14880928827E+03  0.24323078158E+03  0.12509360478E+03 0.  0.
          5    1    3    3  502    0 -0.76497042893E+01 -0.16759734506E+01 -0.74644253469E+02  0.75170232397E+02  0.41800000000E+01 0.  1.
         -5    1    3    3    0  502  0.11429526286E+03 -0.98300642378E+02 -0.74165034803E+02  0.16806054918E+03  0.41800000000E+01 0.  1.
        -11    1    1    2    0    0 -0.65472919104E+02  0.29061664384E+02 -0.12182323943E+02  0.72661492480E+02  0.00000000000E+00 0. -1.
         11    1    1    2    0    0 -0.41172639468E+02  0.70914951445E+02 -0.10929960320E+03  0.13664011065E+03  0.00000000000E+00 0.  1.
</event>
<event>
 7    1  0.2556591E-009  0.1470846E+03  0.7561462E-02  0.1204102E+00
          2   -1    0    0  501    0  0.00000000000E+00  0.00000000000E+00  0.10291205422E+03  0.10291205422E+03  0.00000000000E+00 0. -1.
         -2   -1    0    0    0  501 -0.00000000000E+00 -0.00000000000E+00 -0.25186715458E+03  0.25186715458E+03  0.00000000000E+00 0.  1.
         25    2    1    2    0    0  0.78390444056E+02 -0.85951126678E+02 -0.10026348275E+03  0.19806903800E+03  0.12508365179E+03 0.  0.
          5    1    3    3  502    0  0.73562606516E+02 -0.10942921612E+03 -0.11009450160E+03  0.17182689574E+03  0.41800000000E+01 0.  1.
         -5    1    3    3    0  502  0.48278375395E+01  0.23478089437E+02  0.98310188514E+01  0.26242142264E+02  0.41800000000E+01 0.  1.
        -11    1    1    2    0    0 -0.29710029591E+02 -0.91430261857E+01 -0.38371477555E+02  0.49382700168E+02  0.00000000000E+00 0.  1.
         11    1    1    2    0    0 -0.48680414465E+02  0.95094152864E+02 -0.10320140053E+02  0.10732747063E+03  0.00000000000E+00 0. -1.
</event>
<event>
 7    1  0.2556591E-009  0.1326009E+03  0.7561462E-02  0.1223647E+00
          1   -1    0    0  501    0  0.00000000000E+00  0.00000000000E+00  0.23845747869E+03  0.23845747869E+03  0.00000000000E+00 0. -1.
         -1   -1    0    0    0  501 -0.00000000000E+00 -0.00000000000E+00 -0.10080202072E+03  0.10080202072E+03  0.00000000000E+00 0.  1.
         25    2    1    2    0    0  0.45063039452E+02  0.65113209275E+02 -0.10310157232E+02  0.14839786293E+03  0.12508084919E+03 0.  0.
          5    1    3    3  502    0  0.74031302163E+02  0.82521721090E+02 -0.20569273042E+02  0.11283189064E+03  0.41800000000E+01 0. -1.
         -5    1    3    3    0  502 -0.28968262711E+02 -0.17408511814E+02  0.10259115811E+02  0.35565972295E+02  0.41800000000E+01 0. -1.
        -11    1    1    2    0    0  0.26850984096E+02 -0.70040365259E+01  0.28241448329E+02  0.39593071090E+02  0.00000000000E+00 0.  1.
         11    1    1    2    0    0 -0.71914023548E+02 -0.58109172750E+02  0.11972416687E+03  0.15126856538E+03  0.00000000000E+00 0. -1.
</event>
<event>
 7    1  0.2556591E-009  0.1045799E+03  0.7561462E-02  0.1270950E+00
         -2   -1    0    0    0  501 -0.00000000000E+00  0.00000000000E+00  0.17339827861E+02  0.17339827861E+02  0.00000000000E+00 0.  1.
          2   -1    0    0  501    0  0.00000000000E+00 -0.00000000000E+00 -0.73012744116E+03  0.73012744116E+03  0.00000000000E+00 0. -1.
         25    2    1    2    0    0  0.33304554526E+01  0.65052830386E+01 -0.51245085793E+03  0.52754729164E+03  0.12508737942E+03 0.  0.
          5    1    3    3  502    0 -0.58515241743E+02 -0.13392577593E+02 -0.25140545946E+03  0.25850642564E+03  0.41800000000E+01 0.  1.
         -5    1    3    3    0  502  0.61845697195E+02  0.19897860631E+02 -0.26104539846E+03  0.26904086600E+03  0.41800000000E+01 0.  1.
        -11    1    1    2    0    0 -0.18996201135E+02  0.34833423812E+02 -0.53721178261E+02  0.66784639445E+02  0.00000000000E+00 0.  1.
         11    1    1    2    0    0  0.15665745682E+02 -0.41338706850E+02 -0.14661557711E+03  0.15313533793E+03  0.00000000000E+00 0. -1.
</event>
<event>
 7    1  0.2556591E-009  0.1399775E+03  0.7561462E-02  0.1213359E+00
         -1   -1    0    0    0  501 -0.00000000000E+00  0.00000000000E+00  0.75422262823E+02  0.75422262823E+02  0.00000000000E+00 0.  1.
          1   -1    0    0  501    0  0.00000000000E+00 -0.00000000000E+00 -0.31493352848E+03  0.31493352848E+03  0.00000000000E+00 0. -1.
         25    2    1    2    0    0  0.94273545395E+02 -0.47988744647E+02 -0.95414058777E+02  0.18958095583E+03  0.12508667087E+03 0.  0.
          5    1    3    3  502    0  0.41872490995E+02  0.30625825874E+02 -0.77460619941E+02  0.93321309218E+02  0.41800000000E+01 0.  1.
         -5    1    3    3    0  502  0.52401054401E+02 -0.78614570521E+02 -0.17953438836E+02  0.96259646616E+02  0.41800000000E+01 0.  1.
        -11    1    1    2    0    0  0.82709321615E+01  0.27566776219E+02 -0.60171503238E+02  0.66700414330E+02  0.00000000000E+00 0. -1.
         11    1    1    2    0    0 -0.10254447756E+03  0.20421968428E+02 -0.83925703641E+02  0.13407442114E+03  0.00000000000E+00 0.  1.
</event>
<event>
 7    1  0.2556591E-009  0.1502294E+03  0.7561462E-02  0.1200191E+00
         -2   -1    0    0    0  501 -0.00000000000E+00  0.00000000000E+00  0.19672114432E+02  0.19672114432E+02  0.00000000000E+00 0.  1.
          2   -1    0    0  501    0  0.00000000000E+00 -0.00000000000E+00 -0.14220081929E+04  0.14220081929E+04  0.00000000000E+00 0. -1.
         25    2    1    2    0    0 -0.97740368459E+02 -0.68744247417E+02 -0.92450278537E+03  0.94054864485E+03  0.12508957583E+03 0.  0.
          5    1    3    3  502    0 -0.11038439707E+03 -0.11951649305E+02 -0.51009845752E+03  0.52205887197E+03  0.41800000000E+01 0. -1.
         -5    1    3    3    0  502  0.12644028608E+02 -0.56792598112E+02 -0.41440432785E+03  0.41848977288E+03  0.41800000000E+01 0. -1.
        -11    1    1    2    0    0  0.29514574660E+02  0.53512442678E+02 -0.10243121772E+03  0.11927634301E+03  0.00000000000E+00 0.  1.
         11    1    1    2    0    0  0.68225793800E+02  0.15231804739E+02 -0.37540207535E+03  0.38185531945E+03  0.00000000000E+00 0. -1.
</event>
<event>
 7    1  0.2556591E-009  0.8892311E+02  0.7561462E-02  0.1305481E+00
          1   -1    0    0  501    0  0.00000000000E+00  0.00000000000E+00  0.16028826366E+03  0.16028826366E+03  0.00000000000E+00 0. -1.
         -1   -1    0    0    0  501 -0.00000000000E+00 -0.00000000000E+00 -0.13327682194E+03  0.13327682194E+03  0.00000000000E+00 0.  1.
         25    2    1    2    0    0 -0.48975536993E+02  0.56329619002E+02 -0.45312779248E+02  0.15255470898E+03  0.12509221426E+03 0.  0.
          5    1    3    3  502    0  0.10887093604E+02 -0.38570425418E+01  0.34095118491E+02  0.36240241296E+02  0.41800000000E+01 0.  1.
         -5    1    3    3    0  502 -0.59862630598E+02  0.60186661544E+02 -0.79407897739E+02  0.11631446769E+03  0.41800000000E+01 0.  1.
        -11    1    1    2    0    0  0.39020849741E+02 -0.21929839728E+02  0.90415712012E+02  0.10088877819E+03  0.00000000000E+00 0. -1.
         11    1    1    2    0    0  0.99546872525E+01 -0.34399779275E+02 -0.18091491045E+02  0.40121598431E+02  0.00000000000E+00 0.  1.
</event>
<event>
 7    1  0.2556591E-009  0.1453189E+03  0.7561462E-02  0.1206346E+00
         -4   -1    0    0    0  501 -0.00000000000E+00  0.00000000000E+00  0.14077601012E+03  0.14077601012E+03  0.00000000000E+00 0.  1.
          4   -1    0    0  501    0  0.00000000000E+00 -0.00000000000E+00 -0.17812994212E+03  0.17812994212E+03  0.00000000000E+00 0. -1.
         25    2    1    2    0    0  0.89715461939E+02  0.72457414789E+02 -0.33779185698E+02  0.17344404990E+03  0.12507143555E+03 0.  0.
          5    1    3    3  502    0 -0.18857639409E+02  0.20071643533E+02  0.26632428896E+02  0.38538812995E+02  0.41800000000E+01 0.  1.
         -5    1    3    3    0  502  0.10857310135E+03  0.52385771256E+02 -0.60411614593E+02  0.13490523690E+03  0.41800000000E+01 0.  1.
        -11    1    1    2    0    0 -0.97093923993E+02 -0.33807889375E+02 -0.16326314490E+02  0.10409972145E+03  0.00000000000E+00 0. -1.
         11    1    1    2    0    0  0.73784620538E+01 -0.38649525414E+02  0.12751568187E+02  0.41362180893E+02  0.00000000000E+00 0.  1.
</event>
<event>
 7    1  0.2556591E-009  0.3956687E+03  0.7561462E-02  0.1045290E+00
          2   -1    0    0  501    0  0.00000000000E+00  0.00000000000E+00  0.48629785940E+03  0.48629785940E+03  0.00000000000E+00 0. -1.
         -2   -1    0    0    0  501 -0.00000000000E+00 -0.00000000000E+00 -0.35103162622E+03  0.35103162622E+03  0.00000000000E+00 0.  1.
         25    2    1    2    0    0 -0.27008356924E+03 -0.27133869159E+03  0.17983810935E+03  0.44108710121E+03  0.12508503248E+03 0.  0.
          5    1    3    3  502    0 -0.13939819095E+01  0.87286982421E+01 -0.52288835898E+01  0.11088146020E+02  0.41800000000E+01 0.  1.
         -5    1    3    3    0  502 -0.26868958733E+03 -0.28006738983E+03  0.18506699294E+03  0.42999895519E+03  0.41800000000E+01 0.  1.
        -11    1    1    2    0    0  0.18208089910E+03  0.11907991756E+03 -0.32379961279E+02  0.21995895635E+03  0.00000000000E+00 0.  1.
         11    1    1    2    0    0  0.88002670139E+02  0.15225877403E+03 -0.12191914895E+02  0.17628342806E+03  0.00000000000E+00 0. -1.
</event>
<event>
 7    1  0.2556591E-009  0.7158022E+02  0.7561462E-02  0.1354800E+00
          2   -1    0    0  501    0  0.00000000000E+00  0.00000000000E+00  0.10974130868E+04  0.10974130868E+04  0.00000000000E+00 0. -1.
         -2   -1    0    0    0  501 -0.00000000000E+00 -0.00000000000E+00 -0.26087293133E+02  0.26087293133E+02  0.00000000000E+00 0.  1.
         25    2    1    2    0    0 -0.14057334787E+02  0.85213998056E+00  0.98106555679E+03  0.98910834595E+03  0.12508940206E+03 0.  0.
          5    1    3    3  502    0 -0.43520785361E+02  0.27331482213E+02  0.18511490285E+03  0.19216156831E+03  0.41800000000E+01 0.  1.
         -5    1    3    3    0  502  0.29463450574E+02 -0.26479342232E+02  0.79595065394E+03  0.79694677764E+03  0.41800000000E+01 0.  1.
        -11    1    1    2    0    0  0.17333366597E+02 -0.23322216166E+02 -0.10657708911E+02  0.30950898593E+02  0.00000000000E+00 0.  1.
         11    1    1    2    0    0 -0.32760318098E+01  0.22470076186E+02  0.10091794575E+03  0.10344113535E+03  0.00000000000E+00 0. -1.
</event>
<event>
 7    1  0.2556591E-009  0.2081076E+03  0.7561462E-02  0.1143073E+00
          1   -1    0    0  501    0  0.00000000000E+00  0.00000000000E+00  0.77865445744E+03  0.77865445744E+03  0.00000000000E+00 0. -1.
         -1   -1    0    0    0  501 -0.00000000000E+00 -0.00000000000E+00 -0.60377478682E+02  0.60377478682E+02  0.00000000000E+00 0.  1.
         25    2    1    2    0    0 -0.80585145614E+02 -0.16874503576E+03  0.34430744530E+03  0.41129676047E+03  0.12509418650E+03 0.  0.
          5    1    3    3  502    0 -0.98693916587E+02 -0.16641946352E+03  0.34126656649E+03  0.39232163949E+03  0.41800000000E+01 0. -1.
         -5    1    3    3    0  502  0.18108770973E+02 -0.23255722414E+01  0.30408788187E+01  0.18975120985E+02  0.41800000000E+01 0. -1.
        -11    1    1    2    0    0  0.83431641888E+02  0.81391274833E+02  0.17320214237E+03  0.20876867727E+03  0.00000000000E+00 0.  1.
         11    1    1    2    0    0 -0.28464962740E+01  0.87353760931E+02  0.20076739108E+03  0.21896649838E+03  0.00000000000E+00 0. -1.
</event>
<event>
 7    1  0.2556591E-009  0.1081079E+03  0.7561462E-02  0.1264114E+00
         -3   -1    0    0    0  501 -0.00000000000E+00  0.00000000000E+00  0.14674871967E+03  0.14674871967E+03  0.00000000000E+00 0.  1.
          3   -1    0    0  501    0  0.00000000000E+00 -0.00000000000E+00 -0.10631130977E+03  0.10631130977E+03  0.00000000000E+00 0. -1.
         25    2    1    2    0    0  0.35196156573E+02  0.37929692996E+02  0.56247918404E+02  0.14659015608E+03  0.12508962581E+03 0.  0.
          5    1    3    3  502    0  0.51943497222E+01  0.80333444725E+02  0.48030840451E+02  0.93834309529E+02  0.41800000000E+01 0.  1.
         -5    1    3    3    0  502  0.30001806851E+02 -0.42403751729E+02  0.82170779532E+01  0.52755846549E+02  0.41800000000E+01 0.  1.
        -11    1    1    2    0    0 -0.24692755553E+02 -0.56778986130E+02 -0.40264531364E+02  0.73856739224E+02  0.00000000000E+00 0. -1.
         11    1    1    2    0    0 -0.10503401020E+02  0.18849293134E+02  0.24454022855E+02  0.32613134140E+02  0.00000000000E+00 0.  1.
</event>
<event>
 7    1  0.2556591E-009  0.1844870E+03  0.7561462E-02  0.1163530E+00
         -2   -1    0    0    0  501 -0.00000000000E+00  0.00000000000E+00  0.95359467085E+02  0.95359467085E+02  0.00000000000E+00 0.  1.
          2   -1    0    0  501    0  0.00000000000E+00 -0.00000000000E+00 -0.51271687991E+03  0.51271687991E+03  0.00000000000E+00 0. -1.
         25    2    1    2    0    0 -0.10921922913E+02 -0.16528649852E+03 -0.83290994909E+02  0.22366006697E+03  0.12509005049E+03 0.  0.
          5    1    3    3  502    0  0.30866244639E+02 -0.31570899742E+02 -0.70011772015E+02  0.82876820579E+02  0.41800000000E+01 0. -1.
         -5    1    3    3    0  502 -0.41788167552E+02 -0.13371559878E+03 -0.13279222894E+02  0.14078324639E+03  0.41800000000E+01 0. -1.
        -11    1    1    2    0    0  0.10243314823E+02 -0.68551610914E+01 -0.55225305112E+01  0.13506186560E+02  0.00000000000E+00 0.  1.
         11    1    1    2    0    0  0.67860809042E+00  0.17214165961E+03 -0.32854388741E+03  0.37091009347E+03  0.00000000000E+00 0. -1.
</event>
<event>
 7    1  0.2556591E-009  0.1233611E+03  0.7561462E-02  0.1237653E+00
          1   -1    0    0  501    0  0.00000000000E+00  0.00000000000E+00  0.45541062396E+03  0.45541062396E+03  0.00000000000E+00 0. -1.
         -1   -1    0    0    0  501 -0.00000000000E+00 -0.00000000000E+00 -0.39370183656E+02  0.39370183656E+02  0.00000000000E+00 0.  1.
         25    2    1    2    0    0 -0.68625964147E+02 -0.38498108936E+02  0.19017983774E+03  0.24085217758E+03  0.12509905441E+03 0.  0.
          5    1    3    3  502    0 -0.30279673927E+02  0.43442592108E+02  0.44402341298E+02  0.69232635187E+02  0.41800000000E+01 0. -1.
         -5    1    3    3    0  502 -0.38346290220E+02 -0.81940701044E+02  0.14577749644E+03  0.17161954239E+03  0.41800000000E+01 0. -1.
        -11    1    1    2    0    0  0.41164470120E+02 -0.14256518144E+02  0.15703881662E+03  0.16296917450E+03  0.00000000000E+00 0. -1.
         11    1    1    2    0    0  0.27461494027E+02  0.52754627080E+02  0.68821785940E+02  0.90959455542E+02  0.00000000000E+00 0.  1.
</event>
<event>
 7    1  0.2556591E-009  0.1929563E+03  0.7561462E-02  0.1155822E+00
          2   -1    0    0  501    0  0.00000000000E+00  0.00000000000E+00  0.11138502177E+04  0.11138502177E+04  0.00000000000E+00 0.  1.
         -2   -1    0    0    0  501 -0.00000000000E+00 -0.00000000000E+00 -0.42508415617E+02  0.42508415617E+02  0.00000000000E+00 0. -1.
         25    2    1    2    0    0 -0.50265954771E+02  0.18049453887E+03  0.59564325944E+03  0.63682207477E+03  0.12508604090E+03 0.  0.
          5    1    3    3  502    0  0.13373291925E+02  0.12208989041E+02  0.48217862316E+01  0.19199645122E+02  0.41800000000E+01 0. -1.
         -5    1    3    3    0  502 -0.63639246696E+02  0.16828554983E+03  0.59082147321E+03  0.61762242965E+03  0.41800000000E+01 0. -1.
        -11    1    1    2    0    0  0.36146160546E+02 -0.12989997364E+03  0.21638919400E+03  0.25496045057E+03  0.00000000000E+00 0. -1.
         11    1    1    2    0    0  0.14119794224E+02 -0.50594565234E+02  0.25930934863E+03  0.26457610796E+03  0.00000000000E+00 0.  1.
</event>
<event>
 7    1  0.2556591E-009  0.4714652E+03  0.7561462E-02  0.1021507E+00
          1   -1    0    0  501    0  0.00000000000E+00  0.00000000000E+00  0.37773786500E+03  0.37773786500E+03  0.00000000000E+00 0. -1.
         -1   -1    0    0    0  501 -0.00000000000E+00 -0.00000000000E+00 -0.66716209129E+03  0.66716209129E+03  0.00000000000E+00 0.  1.
         25    2    1    2    0    0  0.42123238348E+03 -0.20959153092E+03 -0.28727902187E+03  0.56528053125E+03  0.12509001511E+03 0.  0.
          5    1    3    3  502    0  0.51859295293E+02 -0.33273527339E+02  0.55412139278E+01  0.62005577021E+02  0.41800000000E+01 0.  1.
         -5    1    3    3    0  502  0.36937308819E+03 -0.17631800358E+03 -0.29282023579E+03  0.50327495423E+03  0.41800000000E+01 0.  1.
        -11    1    1    2    0    0 -0.33369728029E+03  0.14936076496E+03 -0.37785744358E+02  0.36754629022E+03  0.00000000000E+00 0.  1.
         11    1    1    2    0    0 -0.87535103198E+02  0.60230765965E+02  0.35640539939E+02  0.11207313482E+03  0.00000000000E+00 0. -1.
</event>
<event>
 7    1  0.2556591E-009  0.1479546E+03  0.7561462E-02  0.1203009E+00
         -1   -1    0    0    0  501 -0.00000000000E+00  0.00000000000E+00  0.58592045523E+02  0.58592045523E+02  0.00000000000E+00 0.  1.
          1   -1    0    0  501    0  0.00000000000E+00 -0.00000000000E+00 -0.48453276004E+03  0.48453276004E+03  0.00000000000E+00 0. -1.
         25    2    1    2    0    0 -0.11142501412E+03  0.61706990903E+02 -0.20097021080E+03  0.26881222952E+03  0.12509077748E+03 0.  0.
          5    1    3    3  502    0 -0.48846025766E+02 -0.26914740397E+01 -0.16472599827E+03  0.17188747823E+03  0.41800000000E+01 0.  1.
         -5    1    3    3    0  502 -0.62578988359E+02  0.64398464943E+02 -0.36244212530E+02  0.96924751292E+02  0.41800000000E+01 0.  1.
        -11    1    1    2    0    0  0.10775537279E+03 -0.13530228804E+02 -0.15852602214E+03  0.19215823467E+03  0.00000000000E+00 0. -1.
         11    1    1    2    0    0  0.36696413335E+01 -0.48176762099E+02 -0.66444481578E+02  0.82154341371E+02  0.00000000000E+00 0.  1.
</event>
<event>
 7    1  0.2556591E-009  0.1866709E+03  0.7561462E-02  0.1161499E+00
          1   -1    0    0  501    0  0.00000000000E+00  0.00000000000E+00  0.19283462486E+03  0.19283462486E+03  0.00000000000E+00 0. -1.
         -1   -1    0    0    0  501 -0.00000000000E+00 -0.00000000000E+00 -0.22823398608E+03  0.22823398608E+03  0.00000000000E+00 0.  1.
         25    2    1    2    0    0  0.16050542125E+03  0.35121150699E+02  0.53431118473E+02  0.21330297802E+03  0.12509112892E+03 0.  0.
          5    1    3    3  502    0  0.18014478978E+03  0.37361395427E+02  0.38069241526E+02  0.18792221451E+03  0.41800000000E+01 0.  1.
         -5    1    3    3    0  502 -0.19639368539E+02 -0.22402447279E+01  0.15361876947E+02  0.25380763511E+02  0.41800000000E+01 0.  1.
        -11    1    1    2    0    0 -0.88709355360E+02 -0.39663258714E+02 -0.50029721117E+01  0.97301354307E+02  0.00000000000E+00 0. -1.
         11    1    1    2    0    0 -0.71796065886E+02  0.45421080147E+01 -0.83827507578E+02  0.11046427861E+03  0.00000000000E+00 0.  1.
</event>
<event>
 7    1  0.2556591E-009  0.9846442E+02  0.7561462E-02  0.1283559E+00
          1   -1    0    0  501    0  0.00000000000E+00  0.00000000000E+00  0.61053354782E+02  0.61053354782E+02  0.00000000000E+00 0. -1.
         -1   -1    0    0    0  501 -0.00000000000E+00 -0.00000000000E+00 -0.21223547347E+03  0.21223547347E+03  0.00000000000E+00 0.  1.
         25    2    1    2    0    0  0.75233733307E+01  0.32520787428E+02 -0.90610644448E+02  0.15802410136E+03  0.12508846854E+03 0.  0.
          5    1    3    3  502    0  0.46007479599E+02  0.43058084858E+02 -0.98626133673E+02  0.11711222607E+03  0.41800000000E+01 0.  1.
         -5    1    3    3    0  502 -0.38484106269E+02 -0.10537297429E+02  0.80154892248E+01  0.40911875292E+02  0.41800000000E+01 0.  1.
        -11    1    1    2    0    0  0.32749593795E+02 -0.41028265264E+02 -0.16657513618E+02  0.55075649830E+02  0.00000000000E+00 0. -1.
         11    1    1    2    0    0 -0.40272967125E+02  0.85074778360E+01 -0.43913960618E+02  0.60189077060E+02  0.00000000000E+00 0.  1.
</event>
<event>
 7    1  0.2556591E-009  0.9918349E+02  0.7561462E-02  0.1282022E+00
          2   -1    0    0  501    0  0.00000000000E+00  0.00000000000E+00  0.36787980541E+03  0.36787980541E+03  0.00000000000E+00 0. -1.
         -2   -1    0    0    0  501 -0.00000000000E+00 -0.00000000000E+00 -0.39660285307E+02  0.39660285307E+02  0.00000000000E+00 0.  1.
         25    2    1    2    0    0 -0.56646343350E+02 -0.31886442659E+01  0.19558125404E+03  0.23899375916E+03  0.12508802628E+03 0.  0.
          5    1    3    3  502    0 -0.60250873956E+02 -0.53787180691E+02  0.85363153263E+02  0.11759068396E+03  0.41800000000E+01 0.  1.
         -5    1    3    3    0  502  0.36045306058E+01  0.50598536425E+02  0.11021810078E+03  0.12140307520E+03  0.41800000000E+01 0.  1.
        -11    1    1    2    0    0  0.30494844674E+02 -0.15733555691E+02  0.24341549408E+01  0.34400660410E+02  0.00000000000E+00 0.  1.
         11    1    1    2    0    0  0.26151498677E+02  0.18922199957E+02  0.13020411112E+03  0.13414567114E+03  0.00000000000E+00 0. -1.
</event>
<event>
 7    1  0.2556591E-009  0.1364900E+03  0.7561462E-02  0.1218131E+00
         -4   -1    0    0    0  501 -0.00000000000E+00  0.00000000000E+00  0.89140987157E+02  0.89140987157E+02  0.00000000000E+00 0.  1.
          4   -1    0    0  501    0  0.00000000000E+00 -0.00000000000E+00 -0.31836245445E+03  0.31836245445E+03  0.00000000000E+00 0. -1.
         25    2    1    2    0    0 -0.83644900813E+02  0.87770406440E+02 -0.68274617588E+02  0.18710381921E+03  0.12508517930E+03 0.  0.
          5    1    3    3  502    0 -0.95071011945E+02  0.46266519410E+02 -0.89809474301E+02  0.13878869624E+03  0.41800000000E+01 0.  1.
         -5    1    3    3    0  502  0.11426111132E+02  0.41503887030E+02  0.21534856713E+02  0.48315122973E+02  0.41800000000E+01 0.  1.
        -11    1    1    2    0    0  0.79009342618E+02 -0.70023796874E+02 -0.16986858409E+03  0.20000286051E+03  0.00000000000E+00 0. -1.
         11    1    1    2    0    0  0.46355581944E+01 -0.17746609566E+02  0.89217343875E+01  0.20396761884E+02  0.00000000000E+00 0.  1.
</event>
<event>
 7    1  0.2556591E-009  0.1446531E+03  0.7561462E-02  0.1207201E+00
         -2   -1    0    0    0  501 -0.00000000000E+00  0.00000000000E+00  0.40922147763E+02  0.40922147763E+02  0.00000000000E+00 0.  1.
          2   -1    0    0  501    0  0.00000000000E+00 -0.00000000000E+00 -0.71816532754E+03  0.71816532754E+03  0.00000000000E+00 0. -1.
         25    2    1    2    0    0  0.64859819147E+02  0.83650907434E+02 -0.53604765093E+03  0.56053374384E+03  0.12508686366E+03 0.  0.
          5    1    3    3  502    0  0.11114808300E+02 -0.27136626807E+02 -0.20825604741E+03  0.21035206004E+03  0.41800000000E+01 0.  1.
         -5    1    3    3    0  502  0.53745010848E+02  0.11078753424E+03 -0.32779160352E+03  0.35018168380E+03  0.41800000000E+01 0.  1.
        -11    1    1    2    0    0 -0.50490825427E+02  0.11152767704E+01 -0.73242092513E+02  0.88966125072E+02  0.00000000000E+00 0. -1.
         11    1    1    2    0    0 -0.14368993721E+02 -0.84766184204E+02 -0.67953436333E+02  0.10958760639E+03  0.00000000000E+00 0.  1.
</event>
<event>
 7    1  0.2556591E-009  0.9556084E+02  0.7561462E-02  0.1289918E+00
         -1   -1    0    0    0  501 -0.00000000000E+00  0.00000000000E+00  0.63045282637E+02  0.63045282637E+02  0.00000000000E+00 0.  1.
          1   -1    0    0  501    0  0.00000000000E+00 -0.00000000000E+00 -0.24808249718E+03  0.24808249718E+03  0.00000000000E+00 0. -1.
         25    2    1    2    0    0 -0.27881376124E+02  0.38729864865E+02 -0.15048650670E+03  0.20142489999E+03  0.12509367717E+03 0.  0.
          5    1    3    3  502    0 -0.66081515424E+02 -0.10785982434E+02 -0.52857441176E+02  0.85407760686E+02  0.41800000000E+01 0.  1.
         -5    1    3    3    0  502  0.38200139301E+02  0.49515847299E+02 -0.97629065528E+02  0.11601713930E+03  0.41800000000E+01 0.  1.
        -11    1    1    2    0    0  0.12877573685E+02  0.59790726496E+01 -0.56088876841E+02  0.57857958131E+02  0.00000000000E+00 0. -1.
         11    1    1    2    0    0  0.15003802439E+02 -0.44708937515E+02  0.21538169005E+02  0.51844921694E+02  0.00000000000E+00 0.  1.
</event>
<event>
 7    1  0.2556591E-009  0.1098676E+03  0.7561462E-02  0.1260815E+00
         -1   -1    0    0    0  501 -0.00000000000E+00  0.00000000000E+00  0.59360097693E+02  0.59360097693E+02  0.00000000000E+00 0.  1.
          1   -1    0    0  501    0  0.00000000000E+00 -0.00000000000E+00 -0.35406251168E+03  0.35406251168E+03  0.00000000000E+00 0. -1.
         25    2    1    2    0    0  0.37404098997E+02 -0.72937939790E+02 -0.22683975670E+03  0.27170575934E+03  0.12509490301E+03 0.  0.
          5    1    3    3  502    0  0.21438663800E+02 -0.77271715012E+02 -0.23809075382E+03  0.25126721573E+03  0.41800000000E+01 0.  1.
         -5    1    3    3    0  502  0.15965435197E+02  0.43337752222E+01  0.11250997123E+02  0.20438543612E+02  0.41800000000E+01 0.  1.
        -11    1    1    2    0    0 -0.14953206552E+02 -0.21005183613E+02 -0.25443112018E+02  0.36223860561E+02  0.00000000000E+00 0. -1.
         11    1    1    2    0    0 -0.22450892445E+02  0.93943123403E+02 -0.42419545274E+02  0.10549298947E+03  0.00000000000E+00 0.  1.
</event>
<event>
 7    1  0.2556591E-009  0.1985508E+03  0.7561462E-02  0.1150967E+00
          1   -1    0    0  501    0  0.00000000000E+00  0.00000000000E+00  0.34602517080E+03  0.34602517080E+03  0.00000000000E+00 0. -1.
         -1   -1    0    0    0  501 -0.00000000000E+00 -0.00000000000E+00 -0.13162199045E+03  0.13162199045E+03  0.00000000000E+00 0.  1.
         25    2    1    2    0    0 -0.17982590860E+03 -0.10332947523E+02  0.14432523752E+03  0.26253337717E+03  0.12509945139E+03 0.  0.
          5    1    3    3  502    0  0.12677000862E+02 -0.84285269531E+01  0.41153880789E+02  0.44077893795E+02  0.41800000000E+01 0.  1.
         -5    1    3    3    0  502 -0.19250290946E+03 -0.19044205696E+01  0.10317135673E+03  0.21845548338E+03  0.41800000000E+01 0.  1.
        -11    1    1    2    0    0  0.75162762143E+02  0.32307643054E+02 -0.87179768371E+01  0.82275316668E+02  0.00000000000E+00 0.  1.
         11    1    1    2    0    0  0.10466314645E+03 -0.21974695531E+02  0.78795919657E+02  0.13283846741E+03  0.00000000000E+00 0. -1.
</event>
<event>
 7    1  0.2556591E-009  0.1151041E+03  0.7561462E-02  0.1251399E+00
         -1   -1    0    0    0  501 -0.00000000000E+00  0.00000000000E+00  0.25471770188E+02  0.25471770188E+02  0.00000000000E+00 0.  1.
          1   -1    0    0  501    0  0.00000000000E+00 -0.00000000000E+00 -0.69110999878E+03  0.69110999878E+03  0.00000000000E+00 0. -1.
         25    2    1    2    0    0 -0.50636713154E+02 -0.21023323214E+02 -0.51457488518E+03  0.53239289513E+03  0.12509526567E+03 0.  0.
          5    1    3    3  502    0 -0.37965181249E+00  0.43146530943E+02 -0.29446881193E+03  0.29764260593E+03  0.41800000000E+01 0. -1.
         -5    1    3    3    0  502 -0.50257061341E+02 -0.64169854157E+02 -0.22010607325E+03  0.23475028920E+03  0.41800000000E+01 0. -1.
        -11    1    1    2    0    0  0.63672856685E+01 -0.34017455927E+02 -0.45297183255E+02  0.57004951060E+02  0.00000000000E+00 0.  1.
         11    1    1    2    0    0  0.44269427485E+02  0.55040779141E+02 -0.10576616016E+03  0.12718392278E+03  0.00000000000E+00 0. -1.
</event>
<event>
 7    1  0.2556591E-009  0.1129506E+03  0.7561462E-02  0.1255201E+00
         -1   -1    0    0    0  501 -0.00000000000E+00  0.00000000000E+00  0.45937191289E+02  0.45937191289E+02  0.00000000000E+00 0. -1.
          1   -1    0    0  501    0  0.00000000000E+00 -0.00000000000E+00 -0.32687045723E+03  0.32687045723E+03  0.00000000000E+00 0.  1.
         25    2    1    2    0    0  0.49158204865E+02  0.65297620456E+01 -0.19826952789E+03  0.23961976266E+03  0.12509059944E+03 0.  0.
          5    1    3    3  502    0  0.49600077396E+02 -0.46694390678E+02 -0.15994821622E+03  0.17390065575E+03  0.41800000000E+01 0.  1.
         -5    1    3    3    0  502 -0.44187253020E+00  0.53224152723E+02 -0.38321311669E+02  0.65719106905E+02  0.41800000000E+01 0.  1.
        -11    1    1    2    0    0 -0.25292472621E+02 -0.49228573790E+02 -0.40095519732E+02  0.68343341674E+02  0.00000000000E+00 0.  1.
         11    1    1    2    0    0 -0.23865732245E+02  0.42698811744E+02 -0.42568218314E+02  0.64844544184E+02  0.00000000000E+00 0. -1.
</event>
<event>
 7    1  0.2556591E-009  0.1393167E+03  0.7561462E-02  0.1214251E+00
         -2   -1    0    0    0  501 -0.00000000000E+00  0.00000000000E+00  0.72570166302E+02  0.72570166302E+02  0.00000000000E+00 0.  1.
          2   -1    0    0  501    0  0.00000000000E+00 -0.00000000000E+00 -0.61760406352E+03  0.61760406352E+03  0.00000000000E+00 0. -1.
         25    2    1    2    0    0  0.10438288805E+03  0.35470263695E+02 -0.49044370869E+02  0.17380617663E+03  0.12509720140E+03 0.  0.
          5    1    3    3  502    0  0.57837832361E+01  0.36403202356E+02 -0.64013389775E+02  0.73985348284E+02  0.41800000000E+01 0.  1.
         -5    1    3    3    0  502  0.98599104816E+02 -0.93293866081E+00  0.14969018906E+02  0.99820828348E+02  0.41800000000E+01 0.  1.
        -11    1    1    2    0    0 -0.95631773119E+02  0.10356037049E+02 -0.30771331401E+03  0.32239752969E+03  0.00000000000E+00 0. -1.
         11    1    1    2    0    0 -0.87511149327E+01 -0.45826300745E+02 -0.18827621235E+03  0.19397052350E+03  0.00000000000E+00 0.  1.
</event>
<event>
 7    1  0.2556591E-009  0.2964109E+03  0.7561462E-02  0.1087049E+00
         -1   -1    0    0    0  501 -0.00000000000E+00  0.00000000000E+00  0.11597548840E+03  0.11597548840E+03  0.00000000000E+00 0.  1.
          1   -1    0    0  501    0  0.00000000000E+00 -0.00000000000E+00 -0.77418675363E+03  0.77418675363E+03  0.00000000000E+00 0. -1.
         25    2    1    2    0    0 -0.24192060285E+02 -0.27611635129E+03 -0.28270121716E+03  0.41520437589E+03  0.12509676393E+03 0.  0.
          5    1    3    3  502    0  0.37801451162E+02 -0.20151750930E+03 -0.16936394640E+03  0.26596968813E+03  0.41800000000E+01 0.  1.
         -5    1    3    3    0  502 -0.61993511447E+02 -0.74598841994E+02 -0.11333727076E+03  0.14923468776E+03  0.41800000000E+01 0.  1.
        -11    1    1    2    0    0 -0.32177866459E+02  0.13315134664E+03 -0.16910959448E+03  0.21762984893E+03  0.00000000000E+00 0.  1.
         11    1    1    2    0    0  0.56369926744E+02  0.14296500465E+03 -0.20640045359E+03  0.25732801721E+03  0.00000000000E+00 0. -1.
</event>
<event>
 7    1  0.2556591E-009  0.1008758E+03  0.7561462E-02  0.1278465E+00
         -1   -1    0    0    0  501 -0.00000000000E+00  0.00000000000E+00  0.43197860109E+03  0.43197860109E+03  0.00000000000E+00 0.  1.
          1   -1    0    0  501    0  0.00000000000E+00 -0.00000000000E+00 -0.36054107866E+02  0.36054107866E+02  0.00000000000E+00 0. -1.
         25    2    1    2    0    0 -0.47883921591E+02 -0.23472825586E+02  0.17381657048E+03  0.22068703201E+03  0.12508685956E+03 0.  0.
          5    1    3    3  502    0 -0.26657121768E+02 -0.74995627304E+02  0.93790250694E+02  0.12308139494E+03  0.41800000000E+01 0. -1.
         -5    1    3    3    0  502 -0.21226799822E+02  0.51522801719E+02  0.80026319787E+02  0.97605637062E+02  0.41800000000E+01 0. -1.
        -11    1    1    2    0    0  0.51160490039E+02  0.97766971251E+01  0.22664278365E+03  0.23255092115E+03  0.00000000000E+00 0.  1.
         11    1    1    2    0    0 -0.32765684482E+01  0.13696128460E+02 -0.45348609104E+01  0.14794755796E+02  0.00000000000E+00 0. -1.
</event>
<event>
 7    1  0.2556591E-009  0.9073503E+02  0.7561462E-02  0.1301081E+00
          1   -1    0    0  501    0  0.00000000000E+00  0.00000000000E+00  0.22187648218E+03  0.22187648218E+03  0.00000000000E+00 0. -1.
         -1   -1    0    0    0  501 -0.00000000000E+00 -0.00000000000E+00 -0.10183146723E+03  0.10183146723E+03  0.00000000000E+00 0.  1.
         25    2    1    2    0    0 -0.13846991098E+02 -0.63278008405E+02 -0.21420863534E+02  0.14248759690E+03  0.12509203158E+03 0.  0.
          5    1    3    3  502    0 -0.20589532725E+02 -0.87867853671E+02  0.21059407030E+02  0.92766694406E+02  0.41800000000E+01 0. -1.
         -5    1    3    3    0  502  0.67425416275E+01  0.24589845266E+02 -0.42480270564E+02  0.49720902495E+02  0.41800000000E+01 0. -1.
        -11    1    1    2    0    0  0.30998603780E-01  0.16787782574E+02 -0.11763247281E+02  0.20498892440E+02  0.00000000000E+00 0.  1.
         11    1    1    2    0    0  0.13815992494E+02  0.46490225831E+02  0.15322912576E+03  0.16072146007E+03  0.00000000000E+00 0. -1.
</event>
<event>
 7    1  0.2556591E-009  0.2028675E+03  0.7561462E-02  0.1147342E+00
         -2   -1    0    0    0  501 -0.00000000000E+00  0.00000000000E+00  0.44682090060E+02  0.44682090060E+02  0.00000000000E+00 0.  1.
          2   -1    0    0  501    0  0.00000000000E+00 -0.00000000000E+00 -0.10505288040E+04  0.10505288040E+04  0.00000000000E+00 0. -1.
         25    2    1    2    0    0  0.12637686336E+03 -0.12555960173E+03 -0.38301116911E+03  0.44054580231E+03  0.12508686217E+03 0.  0.
          5    1    3    3  502    0  0.18892961017E+02 -0.93277053057E+02 -0.24335063369E+03  0.26133227111E+03  0.41800000000E+01 0. -1.
         -5    1    3    3    0  502  0.10748390235E+03 -0.32282548669E+02 -0.13966053542E+03  0.17921353120E+03  0.41800000000E+01 0. -1.
        -11    1    1    2    0    0 -0.40851391708E+02 -0.59609292252E+01 -0.86348126275E+02  0.95709810327E+02  0.00000000000E+00 0.  1.
         11    1    1    2    0    0 -0.85525471657E+02  0.13152053095E+03 -0.53648741851E+03  0.55895528138E+03  0.00000000000E+00 0. -1.
</event>
<event>
 7    1  0.2556591E-009  0.7150985E+02  0.7561462E-02  0.1355033E+00
          1   -1    0    0  501    0  0.00000000000E+00  0.00000000000E+00  0.47509807087E+03  0.47509807087E+03  0.00000000000E+00 0. -1.
         -1   -1    0    0    0  501 -0.00000000000E+00 -0.00000000000E+00 -0.25753603973E+02  0.25753603973E+02  0.00000000000E+00 0.  1.
         25    2    1    2    0    0  0.76426820456E+01  0.16224066593E+01  0.29718169452E+03  0.32253207566E+03  0.12509571326E+03 0.  0.
          5    1    3    3  502    0 -0.10254680615E+02  0.31706362958E+02  0.12749063166E+02  0.35923014046E+02  0.41800000000E+01 0.  1.
         -5    1    3    3    0  502  0.17897362660E+02 -0.30083956298E+02  0.28443263136E+03  0.28660906161E+03  0.41800000000E+01 0.  1.
        -11    1    1    2    0    0  0.13642403162E+02  0.31773801776E+02  0.19130802163E+02  0.39518062133E+02  0.00000000000E+00 0.  1.
         11    1    1    2    0    0 -0.21285085208E+02 -0.33396208435E+02  0.13303197021E+03  0.13880153705E+03  0.00000000000E+00 0. -1.
</event>
<event>
 7    1  0.2556591E-009  0.1117118E+03  0.7561462E-02  0.1257432E+00
         -2   -1    0    0    0  501 -0.00000000000E+00  0.00000000000E+00  0.26665148984E+02  0.26665148984E+02  0.00000000000E+00 0. -1.
          2   -1    0    0  501    0  0.00000000000E+00 -0.00000000000E+00 -0.57559093322E+03  0.57559093322E+03  0.00000000000E+00 0.  1.
         25    2    1    2    0    0 -0.36259709581E+02  0.33365932889E+02 -0.22104075716E+03  0.25871930797E+03  0.12509441224E+03 0.  0.
          5    1    3    3  502    0  0.21855294246E+02  0.64608411241E+02 -0.11137895093E+03  0.13066998049E+03  0.41800000000E+01 0.  1.
         -5    1    3    3    0  502 -0.58115003826E+02 -0.31242478352E+02 -0.10966180623E+03  0.12804932748E+03  0.41800000000E+01 0.  1.
        -11    1    1    2    0    0 -0.15477839178E+02  0.12455085385E+02 -0.20770272345E+02  0.28741900961E+02  0.00000000000E+00 0. -1.
         11    1    1    2    0    0  0.51737548759E+02 -0.45821018274E+02 -0.30711475473E+03  0.31479487327E+03  0.00000000000E+00 0.  1.
</event>
<event>
 7    1  0.2556591E-009  0.5594042E+02  0.7561462E-02  0.1415703E+00
          4   -1    0    0  501    0  0.00000000000E+00  0.00000000000E+00  0.25901497427E+02  0.25901497427E+02  0.00000000000E+00 0. -1.
         -4   -1    0    0    0  501 -0.00000000000E+00 -0.00000000000E+00 -0.47853913428E+03  0.47853913428E+03  0.00000000000E+00 0.  1.
         25    2    1    2    0    0  0.15605976035E+02 -0.11028333357E+02 -0.22460232217E+03  0.25779785321E+03  0.12509340260E+03 0.  0.
          5    1    3    3  502    0  0.12157549900E+02  0.61528116053E+01 -0.23603243759E+03  0.23646235875E+03  0.41800000000E+01 0. -1.
         -5    1    3    3    0  502  0.34484261349E+01 -0.17181144963E+02  0.11430115429E+02  0.21335494458E+02  0.41800000000E+01 0. -1.
        -11    1    1    2    0    0  0.31617259120E+02  0.39923152389E+01 -0.16229484032E+03  0.16539408953E+03  0.00000000000E+00 0.  1.
         11    1    1    2    0    0 -0.47223235155E+02  0.70360181185E+01 -0.65740474366E+02  0.81248688970E+02  0.00000000000E+00 0. -1.
</event>
<event>
 7    1  0.2556591E-009  0.1321355E+03  0.7561462E-02  0.1224321E+00
         -1   -1    0    0    0  501 -0.00000000000E+00  0.00000000000E+00  0.10539909647E+04  0.10539909647E+04  0.00000000000E+00 0.  1.
          1   -1    0    0  501    0  0.00000000000E+00 -0.00000000000E+00 -0.18819225831E+02  0.18819225831E+02  0.00000000000E+00 0. -1.
         25    2    1    2    0    0 -0.47433706905E+02 -0.69111199031E+02  0.46068952710E+03  0.48467453744E+03  0.12509297536E+03 0.  0.
          5    1    3    3  502    0 -0.75980847246E+02 -0.78747888847E+02  0.41896094295E+03  0.43303586834E+03  0.41800000000E+01 0.  1.
         -5    1    3    3    0  502  0.28547140341E+02  0.96366898160E+01  0.41728584147E+02  0.51638669107E+02  0.41800000000E+01 0.  1.
        -11    1    1    2    0    0  0.27939812484E+02 -0.19204890167E+02  0.11769301858E+03  0.12247900861E+03  0.00000000000E+00 0. -1.
         11    1    1    2    0    0  0.19493894422E+02  0.88316089198E+02  0.45678919319E+03  0.46565664448E+03  0.00000000000E+00 0.  1.
</event>
<event>
 7    1  0.2556591E-009  0.1540890E+03  0.7561462E-02  0.1195537E+00
         -1   -1    0    0    0  501 -0.00000000000E+00  0.00000000000E+00  0.11681494669E+04  0.11681494669E+04  0.00000000000E+00 0.  1.
          1   -1    0    0  501    0  0.00000000000E+00 -0.00000000000E+00 -0.21211414200E+02  0.21211414200E+02  0.00000000000E+00 0. -1.
         25    2    1    2    0    0  0.83617192322E+01 -0.10485744311E+03  0.51459229537E+03  0.53992432350E+03  0.12509213778E+03 0.  0.
          5    1    3    3  502    0 -0.18916641346E+02  0.24465115359E+02  0.97816791202E+02  0.10267413613E+03  0.41800000000E+01 0. -1.
         -5    1    3    3    0  502  0.27278360578E+02 -0.12932255847E+03  0.41677550416E+03  0.43725018737E+03  0.41800000000E+01 0. -1.
        -11    1    1    2    0    0  0.42959918288E+02  0.24690478400E+02  0.28542858895E+03  0.28969752104E+03  0.00000000000E+00 0. -1.
         11    1    1    2    0    0 -0.51321637520E+02  0.80166964709E+02  0.34691716835E+03  0.35973903653E+03  0.00000000000E+00 0.  1.
</event>
<event>
 7    1  0.2556591E-009  0.1763927E+03  0.7561462E-02  0.1171341E+00
          2   -1    0    0  501    0  0.00000000000E+00  0.00000000000E+00  0.75587631713E+02  0.75587631713E+02  0.00000000000E+00 0. -1.
         -2   -1    0    0    0  501 -0.00000000000E+00 -0.00000000000E+00 -0.46864065309E+03  0.46864065309E+03  0.00000000000E+00 0.  1.
         25    2    1    2    0    0  0.61621618335E+01  0.15065065704E+03 -0.16989694308E+03  0.25932542980E+03  0.12510441467E+03 0.  0.
          5    1    3    3  502    0 -0.40971478399E+02  0.52439892302E+02 -0.12450762497E+03  0.14123818684E+03  0.41800000000E+01 0.  1.
         -5    1    3    3    0  502  0.47133640233E+02  0.98210764738E+02 -0.45389318110E+02  0.11808724296E+03  0.41800000000E+01 0.  1.
        -11    1    1    2    0    0  0.28020742030E+02 -0.62631953657E+01 -0.34343250758E+02  0.44764366105E+02  0.00000000000E+00 0.  1.
         11    1    1    2    0    0 -0.34182903864E+02 -0.14438746167E+03 -0.18881282754E+03  0.24013848889E+03  0.00000000000E+00 0. -1.
</event>
<event>
 7    1  0.2556591E-009  0.1109854E+03  0.7561462E-02  0.1258756E+00
         -2   -1    0    0    0  501 -0.00000000000E+00  0.00000000000E+00  0.11856847866E+03  0.11856847866E+03  0.00000000000E+00 0.  1.
          2   -1    0    0  501    0  0.00000000000E+00 -0.00000000000E+00 -0.15094649585E+03  0.15094649585E+03  0.00000000000E+00 0. -1.
         25    2    1    2    0    0  0.65307183398E+02 -0.38507320385E+02  0.42391844340E+01  0.14633163004E+03  0.12508850202E+03 0.  0.
          5    1    3    3  502    0  0.87952196687E+01  0.20504148899E+02 -0.45314056893E+02  0.50681477516E+02  0.41800000000E+01 0. -1.
         -5    1    3    3    0  502  0.56511963730E+02 -0.59011469284E+02  0.49553241327E+02  0.95650152523E+02  0.41800000000E+01 0. -1.
        -11    1    1    2    0    0 -0.70254056862E+02  0.61848016763E+02 -0.26590444259E+02  0.97302936282E+02  0.00000000000E+00 0.  1.
         11    1    1    2    0    0  0.49468734636E+01 -0.23340696378E+02 -0.10026757368E+02  0.25880408185E+02  0.00000000000E+00 0. -1.
</event>
<event>
 7    1  0.2556591E-009  0.1089567E+03  0.7561462E-02  0.1262514E+00
         -1   -1    0    0    0  501 -0.00000000000E+00  0.00000000000E+00  0.10814172007E+03  0.10814172007E+03  0.00000000000E+00 0.  1.
          1   -1    0    0  501    0  0.00000000000E+00 -0.00000000000E+00 -0.11671970885E+03  0.11671970885E+03  0.00000000000E+00 0. -1.
         25    2    1    2    0    0  0.18156511515E+02  0.75207061691E+00 -0.20840259242E+02  0.12811209444E+03  0.12509263693E+03 0.  0.
          5    1    3    3  502    0  0.32167755115E+02  0.56578080127E+02 -0.25920960859E+02  0.70179856312E+02  0.41800000000E+01 0. -1.
         -5    1    3    3    0  502 -0.14011243600E+02 -0.55826009510E+02  0.50807016170E+01  0.57932238123E+02  0.41800000000E+01 0. -1.
        -11    1    1    2    0    0 -0.17912102682E+02  0.45414720785E+02  0.13199462337E+02  0.50572384683E+02  0.00000000000E+00 0.  1.
         11    1    1    2    0    0 -0.24440883302E+00 -0.46166791402E+02 -0.93719188077E+00  0.46176949798E+02  0.00000000000E+00 0. -1.
</event>
<event>
 7    1  0.2556591E-009  0.1188476E+03  0.7561462E-02  0.1245010E+00
          2   -1    0    0  501    0  0.00000000000E+00  0.00000000000E+00  0.49284622231E+03  0.49284622231E+03  0.00000000000E+00 0. -1.
         -2   -1    0    0    0  501 -0.00000000000E+00 -0.00000000000E+00 -0.34365613629E+02  0.34365613629E+02  0.00000000000E+00 0.  1.
         25    2    1    2    0    0 -0.72079057477E+00  0.66548208470E+02  0.31314873287E+03  0.34371458397E+03  0.12509357596E+03 0.  0.
          5    1    3    3  502    0  0.32616497365E+02 -0.25496906313E+02  0.68158884766E+02  0.79856334154E+02  0.41800000000E+01 0.  1.
         -5    1    3    3    0  502 -0.33337287940E+02  0.92045114783E+02  0.24498984810E+03  0.26385824982E+03  0.41800000000E+01 0.  1.
        -11    1    1    2    0    0 -0.23481159151E+02 -0.69833665657E+02  0.14043418657E+03  0.15858709422E+03  0.00000000000E+00 0. -1.
         11    1    1    2    0    0  0.24201949726E+02  0.32854571874E+01  0.48976892436E+01  0.24910157755E+02  0.00000000000E+00 0.  1.
</event>
<event>
 7    1  0.2556591E-009  0.1460571E+03  0.7561462E-02  0.1205403E+00
          2   -1    0    0  501    0  0.00000000000E+00  0.00000000000E+00  0.59906475835E+03  0.59906475835E+03  0.00000000000E+00 0. -1.
         -2   -1    0    0    0  501 -0.00000000000E+00 -0.00000000000E+00 -0.38113254647E+02  0.38113254647E+02  0.00000000000E+00 0.  1.
         25    2    1    2    0    0 -0.89026238118E+02 -0.45068299155E+02  0.23943109253E+03  0.28797763411E+03  0.12508815698E+03 0.  0.
          5    1    3    3  502    0 -0.11281595467E+03 -0.76406244815E+01  0.14825226112E+03  0.18649939436E+03  0.41800000000E+01 0.  1.
         -5    1    3    3    0  502  0.23789716553E+02 -0.37427674673E+02  0.91178831410E+02  0.10147823975E+03  0.41800000000E+01 0.  1.
        -11    1    1    2    0    0  0.10723563808E+03  0.44769285815E+02  0.29467604524E+03  0.31676133392E+03  0.00000000000E+00 0. -1.
         11    1    1    2    0    0 -0.18209399964E+02  0.29901333982E+00  0.26844365935E+02  0.32439044968E+02  0.00000000000E+00 0.  1.
</event>
<event>
 7    1  0.2556591E-009  0.1107987E+03  0.7561462E-02  0.1259098E+00
          1   -1    0    0  501    0  0.00000000000E+00  0.00000000000E+00  0.26430929363E+03  0.26430929363E+03  0.00000000000E+00 0. -1.
         -1   -1    0    0    0  501 -0.00000000000E+00 -0.00000000000E+00 -0.57393627811E+02  0.57393627811E+02  0.00000000000E+00 0.  1.
         25    2    1    2    0    0  0.46781270343E+02  0.13244494953E+02  0.78050060830E+02  0.15525115566E+03  0.12508879021E+03 0.  0.
          5    1    3    3  502    0  0.82537451464E+02  0.13427497016E+01  0.82853949192E+02  0.11703197498E+03  0.41800000000E+01 0.  1.
         -5    1    3    3    0  502 -0.35756181121E+02  0.11901745252E+02 -0.48038883622E+01  0.38219180680E+02  0.41800000000E+01 0.  1.
        -11    1    1    2    0    0 -0.55561767082E+02  0.25619344975E+02  0.10006918420E+03  0.11729152751E+03  0.00000000000E+00 0.  1.
         11    1    1    2    0    0  0.87804967392E+01 -0.38863839929E+02  0.28796420785E+02  0.49160238273E+02  0.00000000000E+00 0. -1.
</event>
<event>
 7    1  0.2556591E-009  0.1109607E+03  0.7561462E-02  0.1258801E+00
          1   -1    0    0  501    0  0.00000000000E+00  0.00000000000E+00  0.23099699431E+02  0.23099699431E+02  0.00000000000E+00 0. -1.
         -1   -1    0    0    0  501 -0.00000000000E+00 -0.00000000000E+00 -0.61598465270E+03  0.61598465270E+03  0.00000000000E+00 0.  1.
         25    2    1    2    0    0  0.30189853578E+02  0.37372202104E+02 -0.32963972444E+03  0.35583400386E+03  0.12508949444E+03 0.  0.
          5    1    3    3  502    0 -0.28464516157E+02 -0.24490226757E+02 -0.45444014904E+02  0.59098483714E+02  0.41800000000E+01 0. -1.
         -5    1    3    3    0  502  0.58654369735E+02  0.61862428861E+02 -0.28419570954E+03  0.29673552014E+03  0.41800000000E+01 0. -1.
        -11    1    1    2    0    0  0.30628264434E+02 -0.12392167529E+02 -0.13679306923E+03  0.14072668612E+03  0.00000000000E+00 0.  1.
         11    1    1    2    0    0 -0.60818118012E+02 -0.24980034575E+02 -0.12645215960E+03  0.14252366215E+03  0.00000000000E+00 0. -1.
</event>
<event>
 7    1  0.2556591E-009  0.8400774E+02  0.7561462E-02  0.1318048E+00
          2   -1    0    0  501    0  0.00000000000E+00  0.00000000000E+00  0.18724577479E+03  0.18724577479E+03  0.00000000000E+00 0. -1.
         -2   -1    0    0    0  501 -0.00000000000E+00 -0.00000000000E+00 -0.80254056922E+02  0.80254056922E+02  0.00000000000E+00 0.  1.
         25    2    1    2    0    0 -0.43377073868E+02  0.38305151678E+02  0.54503454544E+02  0.14821309844E+03  0.12509053046E+03 0.  0.
          5    1    3    3  502    0 -0.32579260395E+02  0.28442120339E+00  0.89449455310E+02  0.95289907957E+02  0.41800000000E+01 0. -1.
         -5    1    3    3    0  502 -0.10797813473E+02  0.38020730475E+02 -0.34946000766E+02  0.52923190486E+02  0.41800000000E+01 0. -1.
        -11    1    1    2    0    0 -0.20760339376E+02 -0.19754065381E+02 -0.73994938630E+01  0.29596744745E+02  0.00000000000E+00 0.  1.
         11    1    1    2    0    0  0.64137413244E+02 -0.18551086297E+02  0.59887757183E+02  0.89689988521E+02  0.00000000000E+00 0. -1.
</event>
<event>
 7    1  0.2556591E-009  0.2002803E+03  0.7561462E-02  0.1149503E+00
          1   -1    0    0  501    0  0.00000000000E+00  0.00000000000E+00  0.12215228584E+04  0.12215228584E+04  0.00000000000E+00 0. -1.
         -1   -1    0    0    0  501 -0.00000000000E+00 -0.00000000000E+00 -0.36466847064E+02  0.36466847064E+02  0.00000000000E+00 0.  1.
         25    2    1    2    0    0 -0.17265309244E+03  0.52589140597E+02  0.58266160447E+03  0.62266854586E+03  0.12508742801E+03 0.  0.
          5    1    3    3  502    0 -0.78176543597E+02  0.88713339159E+02  0.32011092180E+03  0.34127716474E+03  0.41800000000E+01 0.  1.
         -5    1    3    3    0  502 -0.94476548843E+02 -0.36124198562E+02  0.26255068267E+03  0.28139138112E+03  0.41800000000E+01 0.  1.
        -11    1    1    2    0    0  0.12437498589E+03 -0.44274510208E+02  0.54047740099E+03  0.55636785524E+03  0.00000000000E+00 0.  1.
         11    1    1    2    0    0  0.48278106547E+02 -0.83146303884E+01  0.61917005831E+02  0.78953304310E+02  0.00000000000E+00 0. -1.
</event>
<event>
 7    1  0.2556591E-009  0.1054467E+03  0.7561462E-02  0.1269242E+00
         -3   -1    0    0    0  501 -0.00000000000E+00  0.00000000000E+00  0.71760541910E+02  0.71760541910E+02  0.00000000000E+00 0.  1.
          3   -1    0    0  501    0  0.00000000000E+00 -0.00000000000E+00 -0.17831479337E+03  0.17831479337E+03  0.00000000000E+00 0. -1.
         25    2    1    2    0    0  0.16332808131E+01 -0.28016798923E+02 -0.43597062815E+02  0.13541021878E+03  0.12509042664E+03 0.  0.
          5    1    3    3  502    0  0.33194252543E+02 -0.60939092962E+02  0.36431126682E+01  0.69614482135E+02  0.41800000000E+01 0.  1.
         -5    1    3    3    0  502 -0.31560971730E+02  0.32922294039E+02 -0.47240175483E+02  0.65795736648E+02  0.41800000000E+01 0.  1.
        -11    1    1    2    0    0  0.43159355168E+02  0.26728103618E+02 -0.29223581650E+02  0.58575926676E+02  0.00000000000E+00 0.  1.
         11    1    1    2    0    0 -0.44792635981E+02  0.12886953042E+01 -0.33733606992E+02  0.56089189818E+02  0.00000000000E+00 0. -1.
</event>
<event>
 7    1  0.2556591E-009  0.6200687E+02  0.7561462E-02  0.1389598E+00
          1   -1    0    0  501    0  0.00000000000E+00  0.00000000000E+00  0.57453191651E+02  0.57453191651E+02  0.00000000000E+00 0. -1.
         -1   -1    0    0    0  501 -0.00000000000E+00 -0.00000000000E+00 -0.28303375101E+03  0.28303375101E+03  0.00000000000E+00 0.  1.
         25    2    1    2    0    0 -0.40609295030E+01  0.25475908900E+01 -0.23229800182E+03  0.26388005531E+03  0.12508933037E+03 0.  0.
          5    1    3    3  502    0 -0.37863685224E+02 -0.85338403432E+01 -0.12219064595E+02  0.40905537880E+02  0.41800000000E+01 0. -1.
         -5    1    3    3    0  502  0.33802755721E+02  0.11081431233E+02 -0.22007893723E+03  0.22297451743E+03  0.41800000000E+01 0. -1.
        -11    1    1    2    0    0 -0.21658825367E+02 -0.75875018996E+01  0.32536975449E+02  0.39816198622E+02  0.00000000000E+00 0.  1.
         11    1    1    2    0    0  0.25719754870E+02  0.50399110096E+01 -0.25819532989E+02  0.36790688731E+02  0.00000000000E+00 0. -1.
</event>
<event>
 7    1  0.2825434E-009  0.8147454E+02  0.7561462E-02  0.1324918E+00
         -2   -1    0    0    0  501 -0.00000000000E+00  0.00000000000E+00  0.25501511830E+02  0.25501511830E+02  0.00000000000E+00 0.  1.
          2   -1    0    0  501    0  0.00000000000E+00 -0.00000000000E+00 -0.54259139473E+03  0.54259139473E+03  0.00000000000E+00 0. -1.
         25    2    1    2    0    0 -0.18190298141E+02 -0.21773584414E+02 -0.37684820193E+03  0.39807944165E+03  0.12509076161E+03 0.  0.
          5    1    3    3  502    0  0.30026792429E+02 -0.25217292979E+01 -0.17744591612E+02  0.35218039606E+02  0.41800000000E+01 0. -1.
         -5    1    3    3    0  502 -0.48217090571E+02 -0.19251855116E+02 -0.35910361032E+03  0.36286140205E+03  0.41800000000E+01 0. -1.
        -11    1    1    2    0    0  0.21258839417E+02 -0.25425987769E+02 -0.15465597359E+02  0.36573266317E+02  0.00000000000E+00 0.  1.
         11    1    1    2    0    0 -0.30685412755E+01  0.47199572183E+02 -0.12477608360E+03  0.13344019859E+03  0.00000000000E+00 0. -1.
</event>
<event>
 7    1  0.2556591E-009  0.2597662E+03  0.7561462E-02  0.1107284E+00
         -2   -1    0    0    0  501 -0.00000000000E+00  0.00000000000E+00  0.15015063185E+03  0.15015063185E+03  0.00000000000E+00 0.  1.
          2   -1    0    0  501    0  0.00000000000E+00 -0.00000000000E+00 -0.52748898317E+03  0.52748898317E+03  0.00000000000E+00 0. -1.
         25    2    1    2    0    0 -0.17913304134E+03 -0.17141539037E+03 -0.28068833500E+03  0.39484862024E+03  0.12509040308E+03 0.  0.
          5    1    3    3  502    0 -0.18736984457E+03 -0.13413232748E+03 -0.26998196311E+03  0.35497418601E+03  0.41800000000E+01 0. -1.
         -5    1    3    3    0  502  0.82368032343E+01 -0.37283062887E+02 -0.10706371895E+02  0.39874434227E+02  0.41800000000E+01 0. -1.
        -11    1    1    2    0    0  0.88932936396E+02  0.11034829362E+03 -0.10058771255E+03  0.17379212006E+03  0.00000000000E+00 0.  1.
         11    1    1    2    0    0  0.90200104942E+02  0.61067096755E+02  0.39376962274E+01  0.10899887472E+03  0.00000000000E+00 0. -1.
</event>
<event>
 7    1  0.2556591E-009  0.1336310E+03  0.7561462E-02  0.1222165E+00
          2   -1    0    0  501    0  0.00000000000E+00  0.00000000000E+00  0.67419031075E+03  0.67419031075E+03  0.00000000000E+00 0. -1.
         -2   -1    0    0    0  501 -0.00000000000E+00 -0.00000000000E+00 -0.35332149095E+02  0.35332149095E+02  0.00000000000E+00 0.  1.
         25    2    1    2    0    0 -0.66987690328E+02 -0.66774006112E+02  0.47293425181E+03  0.49825735264E+03  0.12508982524E+03 0.  0.
          5    1    3    3  502    0 -0.57246576385E+02  0.25808936149E+02  0.21414367153E+03  0.22320003618E+03  0.41800000000E+01 0.  1.
         -5    1    3    3    0  502 -0.97411139427E+01 -0.92582942261E+02  0.25879058028E+03  0.27505731646E+03  0.41800000000E+01 0.  1.
        -11    1    1    2    0    0  0.73154477301E+02  0.39420478276E+02  0.62150392260E+02  0.10377004825E+03  0.00000000000E+00 0.  1.
         11    1    1    2    0    0 -0.61667869738E+01  0.27353527837E+02  0.10377351759E+03  0.10749505895E+03  0.00000000000E+00 0. -1.
</event>
<event>
 7    1  0.2556591E-009  0.9895107E+02  0.7561462E-02  0.1282517E+00
         -1   -1    0    0    0  501 -0.00000000000E+00  0.00000000000E+00  0.19381661018E+03  0.19381661018E+03  0.00000000000E+00 0.  1.
          1   -1    0    0  501    0  0.00000000000E+00 -0.00000000000E+00 -0.69204366064E+02  0.69204366064E+02  0.00000000000E+00 0. -1.
         25    2    1    2    0    0  0.37173452983E+02  0.11363289112E+02  0.89075123004E+02  0.15840375235E+03  0.12508549586E+03 0.  0.
          5    1    3    3  502    0  0.46063099969E+02 -0.31247373417E+02 -0.35957408276E+01  0.55933972471E+02  0.41800000000E+01 0. -1.
         -5    1    3    3    0  502 -0.88896469865E+01  0.42610662529E+02  0.92670863832E+02  0.10246977988E+03  0.41800000000E+01 0. -1.
        -11    1    1    2    0    0  0.28368237318E+02 -0.16143086045E+02  0.13219920527E+02  0.35215371847E+02  0.00000000000E+00 0. -1.
         11    1    1    2    0    0 -0.65541690300E+02  0.47797969331E+01  0.22317200587E+02  0.69401852051E+02  0.00000000000E+00 0.  1.
</event>
<event>
 7    1  0.2556591E-009  0.2796745E+03  0.7561462E-02  0.1095867E+00
         -2   -1    0    0    0  501 -0.00000000000E+00  0.00000000000E+00  0.33120331084E+03  0.33120331084E+03  0.00000000000E+00 0. -1.
          2   -1    0    0  501    0  0.00000000000E+00 -0.00000000000E+00 -0.84905890447E+03  0.84905890447E+03  0.00000000000E+00 0.  1.
         25    2    1    2    0    0 -0.10604450116E+02  0.24353371289E+03 -0.73571964194E+03  0.78508124266E+03  0.12509213552E+03 0.  0.
          5    1    3    3  502    0  0.41517505514E+01  0.23728017524E+03 -0.55525552365E+03  0.60385866520E+03  0.41800000000E+01 0. -1.
         -5    1    3    3    0  502 -0.14756200667E+02  0.62535376485E+01 -0.18046411829E+03  0.18122257746E+03  0.41800000000E+01 0. -1.
        -11    1    1    2    0    0 -0.10151032611E+01  0.30818291225E+02 -0.15776862005E+02  0.34636785119E+02  0.00000000000E+00 0.  1.
         11    1    1    2    0    0  0.11619553377E+02 -0.27435200412E+03  0.23364091032E+03  0.36054418753E+03  0.00000000000E+00 0. -1.
</event>
<event>
 7    1  0.2556591E-009  0.1525601E+03  0.7561462E-02  0.1197362E+00
          1   -1    0    0  501    0  0.00000000000E+00  0.00000000000E+00  0.34397726559E+03  0.34397726559E+03  0.00000000000E+00 0. -1.
         -1   -1    0    0    0  501 -0.00000000000E+00 -0.00000000000E+00 -0.84935461712E+02  0.84935461712E+02  0.00000000000E+00 0.  1.
         25    2    1    2    0    0 -0.79067461245E+02 -0.10371764492E+03  0.18133355800E+03  0.25600760986E+03  0.12509605810E+03 0.  0.
          5    1    3    3  502    0 -0.63424431093E+02 -0.21162498550E+02  0.13600173986E+02  0.68358956522E+02  0.41800000000E+01 0.  1.
         -5    1    3    3    0  502 -0.15643030152E+02 -0.82555146367E+02  0.16773338402E+03  0.18764865333E+03  0.41800000000E+01 0.  1.
        -11    1    1    2    0    0 -0.16089117435E+02  0.28407676597E+02  0.22061335695E+02  0.39402516698E+02  0.00000000000E+00 0.  1.
         11    1    1    2    0    0  0.95156578680E+02  0.75309968320E+02  0.55646910183E+02  0.13350260075E+03  0.00000000000E+00 0. -1.
</event>
<event>
 7    1  0.2556591E-009  0.1019839E+03  0.7561462E-02  0.1276179E+00
          4   -1    0    0  501    0  0.00000000000E+00  0.00000000000E+00  0.15458983791E+03  0.15458983791E+03  0.00000000000E+00 0.  1.
         -4   -1    0    0    0  501 -0.00000000000E+00 -0.00000000000E+00 -0.12389260104E+03  0.12389260104E+03  0.00000000000E+00 0. -1.
         25    2    1    2    0    0  0.55635169015E+02  0.30807875538E+02 -0.43548687254E+02  0.14692389351E+03  0.12508295286E+03 0.  0.
          5    1    3    3  502    0  0.72586895920E+02 -0.28788626190E+02 -0.25535273833E+02  0.82262780569E+02  0.41800000000E+01 0. -1.
         -5    1    3    3    0  502 -0.16951726905E+02  0.59596501728E+02 -0.18013413420E+02  0.64661112937E+02  0.41800000000E+01 0. -1.
        -11    1    1    2    0    0 -0.22227062957E+02 -0.14007857324E+02 -0.18116433727E+02  0.31913438634E+02  0.00000000000E+00 0. -1.
         11    1    1    2    0    0 -0.33408106058E+02 -0.16800018214E+02  0.92362357854E+02  0.99645106808E+02  0.00000000000E+00 0.  1.
</event>
<event>
 7    1  0.2556591E-009  0.1048977E+03  0.7561462E-02  0.1270321E+00
         -1   -1    0    0    0  501 -0.00000000000E+00  0.00000000000E+00  0.14501910123E+03  0.14501910123E+03  0.00000000000E+00 0.  1.
          1   -1    0    0  501    0  0.00000000000E+00 -0.00000000000E+00 -0.15354716205E+03  0.15354716205E+03  0.00000000000E+00 0. -1.
         25    2    1    2    0    0  0.22966422580E+02  0.78745965377E+02 -0.65999499490E+02  0.16350025318E+03  0.12509202703E+03 0.  0.
          5    1    3    3  502    0  0.41712939921E+02  0.92302520518E+02 -0.89190855679E+01  0.10176810472E+03  0.41800000000E+01 0. -1.
         -5    1    3    3    0  502 -0.18746517341E+02 -0.13556555140E+02 -0.57080413922E+02  0.61732148458E+02  0.41800000000E+01 0. -1.
        -11    1    1    2    0    0 -0.13749694949E+02 -0.72461045009E+02 -0.27644507075E+01  0.73805821876E+02  0.00000000000E+00 0. -1.
         11    1    1    2    0    0 -0.92167276306E+01 -0.62849203680E+01  0.60235889379E+02  0.61260188226E+02  0.00000000000E+00 0.  1.
</event>
<event>
 7    1  0.2556591E-009  0.1075262E+03  0.7561462E-02  0.1265221E+00
          2   -1    0    0  501    0  0.00000000000E+00  0.00000000000E+00  0.16393359698E+03  0.16393359698E+03  0.00000000000E+00 0. -1.
         -2   -1    0    0    0  501 -0.00000000000E+00 -0.00000000000E+00 -0.11677900581E+03  0.11677900581E+03  0.00000000000E+00 0.  1.
         25    2    1    2    0    0 -0.53734003329E+00  0.45426027035E+02 -0.48485812171E+02  0.14163817584E+03  0.12508671476E+03 0.  0.
          5    1    3    3  502    0 -0.61108949316E+02  0.13962044573E+02 -0.35076335181E+02  0.71951817663E+02  0.41800000000E+01 0.  1.
         -5    1    3    3    0  502  0.60571609283E+02  0.31463982462E+02 -0.13409476989E+02  0.69686358182E+02  0.41800000000E+01 0.  1.
        -11    1    1    2    0    0  0.46608933895E+01 -0.64329201237E+02  0.10023073307E+03  0.11918963843E+03  0.00000000000E+00 0. -1.
         11    1    1    2    0    0 -0.41235533562E+01  0.18903174202E+02 -0.45903297319E+01  0.19884788514E+02  0.00000000000E+00 0.  1.
</event>
<event>
 7    1  0.2556591E-009  0.1084381E+03  0.7561462E-02  0.1263490E+00
         -1   -1    0    0    0  501 -0.00000000000E+00  0.00000000000E+00  0.36922040964E+02  0.36922040964E+02  0.00000000000E+00 0.  1.
          1   -1    0    0  501    0  0.00000000000E+00 -0.00000000000E+00 -0.34221337331E+03  0.34221337331E+03  0.00000000000E+00 0. -1.
         25    2    1    2    0    0 -0.34017945719E+02  0.60703784571E+01 -0.17576030524E+03  0.21847976707E+03  0.12509058156E+03 0.  0.
          5    1    3    3  502    0 -0.19654176298E+02 -0.56157862279E+02 -0.11822797129E+03  0.13242098677E+03  0.41800000000E+01 0. -1.
         -5    1    3    3    0  502 -0.14363769421E+02  0.62228240736E+02 -0.57532333946E+02  0.86058780298E+02  0.41800000000E+01 0. -1.
        -11    1    1    2    0    0  0.37022958806E+01  0.38856400012E+02 -0.70012045785E+02  0.80157428674E+02  0.00000000000E+00 0.  1.
         11    1    1    2    0    0  0.30315649839E+02 -0.44926778469E+02 -0.59518981322E+02  0.80498218529E+02  0.00000000000E+00 0. -1.
</event>
<event>
 7    1  0.2556591E-009  0.2955056E+03  0.7561462E-02  0.1087509E+00
         -2   -1    0    0    0  501 -0.00000000000E+00  0.00000000000E+00  0.51901289869E+02  0.51901289869E+02  0.00000000000E+00 0. -1.
          2   -1    0    0  501    0  0.00000000000E+00 -0.00000000000E+00 -0.21663840812E+04  0.21663840812E+04  0.00000000000E+00 0.  1.
         25    2    1    2    0    0  0.28198337133E+03  0.62958544878E+02 -0.15068698931E+04  0.15394099067E+04  0.12509031075E+03 0.  0.
          5    1    3    3  502    0  0.74961885730E+02  0.46695639112E+02 -0.72695499565E+03  0.73231195889E+03  0.41800000000E+01 0. -1.
         -5    1    3    3    0  502  0.20702148560E+03  0.16262905766E+02 -0.77991489749E+03  0.80709794780E+03  0.41800000000E+01 0. -1.
        -11    1    1    2    0    0 -0.40094882363E+02 -0.31459910688E+02 -0.17455731631E+03  0.18184494013E+03  0.00000000000E+00 0. -1.
         11    1    1    2    0    0 -0.24188848897E+03 -0.31498634190E+02 -0.43305558185E+03  0.49703052424E+03  0.00000000000E+00 0.  1.
</event>
<event>
 7    1  0.2556591E-009  0.1038983E+03  0.7561462E-02  0.1272306E+00
         -1   -1    0    0    0  501 -0.00000000000E+00  0.00000000000E+00  0.37574819798E+03  0.37574819798E+03  0.00000000000E+00 0.  1.
          1   -1    0    0  501    0  0.00000000000E+00 -0.00000000000E+00 -0.43005541131E+02  0.43005541131E+02  0.00000000000E+00 0. -1.
         25    2    1    2    0    0  0.64009963673E+01  0.47080514237E+02  0.26637377916E+03  0.29808898644E+03  0.12507799983E+03 0.  0.
          5    1    3    3  502    0  0.28560669495E+02 -0.34308027738E+02  0.13172046740E+03  0.13914203729E+03  0.41800000000E+01 0.  1.
         -5    1    3    3    0  502 -0.22159673127E+02  0.81388541974E+02  0.13465331175E+03  0.15894694915E+03  0.41800000000E+01 0.  1.
        -11    1    1    2    0    0  0.25120122437E+02 -0.38268334640E+02  0.74039778372E+02  0.87048117549E+02  0.00000000000E+00 0.  1.
         11    1    1    2    0    0 -0.31521118805E+02 -0.88121795965E+01 -0.76709006748E+01  0.33616635125E+02  0.00000000000E+00 0. -1.
</event>
<event>
 7    1  0.2556591E-009  0.1260257E+03  0.7561462E-02  0.1233475E+00
         -2   -1    0    0    0  501 -0.00000000000E+00  0.00000000000E+00  0.52176811142E+02  0.52176811142E+02  0.00000000000E+00 0.  1.
          2   -1    0    0  501    0  0.00000000000E+00 -0.00000000000E+00 -0.40977676885E+03  0.40977676885E+03  0.00000000000E+00 0. -1.
         25    2    1    2    0    0 -0.58121657714E+02 -0.31916218694E+02 -0.79990329251E+02  0.16261115479E+03  0.12508861970E+03 0.  0.
          5    1    3    3  502    0 -0.12470253034E+02  0.47553076091E+02 -0.34536219770E+02  0.60224788355E+02  0.41800000000E+01 0. -1.
         -5    1    3    3    0  502 -0.45651404680E+02 -0.79469294786E+02 -0.45454109481E+02  0.10238636643E+03  0.41800000000E+01 0. -1.
        -11    1    1    2    0    0 -0.13462138550E+02 -0.18884412330E+02 -0.43102051354E+02  0.48945245268E+02  0.00000000000E+00 0.  1.
         11    1    1    2    0    0  0.71583796263E+02  0.50800631024E+02 -0.23450757710E+03  0.25039717993E+03  0.00000000000E+00 0. -1.
</event>
<event>
 7    1  0.2556591E-009  0.5122089E+02  0.7561462E-02  0.1438865E+00
          1   -1    0    0  501    0  0.00000000000E+00  0.00000000000E+00  0.12406376979E+03  0.12406376979E+03  0.00000000000E+00 0. -1.
         -1   -1    0    0    0  501 -0.00000000000E+00 -0.00000000000E+00 -0.13573914026E+03  0.13573914026E+03  0.00000000000E+00 0.  1.
         25    2    1    2    0    0 -0.27154247288E+02 -0.40019542054E+02  0.46223522587E+02  0.14185888568E+03  0.12509361500E+03 0.  0.
          5    1    3    3  502    0  0.25257299164E+01 -0.12374238471E+02 -0.42328591172E+02  0.44369844714E+02  0.41800000000E+01 0.  1.
         -5    1    3    3    0  502 -0.29679977205E+02 -0.27645303583E+02  0.88552113758E+02  0.97489040964E+02  0.41800000000E+01 0.  1.
        -11    1    1    2    0    0  0.18530312202E+02  0.27070742549E+02 -0.82529965732E+02  0.88810994906E+02  0.00000000000E+00 0.  1.
         11    1    1    2    0    0  0.86239350867E+01  0.12948799505E+02  0.24631072675E+02  0.29133029470E+02  0.00000000000E+00 0. -1.
</event>
<event>
 7    1  0.2556591E-009  0.2151055E+03  0.7561462E-02  0.1137586E+00
         -2   -1    0    0    0  501 -0.00000000000E+00  0.00000000000E+00  0.16325789683E+03  0.16325789683E+03  0.00000000000E+00 0.  1.
          2   -1    0    0  501    0  0.00000000000E+00 -0.00000000000E+00 -0.40497146894E+03  0.40497146894E+03  0.00000000000E+00 0. -1.
         25    2    1    2    0    0 -0.18190226890E+03  0.80863313240E+02 -0.25161795786E+03  0.34436163481E+03  0.12508408353E+03 0.  0.
          5    1    3    3  502    0  0.13489276237E+02  0.13648676549E+02 -0.57729225192E+02  0.60978543654E+02  0.41800000000E+01 0. -1.
         -5    1    3    3    0  502 -0.19539154514E+03  0.67214636691E+02 -0.19388873267E+03  0.28338309116E+03  0.41800000000E+01 0. -1.
        -11    1    1    2    0    0  0.58724664101E+02 -0.43343066066E+01 -0.39228892716E+02  0.70755059262E+02  0.00000000000E+00 0. -1.
         11    1    1    2    0    0  0.12317760480E+03 -0.76529006633E+02  0.49133278461E+02  0.15311267169E+03  0.00000000000E+00 0.  1.
</event>
<event>
 7    1  0.2556591E-009  0.1408894E+03  0.7561462E-02  0.1212137E+00
          1   -1    0    0  501    0  0.00000000000E+00  0.00000000000E+00  0.85497859558E+03  0.85497859558E+03  0.00000000000E+00 0. -1.
         -1   -1    0    0    0  501 -0.00000000000E+00 -0.00000000000E+00 -0.27525775761E+02  0.27525775761E+02  0.00000000000E+00 0.  1.
         25    2    1    2    0    0 -0.44324267155E+02 -0.96725569309E+02  0.50190467438E+03  0.52808664295E+03  0.12508686536E+03 0.  0.
          5    1    3    3  502    0 -0.27169453726E+02 -0.12487774596E+03  0.35097457977E+03  0.37354150866E+03  0.41800000000E+01 0.  1.
         -5    1    3    3    0  502 -0.17154813429E+02  0.28152176649E+02  0.15093009461E+03  0.15454513429E+03  0.41800000000E+01 0.  1.
        -11    1    1    2    0    0  0.44522562010E+02  0.29398629813E+02  0.59210572586E+02  0.79702132147E+02  0.00000000000E+00 0.  1.
         11    1    1    2    0    0 -0.19829485520E+00  0.67326939496E+02  0.26633757286E+03  0.27471559624E+03  0.00000000000E+00 0. -1.
</event>
<event>
 7    1  0.2556591E-009  0.1205728E+03  0.7561462E-02  0.1242155E+00
         -1   -1    0    0    0  501 -0.00000000000E+00  0.00000000000E+00  0.29361499419E+02  0.29361499419E+02  0.00000000000E+00 0.  1.
          1   -1    0    0  501    0  0.00000000000E+00 -0.00000000000E+00 -0.60291351373E+03  0.60291351373E+03  0.00000000000E+00 0. -1.
         25    2    1    2    0    0  0.31717180658E+01 -0.75619745572E+02 -0.31651515483E+03  0.34865107668E+03  0.12508926539E+03 0.  0.
          5    1    3    3  502    0  0.49889280381E+00 -0.10921501458E+03 -0.26801379279E+03  0.28944262615E+03  0.41800000000E+01 0. -1.
         -5    1    3    3    0  502  0.26728252620E+01  0.33595269008E+02 -0.48501362036E+02  0.59208450528E+02  0.41800000000E+01 0. -1.
        -11    1    1    2    0    0 -0.11753063107E+02  0.84632784904E+02 -0.25736152810E+03  0.27117484934E+03  0.00000000000E+00 0. -1.
         11    1    1    2    0    0  0.85813450415E+01 -0.90130393314E+01  0.32466861101E+00  0.12449087132E+02  0.00000000000E+00 0.  1.
</event>
<event>
 7    1  0.2556591E-009  0.1393460E+03  0.7561462E-02  0.1214212E+00
         -2   -1    0    0    0  501 -0.00000000000E+00  0.00000000000E+00  0.95838096450E+02  0.95838096450E+02  0.00000000000E+00 0.  1.
          2   -1    0    0  501    0  0.00000000000E+00 -0.00000000000E+00 -0.24401554382E+03  0.24401554382E+03  0.00000000000E+00 0. -1.
         25    2    1    2    0    0  0.76625161642E+02  0.68405261184E+02 -0.47261940843E+02  0.16861550547E+03  0.12508717952E+03 0.  0.
          5    1    3    3  502    0 -0.64621176094E+01  0.77398980649E+02 -0.28681768855E+02  0.82900406719E+02  0.41800000000E+01 0. -1.
         -5    1    3    3    0  502  0.83087279251E+02 -0.89937194649E+01 -0.18580171988E+02  0.85715098753E+02  0.41800000000E+01 0. -1.
        -11    1    1    2    0    0 -0.39258083687E+02  0.34418137768E-01 -0.82130895177E+02  0.91031215866E+02  0.00000000000E+00 0. -1.
         11    1    1    2    0    0 -0.37367077955E+02 -0.68439679322E+02 -0.18784611346E+02  0.80206918928E+02  0.00000000000E+00 0.  1.
</event>
<event>
 7    1  0.2556591E-009  0.8486097E+02  0.7561462E-02  0.1315797E+00
         -3   -1    0    0    0  501 -0.00000000000E+00  0.00000000000E+00  0.89702780468E+02  0.89702780468E+02  0.00000000000E+00 0.  1.
          3   -1    0    0  501    0  0.00000000000E+00 -0.00000000000E+00 -0.27023655976E+03  0.27023655976E+03  0.00000000000E+00 0. -1.
         25    2    1    2    0    0 -0.48102992503E+02 -0.16281671342E+02 -0.20926464887E+03  0.24903848626E+03  0.12509789630E+03 0.  0.
          5    1    3    3  502    0 -0.58654471653E+02  0.15510841011E+02 -0.32255462945E+02  0.68839091536E+02  0.41800000000E+01 0. -1.
         -5    1    3    3    0  502  0.10551479150E+02 -0.31792512353E+02 -0.17700918593E+03  0.18019939472E+03  0.41800000000E+01 0. -1.
        -11    1    1    2    0    0  0.57179349251E+02  0.77778749034E+00 -0.18713720562E+02  0.60168814775E+02  0.00000000000E+00 0. -1.
         11    1    1    2    0    0 -0.90763567484E+01  0.15503883852E+02  0.47444590149E+02  0.50732039193E+02  0.00000000000E+00 0.  1.
</event>
<event>
 7    1  0.2556591E-009  0.1271116E+03  0.7561462E-02  0.1231806E+00
         -2   -1    0    0    0  501 -0.00000000000E+00  0.00000000000E+00  0.56284673399E+02  0.56284673399E+02  0.00000000000E+00 0.  1.
          2   -1    0    0  501    0  0.00000000000E+00 -0.00000000000E+00 -0.34608730367E+03  0.34608730367E+03  0.00000000000E+00 0. -1.
         25    2    1    2    0    0  0.44706746473E+02 -0.54802161034E+02 -0.23058656032E+03  0.27169782076E+03  0.12509026328E+03 0.  0.
          5    1    3    3  502    0  0.75886879839E+02 -0.69949598889E+02 -0.13534050133E+03  0.17025360089E+03  0.41800000000E+01 0.  1.
         -5    1    3    3    0  502 -0.31180133366E+02  0.15147437855E+02 -0.95246058988E+02  0.10144421986E+03  0.41800000000E+01 0.  1.
        -11    1    1    2    0    0  0.26287073377E+02  0.32078771810E+02 -0.15605690449E+02  0.44312474564E+02  0.00000000000E+00 0.  1.
         11    1    1    2    0    0 -0.70993819850E+02  0.22723389223E+02 -0.43610379503E+02  0.86361681753E+02  0.00000000000E+00 0. -1.
</event>
<event>
 7    1  0.2556591E-009  0.1210315E+03  0.7561462E-02  0.1241405E+00
          2   -1    0    0  501    0  0.00000000000E+00  0.00000000000E+00  0.31314193167E+03  0.31314193167E+03  0.00000000000E+00 0.  1.
         -2   -1    0    0    0  501 -0.00000000000E+00 -0.00000000000E+00 -0.72290390113E+02  0.72290390113E+02  0.00000000000E+00 0. -1.
         25    2    1    2    0    0 -0.76405474793E+02 -0.67560458975E+02  0.16407542778E+03  0.23015183224E+03  0.12508760007E+03 0.  0.
          5    1    3    3  502    0 -0.80784481326E+02 -0.92956809745E+01  0.35433559268E+02  0.88800628546E+02  0.41800000000E+01 0.  1.
         -5    1    3    3    0  502  0.43790065324E+01 -0.58264778001E+02  0.12864186851E+03  0.14135120370E+03  0.41800000000E+01 0.  1.
        -11    1    1    2    0    0  0.51260592790E+02  0.42956446292E+02  0.94591637050E+02  0.11584680596E+03  0.00000000000E+00 0.  1.
         11    1    1    2    0    0  0.25144882003E+02  0.24604012683E+02 -0.17815523271E+02  0.39433683577E+02  0.00000000000E+00 0. -1.
</event>
<event>
 7    1  0.2556591E-009  0.9546632E+02  0.7561462E-02  0.1290129E+00
          1   -1    0    0  501    0  0.00000000000E+00  0.00000000000E+00  0.75122665320E+02  0.75122665320E+02  0.00000000000E+00 0. -1.
         -1   -1    0    0    0  501 -0.00000000000E+00 -0.00000000000E+00 -0.16398476714E+03  0.16398476714E+03  0.00000000000E+00 0.  1.
         25    2    1    2    0    0 -0.18399881122E+02 -0.63518175950E+01 -0.66413319211E+02  0.14295901462E+03  0.12509056591E+03 0.  0.
          5    1    3    3  502    0 -0.54548347909E+02 -0.41053355134E+02 -0.13040365937E+02  0.69630623803E+02  0.41800000000E+01 0.  1.
         -5    1    3    3    0  502  0.36148466787E+02  0.34701537539E+02 -0.53372953274E+02  0.73328390817E+02  0.41800000000E+01 0.  1.
        -11    1    1    2    0    0  0.44894412049E+02 -0.45247423378E+00 -0.42819682507E+02  0.62042228974E+02  0.00000000000E+00 0.  1.
         11    1    1    2    0    0 -0.26494530927E+02  0.68042918288E+01  0.20370899898E+02  0.34106188866E+02  0.00000000000E+00 0. -1.
</event>
<event>
 7    1  0.2556591E-009  0.1139091E+03  0.7561462E-02  0.1253497E+00
          2   -1    0    0  501    0  0.00000000000E+00  0.00000000000E+00  0.40683558324E+03  0.40683558324E+03  0.00000000000E+00 0. -1.
         -2   -1    0    0    0  501 -0.00000000000E+00 -0.00000000000E+00 -0.58750777761E+02  0.58750777761E+02  0.00000000000E+00 0.  1.
         25    2    1    2    0    0  0.40302137344E+02  0.67191188777E+02  0.29041828200E+03  0.32577483206E+03  0.12509014573E+03 0.  0.
          5    1    3    3  502    0  0.37110583212E+02  0.18143462152E+01  0.24040153451E+03  0.24329171263E+03  0.41800000000E+01 0. -1.
         -5    1    3    3    0  502  0.31915541317E+01  0.65376842561E+02  0.50016747485E+02  0.82483119425E+02  0.41800000000E+01 0. -1.
        -11    1    1    2    0    0  0.29818999474E+02 -0.39403197464E+02  0.36617678242E+02  0.61503163007E+02  0.00000000000E+00 0. -1.
         11    1    1    2    0    0 -0.70121136818E+02 -0.27787991313E+02  0.21048845238E+02  0.78308365937E+02  0.00000000000E+00 0.  1.
</event>
<event>
 7    1  0.2556591E-009  0.1278233E+03  0.7561462E-02  0.1230722E+00
          2   -1    0    0  501    0  0.00000000000E+00  0.00000000000E+00  0.19670248928E+03  0.19670248928E+03  0.00000000000E+00 0. -1.
         -2   -1    0    0    0  501 -0.00000000000E+00 -0.00000000000E+00 -0.98264559613E+02  0.98264559613E+02  0.00000000000E+00 0.  1.
         25    2    1    2    0    0  0.90261972932E+00 -0.84630625455E+02  0.70628629011E+02  0.16672905866E+03  0.12508804211E+03 0.  0.
          5    1    3    3  502    0  0.11082234291E+02  0.23676810097E+02  0.49060945299E+02  0.55748148013E+02  0.41800000000E+01 0. -1.
         -5    1    3    3    0  502 -0.10179614561E+02 -0.10830743555E+03  0.21567683712E+02  0.11098091065E+03  0.41800000000E+01 0. -1.
        -11    1    1    2    0    0 -0.42175650871E+02  0.29631327475E+02 -0.54909492972E+01  0.51835814052E+02  0.00000000000E+00 0.  1.
         11    1    1    2    0    0  0.41273031141E+02  0.54999297981E+02  0.33300249958E+02  0.76402176181E+02  0.00000000000E+00 0. -1.
</event>
<event>
 7    1  0.2556591E-009  0.1035119E+03  0.7561462E-02  0.1273080E+00
          2   -1    0    0  501    0  0.00000000000E+00  0.00000000000E+00  0.26393008612E+03  0.26393008612E+03  0.00000000000E+00 0.  1.
         -2   -1    0    0    0  501 -0.00000000000E+00 -0.00000000000E+00 -0.59075064809E+02  0.59075064809E+02  0.00000000000E+00 0. -1.
         25    2    1    2    0    0  0.40341782139E+02  0.44028416098E+02  0.12452156121E+03  0.18633127338E+03  0.12509102055E+03 0.  0.
          5    1    3    3  502    0  0.55031265614E+02 -0.26958640703E+02  0.33727366514E+02  0.70072934544E+02  0.41800000000E+01 0.  1.
         -5    1    3    3    0  502 -0.14689483475E+02  0.70987056802E+02  0.90794194695E+02  0.11625833883E+03  0.41800000000E+01 0.  1.
        -11    1    1    2    0    0 -0.49003527634E+02 -0.33515021107E+02  0.97869609948E+02  0.11446861103E+03  0.00000000000E+00 0.  1.
         11    1    1    2    0    0  0.86617454951E+01 -0.10513394991E+02 -0.17536149852E+02  0.22205266513E+02  0.00000000000E+00 0. -1.
</event>
<event>
 7    1  0.2556591E-009  0.2323780E+03  0.7561462E-02  0.1124977E+00
          4   -1    0    0  501    0  0.00000000000E+00  0.00000000000E+00  0.11122624572E+04  0.11122624572E+04  0.00000000000E+00 0. -1.
         -4   -1    0    0    0  501 -0.00000000000E+00 -0.00000000000E+00 -0.55288217850E+02  0.55288217850E+02  0.00000000000E+00 0.  1.
         25    2    1    2    0    0 -0.12136109195E+03 -0.17383776745E+03  0.70236382486E+03  0.74425159718E+03  0.12508962151E+03 0.  0.
          5    1    3    3  502    0 -0.14561432077E+03 -0.13454439062E+03  0.53438831533E+03  0.56999479596E+03  0.41800000000E+01 0.  1.
         -5    1    3    3    0  502  0.24253228825E+02 -0.39293376831E+02  0.16797550952E+03  0.17425680122E+03  0.41800000000E+01 0.  1.
        -11    1    1    2    0    0  0.60792241524E+02  0.38873278518E+02  0.18309338136E+03  0.19679942762E+03  0.00000000000E+00 0. -1.
         11    1    1    2    0    0  0.60568850423E+02  0.13496448893E+03  0.17151703317E+03  0.22649965029E+03  0.00000000000E+00 0.  1.
</event>
<event>
 7    1  0.2556591E-009  0.1636246E+03  0.7561462E-02  0.1184664E+00
         -2   -1    0    0    0  501 -0.00000000000E+00  0.00000000000E+00  0.44840130783E+02  0.44840130783E+02  0.00000000000E+00 0.  1.
          2   -1    0    0  501    0  0.00000000000E+00 -0.00000000000E+00 -0.11288645650E+04  0.11288645650E+04  0.00000000000E+00 0. -1.
         25    2    1    2    0    0  0.16297627486E+02  0.12402039794E+03 -0.95486459268E+03  0.97111291386E+03  0.12508888575E+03 0.  0.
          5    1    3    3  502    0  0.31475395134E+02  0.14301735443E+03 -0.70670913128E+03  0.72173397647E+03  0.41800000000E+01 0.  1.
         -5    1    3    3    0  502 -0.15177767648E+02 -0.18996956483E+02 -0.24815546140E+03  0.24937893739E+03  0.41800000000E+01 0.  1.
        -11    1    1    2    0    0  0.38352114182E+02 -0.66274041059E+02 -0.64027858311E+02  0.99813324864E+02  0.00000000000E+00 0.  1.
         11    1    1    2    0    0 -0.54649741668E+02 -0.57746356885E+02 -0.65131983237E+02  0.10277845707E+03  0.00000000000E+00 0. -1.
</event>
<event>
 7    1  0.2556591E-009  0.1226872E+03  0.7561462E-02  0.1238729E+00
          1   -1    0    0  501    0  0.00000000000E+00  0.00000000000E+00  0.15126986817E+03  0.15126986817E+03  0.00000000000E+00 0. -1.
         -1   -1    0    0    0  501 -0.00000000000E+00 -0.00000000000E+00 -0.11548095754E+03  0.11548095754E+03  0.00000000000E+00 0.  1.
         25    2    1    2    0    0 -0.34755601992E+02  0.54476913728E+02 -0.16685904043E+02  0.14177847245E+03  0.12508808840E+03 0.  0.
          5    1    3    3  502    0  0.42305138790E+02  0.46417619425E+02 -0.32208715964E+01  0.63025126537E+02  0.41800000000E+01 0.  1.
         -5    1    3    3    0  502 -0.77060740782E+02  0.80592943025E+01 -0.13465032447E+02  0.78753345918E+02  0.41800000000E+01 0.  1.
        -11    1    1    2    0    0  0.59892545957E+02 -0.22080621190E+02  0.77605605008E+01  0.64303166272E+02  0.00000000000E+00 0.  1.
         11    1    1    2    0    0 -0.25136943965E+02 -0.32396292538E+02  0.44714254180E+02  0.60669186982E+02  0.00000000000E+00 0. -1.
</event>
<event>
 7    1  0.2556591E-009  0.1069765E+03  0.7561462E-02  0.1266274E+00
          1   -1    0    0  501    0  0.00000000000E+00  0.00000000000E+00  0.43980472230E+02  0.43980472230E+02  0.00000000000E+00 0. -1.
         -1   -1    0    0    0  501 -0.00000000000E+00 -0.00000000000E+00 -0.40682706037E+03  0.40682706037E+03  0.00000000000E+00 0.  1.
         25    2    1    2    0    0 -0.13331741178E+02  0.66965822668E+02 -0.12897175364E+03  0.19221025049E+03  0.12509560515E+03 0.  0.
          5    1    3    3  502    0 -0.37997590918E+02  0.92063893062E+02 -0.11932266292E+03  0.15548294957E+03  0.41800000000E+01 0. -1.
         -5    1    3    3    0  502  0.24665849740E+02 -0.25098070394E+02 -0.96490907223E+01  0.36727300917E+02  0.41800000000E+01 0. -1.
        -11    1    1    2    0    0  0.25231538861E+02 -0.26241813315E+02 -0.22041358138E+02  0.42556841846E+02  0.00000000000E+00 0. -1.
         11    1    1    2    0    0 -0.11899797683E+02 -0.40724009353E+02 -0.21183347636E+03  0.21604044027E+03  0.00000000000E+00 0.  1.
</event>
<event>
 7    1  0.2556591E-009  0.1673031E+03  0.7561462E-02  0.1180690E+00
         -1   -1    0    0    0  501 -0.00000000000E+00  0.00000000000E+00  0.11400670305E+03  0.11400670305E+03  0.00000000000E+00 0.  1.
          1   -1    0    0  501    0  0.00000000000E+00 -0.00000000000E+00 -0.28446821856E+03  0.28446821856E+03  0.00000000000E+00 0. -1.
         25    2    1    2    0    0 -0.95775142404E+01  0.13576459735E+03 -0.39193358451E+02  0.18896105625E+03  0.12508559774E+03 0.  0.
          5    1    3    3  502    0 -0.61274151841E+02  0.39012820438E+02 -0.11169972785E+01  0.72768412964E+02  0.41800000000E+01 0. -1.
         -5    1    3    3    0  502  0.51696637601E+02  0.96751776910E+02 -0.38076361172E+02  0.11619264329E+03  0.41800000000E+01 0. -1.
        -11    1    1    2    0    0  0.18671270164E+02 -0.14055612743E+03 -0.92236525856E+02  0.16915146464E+03  0.00000000000E+00 0.  1.
         11    1    1    2    0    0 -0.90937559233E+01  0.47915300775E+01 -0.39031631209E+02  0.40362400722E+02  0.00000000000E+00 0. -1.
</event>
<event>
 7    1  0.2556591E-009  0.1033492E+03  0.7561462E-02  0.1273407E+00
         -2   -1    0    0    0  501 -0.00000000000E+00  0.00000000000E+00  0.21773176464E+03  0.21773176464E+03  0.00000000000E+00 0. -1.
          2   -1    0    0  501    0  0.00000000000E+00 -0.00000000000E+00 -0.83750250917E+02  0.83750250917E+02  0.00000000000E+00 0.  1.
         25    2    1    2    0    0  0.84715470730E+02 -0.13653219592E+02  0.76353966932E+02  0.16982540497E+03  0.12509044136E+03 0.  0.
          5    1    3    3  502    0  0.17783623923E+02 -0.21096278232E+02  0.95656977433E+02  0.99644568175E+02  0.41800000000E+01 0.  1.
         -5    1    3    3    0  502  0.66931846807E+02  0.74430586405E+01 -0.19303010501E+02  0.70180836796E+02  0.41800000000E+01 0.  1.
        -11    1    1    2    0    0 -0.21144979053E+02 -0.28170111561E+02  0.40470160675E+02  0.53651647035E+02  0.00000000000E+00 0. -1.
         11    1    1    2    0    0 -0.63570491677E+02  0.41823331153E+02  0.17157386117E+02  0.78004963555E+02  0.00000000000E+00 0.  1.
</event>
<event>
 7    1  0.2556591E-009  0.2481455E+03  0.7561462E-02  0.1114482E+00
         -1   -1    0    0    0  501 -0.00000000000E+00  0.00000000000E+00  0.72784293972E+03  0.72784293972E+03  0.00000000000E+00 0.  1.
          1   -1    0    0  501    0  0.00000000000E+00 -0.00000000000E+00 -0.90109245145E+02  0.90109245145E+02  0.00000000000E+00 0. -1.
         25    2    1    2    0    0  0.17356728762E+03 -0.15091180091E+03  0.37131500386E+03  0.45433665894E+03  0.12508793938E+03 0.  0.
          5    1    3    3  502    0  0.15085303571E+03 -0.51054214198E+02  0.22420607853E+03  0.27504364966E+03  0.41800000000E+01 0. -1.
         -5    1    3    3    0  502  0.22714251911E+02 -0.99857586708E+02  0.14710892534E+03  0.17929300928E+03  0.41800000000E+01 0. -1.
        -11    1    1    2    0    0 -0.15326264555E+03  0.14954541793E+03  0.26818810345E+03  0.34318818362E+03  0.00000000000E+00 0.  1.
         11    1    1    2    0    0 -0.20304642070E+02  0.13663829719E+01 -0.17694127403E+01  0.20427342300E+02  0.00000000000E+00 0. -1.
</event>
<event>
 7    1  0.2556591E-009  0.8721369E+02  0.7561462E-02  0.1309743E+00
         -2   -1    0    0    0  501 -0.00000000000E+00  0.00000000000E+00  0.15765832523E+03  0.15765832523E+03  0.00000000000E+00 0. -1.
          2   -1    0    0  501    0  0.00000000000E+00 -0.00000000000E+00 -0.80123466579E+02  0.80123466579E+02  0.00000000000E+00 0.  1.
         25    2    1    2    0    0 -0.10141629535E+02 -0.94186950055E+01  0.15070670180E+02  0.12675829515E+03  0.12509586654E+03 0.  0.
          5    1    3    3  502    0 -0.50630163637E+01 -0.64896362752E+02  0.25301634861E+02  0.69962969918E+02  0.41800000000E+01 0.  1.
         -5    1    3    3    0  502 -0.50786131711E+01  0.55477667746E+02 -0.10230964682E+02  0.56795325236E+02  0.41800000000E+01 0.  1.
        -11    1    1    2    0    0  0.17848389426E+02 -0.17702566839E+02  0.75781076347E+02  0.79841827447E+02  0.00000000000E+00 0. -1.
         11    1    1    2    0    0 -0.77067598915E+01  0.27121261845E+02 -0.13316887874E+02  0.31181669210E+02  0.00000000000E+00 0.  1.
</event>
<event>
 7    1  0.2556591E-009  0.1171398E+03  0.7561462E-02  0.1247891E+00
         -1   -1    0    0    0  501 -0.00000000000E+00  0.00000000000E+00  0.47184229145E+02  0.47184229145E+02  0.00000000000E+00 0.  1.
          1   -1    0    0  501    0  0.00000000000E+00 -0.00000000000E+00 -0.30874014790E+03  0.30874014790E+03  0.00000000000E+00 0. -1.
         25    2    1    2    0    0  0.44367323004E+02  0.33582108731E+02 -0.11950273204E+03  0.18173049939E+03  0.12509537988E+03 0.  0.
          5    1    3    3  502    0 -0.12243009631E+02 -0.39495184588E+02 -0.20938596271E+02  0.46536631853E+02  0.41800000000E+01 0.  1.
         -5    1    3    3    0  502  0.56610332635E+02  0.73077293319E+02 -0.98564135772E+02  0.13519386754E+03  0.41800000000E+01 0.  1.
        -11    1    1    2    0    0 -0.28860797875E+02  0.25861745105E+02 -0.45655159478E+02  0.59884631591E+02  0.00000000000E+00 0.  1.
         11    1    1    2    0    0 -0.15506525129E+02 -0.59443853835E+02 -0.96398027230E+02  0.11430924606E+03  0.00000000000E+00 0. -1.
</event>
<event>
 7    1  0.2556591E-009  0.1159858E+03  0.7561462E-02  0.1249870E+00
         -3   -1    0    0    0  501 -0.00000000000E+00  0.00000000000E+00  0.50391227299E+02  0.50391227299E+02  0.00000000000E+00 0.  1.
          3   -1    0    0  501    0  0.00000000000E+00 -0.00000000000E+00 -0.31445197964E+03  0.31445197964E+03  0.00000000000E+00 0. -1.
         25    2    1    2    0    0 -0.40859912821E+02  0.27711029609E+02 -0.19890862740E+03  0.24010675381E+03  0.12509667275E+03 0.  0.
          5    1    3    3  502    0 -0.43707296943E+02 -0.41364855754E+02 -0.61036515220E+02  0.85815544558E+02  0.41800000000E+01 0.  1.
         -5    1    3    3    0  502  0.28473841223E+01  0.69075885363E+02 -0.13787211218E+03  0.15429120925E+03  0.41800000000E+01 0.  1.
        -11    1    1    2    0    0 -0.28668340290E+02 -0.41003642653E+01 -0.41118171154E+01  0.29250534390E+02  0.00000000000E+00 0. -1.
         11    1    1    2    0    0  0.69528253111E+02 -0.23610665344E+02 -0.61040307831E+02  0.95485918746E+02  0.00000000000E+00 0.  1.
</event>
<event>
 7    1  0.2556591E-009  0.1166337E+03  0.7561462E-02  0.1248756E+00
         -1   -1    0    0    0  501 -0.00000000000E+00  0.00000000000E+00  0.16972395207E+03  0.16972395207E+03  0.00000000000E+00 0.  1.
          1   -1    0    0  501    0  0.00000000000E+00 -0.00000000000E+00 -0.10487552530E+03  0.10487552530E+03  0.00000000000E+00 0. -1.
         25    2    1    2    0    0 -0.26201851983E+02  0.70125694695E+02  0.15852950516E+02  0.14663489452E+03  0.12508527550E+03 0.  0.
          5    1    3    3  502    0  0.10051118646E+02 -0.30497948263E+02 -0.14348446484E+02  0.35418923626E+02  0.41800000000E+01 0.  1.
         -5    1    3    3    0  502 -0.36252970629E+02  0.10062364296E+03  0.30201397000E+02  0.11121597090E+03  0.41800000000E+01 0.  1.
        -11    1    1    2    0    0 -0.89924764334E+01 -0.54678746700E+02  0.65792866272E+02  0.86019365409E+02  0.00000000000E+00 0.  1.
         11    1    1    2    0    0  0.35194328416E+02 -0.15446947995E+02 -0.16797390015E+02  0.41945217443E+02  0.00000000000E+00 0. -1.
</event>
<event>
 7    1  0.2556591E-009  0.1007412E+03  0.7561462E-02  0.1278745E+00
         -2   -1    0    0    0  501 -0.00000000000E+00  0.00000000000E+00  0.20769521122E+03  0.20769521122E+03  0.00000000000E+00 0. -1.
          2   -1    0    0  501    0  0.00000000000E+00 -0.00000000000E+00 -0.76635109889E+02  0.76635109889E+02  0.00000000000E+00 0.  1.
         25    2    1    2    0    0  0.46542426702E+01 -0.43551252250E+02  0.12857005153E+03  0.18465267370E+03  0.12509187905E+03 0.  0.
          5    1    3    3  502    0  0.17583598557E+02 -0.83121787333E+02  0.10953891342E+03  0.13868907823E+03  0.41800000000E+01 0.  1.
         -5    1    3    3    0  502 -0.12929355887E+02  0.39570535082E+02  0.19031138115E+02  0.45963595467E+02  0.41800000000E+01 0.  1.
        -11    1    1    2    0    0 -0.32568610063E+02  0.25099423072E+02 -0.31638751693E+02  0.51881653874E+02  0.00000000000E+00 0.  1.
         11    1    1    2    0    0  0.27914367393E+02  0.18451829179E+02  0.34128801495E+02  0.47795993540E+02  0.00000000000E+00 0. -1.
</event>
<event>
 7    1  0.2556591E-009  0.1514763E+03  0.7561462E-02  0.1198671E+00
         -1   -1    0    0    0  501 -0.00000000000E+00  0.00000000000E+00  0.26133080297E+03  0.26133080297E+03  0.00000000000E+00 0.  1.
          1   -1    0    0  501    0  0.00000000000E+00 -0.00000000000E+00 -0.13251440706E+03  0.13251440706E+03  0.00000000000E+00 0. -1.
         25    2    1    2    0    0 -0.35461527550E+02  0.13159813682E+03 -0.23060941275E+01  0.18500175960E+03  0.12507894880E+03 0.  0.
          5    1    3    3  502    0  0.56668269678E+01  0.55571277384E+02  0.57135719307E+02  0.80014015140E+02  0.41800000000E+01 0.  1.
         -5    1    3    3    0  502 -0.41128354518E+02  0.76026859440E+02 -0.59441813435E+02  0.10498774446E+03  0.41800000000E+01 0.  1.
        -11    1    1    2    0    0  0.13027972790E+02  0.10380262772E+02  0.44232856792E+01  0.17234946662E+02  0.00000000000E+00 0. -1.
         11    1    1    2    0    0  0.22433554760E+02 -0.14197839960E+03  0.12669920436E+03  0.19160850377E+03  0.00000000000E+00 0.  1.
</event>
<event>
 7    1  0.2556591E-009  0.1166160E+03  0.7561462E-02  0.1248786E+00
          1   -1    0    0  501    0  0.00000000000E+00  0.00000000000E+00  0.18575397094E+03  0.18575397094E+03  0.00000000000E+00 0.  1.
         -1   -1    0    0    0  501 -0.00000000000E+00 -0.00000000000E+00 -0.11474834955E+03  0.11474834955E+03  0.00000000000E+00 0. -1.
         25    2    1    2    0    0  0.93294026338E+02 -0.29612083466E+02  0.22165186604E+02  0.16036928140E+03  0.12508541114E+03 0.  0.
          5    1    3    3  502    0 -0.55450991503E+01 -0.21136143777E+02 -0.38173233369E+02  0.44183173768E+02  0.41800000000E+01 0. -1.
         -5    1    3    3    0  502  0.98839125489E+02 -0.84759396886E+01  0.60338419972E+02  0.11618610763E+03  0.41800000000E+01 0. -1.
        -11    1    1    2    0    0 -0.11951548728E+02  0.27879825929E+02  0.50323447026E+02  0.58758603893E+02  0.00000000000E+00 0.  1.
         11    1    1    2    0    0 -0.81342477610E+02  0.17322575363E+01 -0.14830122442E+01  0.81374435207E+02  0.00000000000E+00 0. -1.
</event>
<event>
 7    1  0.2556591E-009  0.1210798E+03  0.7561462E-02  0.1241326E+00
         -2   -1    0    0    0  501 -0.00000000000E+00  0.00000000000E+00  0.33562065367E+02  0.33562065367E+02  0.00000000000E+00 0.  1.
          2   -1    0    0  501    0  0.00000000000E+00 -0.00000000000E+00 -0.51151383305E+03  0.51151383305E+03  0.00000000000E+00 0. -1.
         25    2    1    2    0    0  0.34971218083E+01  0.64876442775E+02 -0.29037420104E+03  0.32277943015E+03  0.12509277040E+03 0.  0.
          5    1    3    3  502    0  0.47163042120E+02 -0.77557086440E+01 -0.57264802233E+02  0.74707653780E+02  0.41800000000E+01 0. -1.
         -5    1    3    3    0  502 -0.43665920311E+02  0.72632151419E+02 -0.23310939881E+03  0.24807177637E+03  0.41800000000E+01 0. -1.
        -11    1    1    2    0    0  0.23330698640E+02  0.13177187373E+02 -0.92934668633E+02  0.96720279156E+02  0.00000000000E+00 0. -1.
         11    1    1    2    0    0 -0.26827820448E+02 -0.78053630148E+02 -0.94642898009E+02  0.12557618912E+03  0.00000000000E+00 0.  1.
</event>
<event>
 7    1  0.2556591E-009  0.1030480E+03  0.7561462E-02  0.1274014E+00
          1   -1    0    0  501    0  0.00000000000E+00  0.00000000000E+00  0.75380907717E+02  0.75380907717E+02  0.00000000000E+00 0. -1.
         -1   -1    0    0    0  501 -0.00000000000E+00 -0.00000000000E+00 -0.28610432485E+03  0.28610432485E+03  0.00000000000E+00 0.  1.
         25    2    1    2    0    0 -0.51607444015E+02 -0.31753227891E+02 -0.20904104422E+03  0.25103267200E+03  0.12509056114E+03 0.  0.
          5    1    3    3  502    0 -0.28172471525E+02  0.42977433657E+02 -0.42016476177E+02  0.66510184377E+02  0.41800000000E+01 0.  1.
         -5    1    3    3    0  502 -0.23434972490E+02 -0.74730661548E+02 -0.16702456804E+03  0.18452248763E+03  0.41800000000E+01 0.  1.
        -11    1    1    2    0    0  0.22948008950E+02  0.40148322890E+02  0.38649133619E+02  0.60268187919E+02  0.00000000000E+00 0. -1.
         11    1    1    2    0    0  0.28659435065E+02 -0.83950949985E+01 -0.40331506536E+02  0.50184372645E+02  0.00000000000E+00 0.  1.
</event>
<event>
 7    1  0.2556591E-009  0.8265891E+02  0.7561462E-02  0.1321671E+00
         -1   -1    0    0    0  501 -0.00000000000E+00  0.00000000000E+00  0.29698517736E+02  0.29698517736E+02  0.00000000000E+00 0.  1.
          1   -1    0    0  501    0  0.00000000000E+00 -0.00000000000E+00 -0.62384661756E+03  0.62384661756E+03  0.00000000000E+00 0. -1.
         25    2    1    2    0    0 -0.43638780962E+02 -0.37059644768E+02 -0.18854112868E+03  0.23339284958E+03  0.12508678811E+03 0.  0.
          5    1    3    3  502    0 -0.10392812113E+02 -0.23741051241E+02  0.12548422853E+02  0.29096105817E+02  0.41800000000E+01 0.  1.
         -5    1    3    3    0  502 -0.33245968849E+02 -0.13318593527E+02 -0.20108955153E+03  0.20429674377E+03  0.41800000000E+01 0.  1.
        -11    1    1    2    0    0 -0.21061692945E+02  0.31737344175E+02 -0.86598813133E+02  0.94605540858E+02  0.00000000000E+00 0.  1.
         11    1    1    2    0    0  0.64700473907E+02  0.53223005932E+01 -0.31900815802E+03  0.32554674486E+03  0.00000000000E+00 0. -1.
</event>
<event>
 7    1  0.2556591E-009  0.9345198E+02  0.7561462E-02  0.1294701E+00
         -2   -1    0    0    0  501 -0.00000000000E+00  0.00000000000E+00  0.31155441638E+02  0.31155441638E+02  0.00000000000E+00 0.  1.
          2   -1    0    0  501    0  0.00000000000E+00 -0.00000000000E+00 -0.62513046162E+03  0.62513046162E+03  0.00000000000E+00 0. -1.
         25    2    1    2    0    0  0.63537831774E+02 -0.24971625219E+02 -0.24389239252E+03  0.28247519796E+03  0.12509236667E+03 0.  0.
          5    1    3    3  502    0  0.33132321477E+02 -0.14015877356E+02  0.19950603029E+00  0.36217506087E+02  0.41800000000E+01 0. -1.
         -5    1    3    3    0  502  0.30405510296E+02 -0.10955747863E+02 -0.24409189855E+03  0.24625769187E+03  0.41800000000E+01 0. -1.
        -11    1    1    2    0    0 -0.24681066380E+02 -0.37283411680E+02 -0.21961025939E+03  0.22411575994E+03  0.00000000000E+00 0. -1.
         11    1    1    2    0    0 -0.38856765394E+02  0.62255036898E+02 -0.13047236806E+03  0.14969494535E+03  0.00000000000E+00 0.  1.
</event>
<event>
 7    1  0.2556591E-009  0.1038353E+03  0.7561462E-02  0.1272431E+00
          2   -1    0    0  501    0  0.00000000000E+00  0.00000000000E+00  0.53976383107E+02  0.53976383107E+02  0.00000000000E+00 0. -1.
         -2   -1    0    0    0  501 -0.00000000000E+00 -0.00000000000E+00 -0.30667658931E+03  0.30667658931E+03  0.00000000000E+00 0.  1.
         25    2    1    2    0    0 -0.26969945331E+02  0.10930761027E+02 -0.23332210505E+03  0.26633449806E+03  0.12509196883E+03 0.  0.
          5    1    3    3  502    0  0.49727843180E+02  0.21168153956E+01 -0.10953954915E+03  0.12038988547E+03  0.41800000000E+01 0. -1.
         -5    1    3    3    0  502 -0.76697788512E+02  0.88139456315E+01 -0.12378255590E+03  0.14594461259E+03  0.41800000000E+01 0. -1.
        -11    1    1    2    0    0  0.42500879347E+02  0.19101810817E+02 -0.33796054135E+02  0.57561942261E+02  0.00000000000E+00 0.  1.
         11    1    1    2    0    0 -0.15530934016E+02 -0.30032571844E+02  0.14417952986E+02  0.36756532090E+02  0.00000000000E+00 0. -1.
</event>
<event>
 7    1  0.2556591E-009  0.6702788E+02  0.7561462E-02  0.1370502E+00
         -1   -1    0    0    0  501 -0.00000000000E+00  0.00000000000E+00  0.22238646462E+03  0.22238646462E+03  0.00000000000E+00 0.  1.
          1   -1    0    0  501    0  0.00000000000E+00 -0.00000000000E+00 -0.76605201866E+02  0.76605201866E+02  0.00000000000E+00 0. -1.
         25    2    1    2    0    0  0.46266200915E+02 -0.32252577858E+02  0.27984328708E+02  0.14003211411E+03  0.12508029502E+03 0.  0.
          5    1    3    3  502    0 -0.67223743866E+01  0.55071973426E+01  0.64558195214E+02  0.65274439938E+02  0.41800000000E+01 0. -1.
         -5    1    3    3    0  502  0.52988575302E+02 -0.37759775200E+02 -0.36573866506E+02  0.74757674167E+02  0.41800000000E+01 0. -1.
        -11    1    1    2    0    0 -0.19280517031E+02  0.24418125658E+02  0.12592190353E+03  0.12970855402E+03  0.00000000000E+00 0.  1.
         11    1    1    2    0    0 -0.26985683884E+02  0.78344522001E+01 -0.81249694836E+01  0.29250998361E+02  0.00000000000E+00 0. -1.
</event>
<event>
 7    1  0.2556591E-009  0.1810348E+03  0.7561462E-02  0.1166805E+00
         -1   -1    0    0    0  501 -0.00000000000E+00  0.00000000000E+00  0.12467567458E+03  0.12467567458E+03  0.00000000000E+00 0.  1.
          1   -1    0    0  501    0  0.00000000000E+00 -0.00000000000E+00 -0.33897660858E+03  0.33897660858E+03  0.00000000000E+00 0. -1.
         25    2    1    2    0    0  0.13582749475E+03  0.10429072444E+03 -0.14637600965E+03  0.25767956427E+03  0.12508860103E+03 0.  0.
          5    1    3    3  502    0  0.13338711093E+03  0.11666419483E+03 -0.88167281380E+02  0.19797372963E+03  0.41800000000E+01 0.  1.
         -5    1    3    3    0  502  0.24403838175E+01 -0.12373470390E+02 -0.58208728275E+02  0.59705834640E+02  0.41800000000E+01 0.  1.
        -11    1    1    2    0    0 -0.74579329029E+02 -0.63361373461E+02 -0.85824981034E+02  0.13016400169E+03  0.00000000000E+00 0. -1.
         11    1    1    2    0    0 -0.61248165720E+02 -0.40929350980E+02  0.17900056687E+02  0.75808717210E+02  0.00000000000E+00 0.  1.
</event>
<event>
 7    1  0.2556591E-009  0.1113694E+03  0.7561462E-02  0.1258055E+00
         -2   -1    0    0    0  501 -0.00000000000E+00  0.00000000000E+00  0.57831812289E+02  0.57831812289E+02  0.00000000000E+00 0.  1.
          2   -1    0    0  501    0  0.00000000000E+00 -0.00000000000E+00 -0.29427220062E+03  0.29427220062E+03  0.00000000000E+00 0. -1.
         25    2    1    2    0    0 -0.37968037650E+02  0.10671646498E+02 -0.51022509422E+02  0.14073045179E+03  0.12508520165E+03 0.  0.
          5    1    3    3  502    0  0.30250100284E+02  0.37039216129E+02 -0.47280922519E+02  0.67379003651E+02  0.41800000000E+01 0. -1.
         -5    1    3    3    0  502 -0.68218137934E+02 -0.26367569631E+02 -0.37415869026E+01  0.73351448139E+02  0.41800000000E+01 0. -1.
        -11    1    1    2    0    0 -0.13251529008E+02 -0.40219816073E+02 -0.78489936948E+02  0.89184678214E+02  0.00000000000E+00 0. -1.
         11    1    1    2    0    0  0.51219566658E+02  0.29548169574E+02 -0.10692794196E+03  0.12218888291E+03  0.00000000000E+00 0.  1.
</event>
<event>
 7    1  0.3646764E-009  0.9367055E+02  0.7561462E-02  0.1294199E+00
         -2   -1    0    0    0  501 -0.00000000000E+00  0.00000000000E+00  0.36900226758E+02  0.36900226758E+02  0.00000000000E+00 0.  1.
          2   -1    0    0  501    0  0.00000000000E+00 -0.00000000000E+00 -0.42540930680E+03  0.42540930680E+03  0.00000000000E+00 0. -1.
         25    2    1    2    0    0  0.20634829272E+02  0.45740327006E+02 -0.28527797900E+03  0.31551402085E+03  0.12509036077E+03 0.  0.
          5    1    3    3  502    0 -0.42801895672E+02  0.45574948196E+00 -0.42367884287E+02  0.60371516460E+02  0.41800000000E+01 0. -1.
         -5    1    3    3    0  502  0.63436724944E+02  0.45284577524E+02 -0.24291009471E+03  0.25514250439E+03  0.41800000000E+01 0. -1.
        -11    1    1    2    0    0 -0.33422482586E+02 -0.24327033791E+02 -0.11275811573E+03  0.12009687580E+03  0.00000000000E+00 0. -1.
         11    1    1    2    0    0  0.12787653314E+02 -0.21413293215E+02  0.95270146878E+01  0.26698636903E+02  0.00000000000E+00 0.  1.
</event>
<event>
 7    1  0.2743620E-009  0.2363757E+03  0.7561462E-02  0.1122231E+00
         -1   -1    0    0    0  501 -0.00000000000E+00  0.00000000000E+00  0.17038614975E+03  0.17038614975E+03  0.00000000000E+00 0.  1.
          1   -1    0    0  501    0  0.00000000000E+00 -0.00000000000E+00 -0.37407158243E+03  0.37407158243E+03  0.00000000000E+00 0. -1.
         25    2    1    2    0    0  0.15435917926E+03 -0.14643091262E+03 -0.17916412781E+02  0.24746081416E+03  0.12508832201E+03 0.  0.
          5    1    3    3  502    0  0.33108989950E+02  0.17028103990E+02 -0.22766378105E+02  0.43839957950E+02  0.41800000000E+01 0. -1.
         -5    1    3    3    0  502  0.12125018931E+03 -0.16345901661E+03  0.48499653241E+01  0.20362085621E+03  0.41800000000E+01 0. -1.
        -11    1    1    2    0    0 -0.12406869062E+03  0.55567938036E+02 -0.10974073064E+03  0.17471080015E+03  0.00000000000E+00 0.  1.
         11    1    1    2    0    0 -0.30290488649E+02  0.90862974586E+02 -0.76028289261E+02  0.12228611786E+03  0.00000000000E+00 0. -1.
</event>
<event>
 7    1  0.2556591E-009  0.7952382E+02  0.7561462E-02  0.1330408E+00
          2   -1    0    0  501    0  0.00000000000E+00  0.00000000000E+00  0.83917702554E+02  0.83917702554E+02  0.00000000000E+00 0. -1.
         -2   -1    0    0    0  501 -0.00000000000E+00 -0.00000000000E+00 -0.17255033361E+03  0.17255033361E+03  0.00000000000E+00 0.  1.
         25    2    1    2    0    0  0.98553314163E+00  0.36775338708E+02 -0.12173797070E+02  0.13095337122E+03  0.12508871766E+03 0.  0.
          5    1    3    3  502    0  0.31670072195E+02  0.59138035017E+02 -0.44751714046E+02  0.80749544696E+02  0.41800000000E+01 0. -1.
         -5    1    3    3    0  502 -0.30684539053E+02 -0.22362696309E+02  0.32577916976E+02  0.50203826524E+02  0.41800000000E+01 0. -1.
        -11    1    1    2    0    0  0.17180848585E+02 -0.29351738644E+02 -0.93518947915E+02  0.99511304577E+02  0.00000000000E+00 0.  1.
         11    1    1    2    0    0 -0.18166381727E+02 -0.74236000641E+01  0.17060113931E+02  0.26003360366E+02  0.00000000000E+00 0. -1.
</event>
<event>
 7    1  0.2556591E-009  0.1129284E+03  0.7561462E-02  0.1255241E+00
         -1   -1    0    0    0  501 -0.00000000000E+00  0.00000000000E+00  0.75901288679E+03  0.75901288679E+03  0.00000000000E+00 0.  1.
          1   -1    0    0  501    0  0.00000000000E+00 -0.00000000000E+00 -0.21048516358E+02  0.21048516358E+02  0.00000000000E+00 0. -1.
         25    2    1    2    0    0 -0.33738146121E+01 -0.63438005997E+02  0.32582957712E+03  0.35475188329E+03  0.12509285406E+03 0.  0.
          5    1    3    3  502    0 -0.56121154389E+02 -0.21849938134E+02  0.22905120972E+03  0.23687324213E+03  0.41800000000E+01 0. -1.
         -5    1    3    3    0  502  0.52747339777E+02 -0.41588067863E+02  0.96778367410E+02  0.11787864116E+03  0.41800000000E+01 0. -1.
        -11    1    1    2    0    0  0.37861738287E+02  0.20309304746E+02  0.10856010950E+03  0.11675305760E+03  0.00000000000E+00 0. -1.
         11    1    1    2    0    0 -0.34487923675E+02  0.43128701251E+02  0.30357468381E+03  0.30855646226E+03  0.00000000000E+00 0.  1.
</event>
<event>
 7    1  0.2556591E-009  0.1197686E+03  0.7561462E-02  0.1243479E+00
         -2   -1    0    0    0  501 -0.00000000000E+00  0.00000000000E+00  0.95668659126E+02  0.95668659126E+02  0.00000000000E+00 0.  1.
          2   -1    0    0  501    0  0.00000000000E+00 -0.00000000000E+00 -0.18457528773E+03  0.18457528773E+03  0.00000000000E+00 0. -1.
         25    2    1    2    0    0 -0.46954975235E+02 -0.34488372521E+02  0.47771376009E+01  0.13807176004E+03  0.12508705903E+03 0.  0.
          5    1    3    3  502    0 -0.44746830103E+01 -0.76190563747E+02 -0.85913838568E+01  0.76917547209E+02  0.41800000000E+01 0.  1.
         -5    1    3    3    0  502 -0.42480292225E+02  0.41702191226E+02  0.13368521458E+02  0.61154212827E+02  0.41800000000E+01 0.  1.
        -11    1    1    2    0    0 -0.22505494532E+02 -0.56477590473E+01 -0.37978358085E+02  0.44505619299E+02  0.00000000000E+00 0. -1.
         11    1    1    2    0    0  0.69460469767E+02  0.40136131568E+02 -0.55705408119E+02  0.97666567521E+02  0.00000000000E+00 0.  1.
</event>
<event>
 7    1  0.2556591E-009  0.7696226E+02  0.7561462E-02  0.1337900E+00
          2   -1    0    0  501    0  0.00000000000E+00  0.00000000000E+00  0.11453804857E+04  0.11453804857E+04  0.00000000000E+00 0. -1.
         -2   -1    0    0    0  501 -0.00000000000E+00 -0.00000000000E+00 -0.32738696183E+02  0.32738696183E+02  0.00000000000E+00 0.  1.
         25    2    1    2    0    0 -0.92205640890E+01  0.73627422693E+02  0.10107393662E+04  0.10211500131E+04  0.12508903527E+03 0.  0.
          5    1    3    3  502    0  0.28884782796E+01  0.13350736378E+02  0.83132814084E+03  0.83145086182E+03  0.41800000000E+01 0.  1.
         -5    1    3    3    0  502 -0.12109042369E+02  0.60276686316E+02  0.17941122534E+03  0.18969915129E+03  0.41800000000E+01 0.  1.
        -11    1    1    2    0    0 -0.69133273820E+01 -0.41433664004E+02 -0.67134103457E+01  0.42539540274E+02  0.00000000000E+00 0.  1.
         11    1    1    2    0    0  0.16133891471E+02 -0.32193758689E+02  0.10861583364E+03  0.11442962846E+03  0.00000000000E+00 0. -1.
</event>
<event>
 7    1  0.2556591E-009  0.8076911E+02  0.7561462E-02  0.1326883E+00
          1   -1    0    0  501    0  0.00000000000E+00  0.00000000000E+00  0.74560691134E+03  0.74560691134E+03  0.00000000000E+00 0. -1.
         -1   -1    0    0    0  501 -0.00000000000E+00 -0.00000000000E+00 -0.32788544988E+02  0.32788544988E+02  0.00000000000E+00 0.  1.
         25    2    1    2    0    0  0.35746290085E+02  0.57472157691E+02  0.60402571789E+03  0.62054446728E+03  0.12509005488E+03 0.  0.
          5    1    3    3  502    0  0.62973702110E+01  0.12391709262E+02  0.52280195180E+03  0.52300340777E+03  0.41800000000E+01 0.  1.
         -5    1    3    3    0  502  0.29448919874E+02  0.45080448429E+02  0.81223766090E+02  0.97541059509E+02  0.41800000000E+01 0.  1.
        -11    1    1    2    0    0 -0.53685156329E+02 -0.50694537827E+02  0.35196427486E+02  0.81797436899E+02  0.00000000000E+00 0.  1.
         11    1    1    2    0    0  0.17938866244E+02 -0.67776198641E+01  0.73596220971E+02  0.76053552148E+02  0.00000000000E+00 0. -1.
</event>
<event>
 7    1  0.2556591E-009  0.1226545E+03  0.7561462E-02  0.1238781E+00
          2   -1    0    0  501    0  0.00000000000E+00  0.00000000000E+00  0.16909017563E+03  0.16909017563E+03  0.00000000000E+00 0. -1.
         -2   -1    0    0    0  501 -0.00000000000E+00 -0.00000000000E+00 -0.12436312751E+03  0.12436312751E+03  0.00000000000E+00 0.  1.
         25    2    1    2    0    0 -0.41228842604E+02 -0.83610133838E+02  0.40459710852E+00  0.15599986539E+03  0.12508126303E+03 0.  0.
          5    1    3    3  502    0  0.27667740935E+02  0.12649897297E+02  0.18983912042E+02  0.36102425217E+02  0.41800000000E+01 0. -1.
         -5    1    3    3    0  502 -0.68896583539E+02 -0.96260031135E+02 -0.18579314934E+02  0.11989744018E+03  0.41800000000E+01 0. -1.
        -11    1    1    2    0    0  0.35094928772E+02  0.45049383378E+02  0.70288210801E+02  0.90562318576E+02  0.00000000000E+00 0. -1.
         11    1    1    2    0    0  0.61339138322E+01  0.38560750459E+02 -0.25965759792E+02  0.46891119164E+02  0.00000000000E+00 0.  1.
</event>
<event>
 7    1  0.2556591E-009  0.1150110E+03  0.7561462E-02  0.1251562E+00
          2   -1    0    0  501    0  0.00000000000E+00  0.00000000000E+00  0.24611745691E+03  0.24611745691E+03  0.00000000000E+00 0. -1.
         -2   -1    0    0    0  501 -0.00000000000E+00 -0.00000000000E+00 -0.59119754031E+02  0.59119754031E+02  0.00000000000E+00 0.  1.
         25    2    1    2    0    0  0.78692355671E+01  0.35134106937E+02  0.69846900997E+02  0.14772602587E+03  0.12509220120E+03 0.  0.
          5    1    3    3  502    0 -0.49217210097E+02  0.49428959521E+02  0.27458508725E+02  0.75079943464E+02  0.41800000000E+01 0.  1.
         -5    1    3    3    0  502  0.57086445664E+02 -0.14294852584E+02  0.42388392272E+02  0.72646082402E+02  0.41800000000E+01 0.  1.
        -11    1    1    2    0    0 -0.32939733591E+02  0.21414771962E+02  0.67876555625E+02  0.78427325026E+02  0.00000000000E+00 0. -1.
         11    1    1    2    0    0  0.25070498024E+02 -0.56548878899E+02  0.49274246257E+02  0.79083860048E+02  0.00000000000E+00 0.  1.
</event>
<event>
 7    1  0.2556591E-009  0.1244172E+03  0.7561462E-02  0.1235983E+00
          1   -1    0    0  501    0  0.00000000000E+00  0.00000000000E+00  0.20100336862E+03  0.20100336862E+03  0.00000000000E+00 0. -1.
         -1   -1    0    0    0  501 -0.00000000000E+00 -0.00000000000E+00 -0.13228655520E+03  0.13228655520E+03  0.00000000000E+00 0.  1.
         25    2    1    2    0    0 -0.82120545339E+02  0.83879369781E+02  0.68767822453E+02  0.18481442151E+03  0.12509126409E+03 0.  0.
          5    1    3    3  502    0 -0.60855411529E+02  0.88895297104E+02  0.99612449049E+02  0.14678510607E+03  0.41800000000E+01 0.  1.
         -5    1    3    3    0  502 -0.21265133810E+02 -0.50159273238E+01 -0.30844626597E+02  0.38029315439E+02  0.41800000000E+01 0.  1.
        -11    1    1    2    0    0  0.25555348995E+02 -0.38741477281E+02  0.43836057966E+02  0.63840252993E+02  0.00000000000E+00 0. -1.
         11    1    1    2    0    0  0.56565196343E+02 -0.45137892499E+02 -0.43887066993E+02  0.84635249311E+02  0.00000000000E+00 0.  1.
</event>
<event>
 7    1  0.2556591E-009  0.9195620E+02  0.7561462E-02  0.1298182E+00
         -2   -1    0    0    0  501 -0.00000000000E+00  0.00000000000E+00  0.10671021216E+03  0.10671021216E+03  0.00000000000E+00 0. -1.
          2   -1    0    0  501    0  0.00000000000E+00 -0.00000000000E+00 -0.19354293557E+03  0.19354293557E+03  0.00000000000E+00 0.  1.
         25    2    1    2    0    0 -0.69354473085E+02  0.37639854904E+02  0.61333789996E+01  0.14803390910E+03  0.12509843441E+03 0.  0.
          5    1    3    3  502    0 -0.75869145110E+02  0.22116882863E+02 -0.47067546671E+02  0.92076653050E+02  0.41800000000E+01 0. -1.
         -5    1    3    3    0  502  0.65146720254E+01  0.15522972041E+02  0.53200925671E+02  0.55957256051E+02  0.41800000000E+01 0. -1.
        -11    1    1    2    0    0  0.63622501803E+02 -0.16782979361E+02 -0.10758574710E+03  0.12611179212E+03  0.00000000000E+00 0.  1.
         11    1    1    2    0    0  0.57319712821E+01 -0.20856875543E+02  0.14619644691E+02  0.26107446507E+02  0.00000000000E+00 0. -1.
</event>
<event>
 7    1  0.2556591E-009  0.1256217E+03  0.7561462E-02  0.1234101E+00
          2   -1    0    0  501    0  0.00000000000E+00  0.00000000000E+00  0.19655613596E+03  0.19655613596E+03  0.00000000000E+00 0. -1.
         -2   -1    0    0    0  501 -0.00000000000E+00 -0.00000000000E+00 -0.85289585428E+02  0.85289585428E+02  0.00000000000E+00 0.  1.
         25    2    1    2    0    0 -0.45840479904E+02 -0.53139485135E+02  0.79545989486E+02  0.16401386551E+03  0.12509128330E+03 0.  0.
          5    1    3    3  502    0 -0.10130838056E+02 -0.88036427324E+02  0.30267323086E+02  0.93737023969E+02  0.41800000000E+01 0.  1.
         -5    1    3    3    0  502 -0.35709641848E+02  0.34896942189E+02  0.49278666400E+02  0.70276841543E+02  0.41800000000E+01 0.  1.
        -11    1    1    2    0    0  0.55465173408E+02 -0.29212859765E+01  0.23704083009E+02  0.60388764884E+02  0.00000000000E+00 0. -1.
         11    1    1    2    0    0 -0.96246935036E+01  0.56060771112E+02  0.80164780366E+01  0.57443090993E+02  0.00000000000E+00 0.  1.
</event>
<event>
 7    1  0.2556591E-009  0.9614615E+02  0.7561462E-02  0.1288615E+00
         -1   -1    0    0    0  501 -0.00000000000E+00  0.00000000000E+00  0.36844794800E+03  0.36844794800E+03  0.00000000000E+00 0.  1.
          1   -1    0    0  501    0  0.00000000000E+00 -0.00000000000E+00 -0.56778707482E+02  0.56778707482E+02  0.00000000000E+00 0. -1.
         25    2    1    2    0    0 -0.43071923385E+01 -0.26502946988E+02  0.31203084053E+03  0.33723973200E+03  0.12508570380E+03 0.  0.
          5    1    3    3  502    0 -0.35124022127E+02 -0.54802400348E+02  0.27007645300E+03  0.27784125482E+03  0.41800000000E+01 0.  1.
         -5    1    3    3    0  502  0.30816829789E+02  0.28299453360E+02  0.41954387528E+02  0.59398477182E+02  0.41800000000E+01 0.  1.
        -11    1    1    2    0    0  0.21218799658E+02 -0.23837319580E+02  0.10857660329E+02  0.33709702631E+02  0.00000000000E+00 0.  1.
         11    1    1    2    0    0 -0.16911607319E+02  0.50340266569E+02 -0.11219260342E+02  0.54277220847E+02  0.00000000000E+00 0. -1.
</event>
<event>
 7    1  0.2556591E-009  0.9906729E+02  0.7561462E-02  0.1282270E+00
          2   -1    0    0  501    0  0.00000000000E+00  0.00000000000E+00  0.23058701186E+03  0.23058701186E+03  0.00000000000E+00 0. -1.
         -2   -1    0    0    0  501 -0.00000000000E+00 -0.00000000000E+00 -0.73344929468E+02  0.73344929468E+02  0.00000000000E+00 0.  1.
         25    2    1    2    0    0  0.57772628854E+02  0.29466009205E+02  0.13518003060E+03  0.19526136999E+03  0.12508972617E+03 0.  0.
          5    1    3    3  502    0  0.55878209273E+02  0.64516004701E+02  0.13516564315E+03  0.15991220286E+03  0.41800000000E+01 0. -1.
         -5    1    3    3    0  502  0.18944195810E+01 -0.35049995495E+02  0.14387449319E-01  0.35349167130E+02  0.41800000000E+01 0. -1.
        -11    1    1    2    0    0 -0.34291757216E+02 -0.39051577619E+02 -0.23100927497E+02  0.56873571883E+02  0.00000000000E+00 0.  1.
         11    1    1    2    0    0 -0.23480871638E+02  0.95855684139E+01  0.45162979289E+02  0.51796999459E+02  0.00000000000E+00 0. -1.
</event>
<event>
 7    1  0.2556591E-009  0.1223102E+03  0.7561462E-02  0.1239334E+00
          2   -1    0    0  501    0  0.00000000000E+00  0.00000000000E+00  0.38540348092E+03  0.38540348092E+03  0.00000000000E+00 0.  1.
         -2   -1    0    0    0  501 -0.00000000000E+00 -0.00000000000E+00 -0.55743255641E+02  0.55743255641E+02  0.00000000000E+00 0. -1.
         25    2    1    2    0    0  0.42086827689E+02 -0.63426803940E+02  0.85608358893E+02  0.16962061823E+03  0.12509237584E+03 0.  0.
          5    1    3    3  502    0 -0.35199459620E+02 -0.88138344433E+01  0.62058923449E+02  0.72010193826E+02  0.41800000000E+01 0.  1.
         -5    1    3    3    0  502  0.77286287309E+02 -0.54612969497E+02  0.23549435444E+02  0.97610424407E+02  0.41800000000E+01 0.  1.
        -11    1    1    2    0    0  0.23750515567E+02  0.33456014025E+02  0.51571873367E+02  0.65901820815E+02  0.00000000000E+00 0. -1.
         11    1    1    2    0    0 -0.65837343256E+02  0.29970789914E+02  0.19247999301E+03  0.20562429751E+03  0.00000000000E+00 0.  1.
</event>
<event>
 7    1  0.2556591E-009  0.7542685E+02  0.7561462E-02  0.1342554E+00
         -1   -1    0    0    0  501 -0.00000000000E+00  0.00000000000E+00  0.94435487809E+02  0.94435487809E+02  0.00000000000E+00 0.  1.
          1   -1    0    0  501    0  0.00000000000E+00 -0.00000000000E+00 -0.14536266524E+03  0.14536266524E+03  0.00000000000E+00 0. -1.
         25    2    1    2    0    0  0.39092156669E+02  0.12738818324E+02 -0.49391697506E+02  0.14063214952E+03  0.12508951791E+03 0.  0.
          5    1    3    3  502    0  0.19659042036E+02 -0.93523430367E+01 -0.88658371615E+02  0.91387764561E+02  0.41800000000E+01 0.  1.
         -5    1    3    3    0  502  0.19433114632E+02  0.22091161360E+02  0.39266674108E+02  0.49244384960E+02  0.41800000000E+01 0.  1.
        -11    1    1    2    0    0 -0.27640879583E+02 -0.51555408002E+02  0.20776452276E+01  0.58534561826E+02  0.00000000000E+00 0. -1.
         11    1    1    2    0    0 -0.11451277085E+02  0.38816589679E+02 -0.36131251482E+01  0.40631441699E+02  0.00000000000E+00 0.  1.
</event>
<event>
 7    1  0.2556591E-009  0.1205390E+03  0.7561462E-02  0.1242210E+00
         -1   -1    0    0    0  501 -0.00000000000E+00  0.00000000000E+00  0.44792311175E+02  0.44792311175E+02  0.00000000000E+00 0.  1.
          1   -1    0    0  501    0  0.00000000000E+00 -0.00000000000E+00 -0.40940547671E+03  0.40940547671E+03  0.00000000000E+00 0. -1.
         25    2    1    2    0    0  0.61067096659E+02  0.46250401527E+02 -0.16356901606E+03  0.21970733260E+03  0.12509276178E+03 0.  0.
          5    1    3    3  502    0  0.30916856363E+02 -0.31036808980E+02 -0.10024377101E+02  0.45134200506E+02  0.41800000000E+01 0. -1.
         -5    1    3    3    0  502  0.30150240296E+02  0.77287210507E+02 -0.15354463896E+03  0.17457313210E+03  0.41800000000E+01 0. -1.
        -11    1    1    2    0    0 -0.78694333823E+02 -0.18031113062E+02 -0.17324697262E+03  0.19113459325E+03  0.00000000000E+00 0. -1.
         11    1    1    2    0    0  0.17627237164E+02 -0.28219288465E+02 -0.27797176859E+02  0.43355862035E+02  0.00000000000E+00 0.  1.
</event>
<event>
 7    1  0.2556591E-009  0.1003538E+03  0.7561462E-02  0.1279554E+00
         -1   -1    0    0    0  501 -0.00000000000E+00  0.00000000000E+00  0.31284150405E+03  0.31284150405E+03  0.00000000000E+00 0.  1.
          1   -1    0    0  501    0  0.00000000000E+00 -0.00000000000E+00 -0.52037028424E+02  0.52037028424E+02  0.00000000000E+00 0. -1.
         25    2    1    2    0    0  0.21886474317E+02 -0.43286461941E+02  0.20506352619E+03  0.24505272495E+03  0.12508817963E+03 0.  0.
          5    1    3    3  502    0  0.51637153421E+02 -0.38724006740E+02  0.20468708706E+03  0.21466303901E+03  0.41800000000E+01 0. -1.
         -5    1    3    3    0  502 -0.29750679105E+02 -0.45624552008E+01  0.37643913768E+00  0.30389685933E+02  0.41800000000E+01 0. -1.
        -11    1    1    2    0    0 -0.12803775103E+02 -0.29568724532E+02  0.22059059698E+02  0.39049305270E+02  0.00000000000E+00 0.  1.
         11    1    1    2    0    0 -0.90826992134E+01  0.72855186473E+02  0.33681889739E+02  0.80776502260E+02  0.00000000000E+00 0. -1.
</event>
<event>
 7    1  0.2556591E-009  0.9883620E+02  0.7561462E-02  0.1282762E+00
         -1   -1    0    0    0  501 -0.00000000000E+00  0.00000000000E+00  0.16613984072E+03  0.16613984072E+03  0.00000000000E+00 0.  1.
          1   -1    0    0  501    0  0.00000000000E+00 -0.00000000000E+00 -0.93525780042E+02  0.93525780042E+02  0.00000000000E+00 0. -1.
         25    2    1    2    0    0 -0.24991539824E+02  0.55960287926E+02  0.47181103325E+02  0.14707018038E+03  0.12508977000E+03 0.  0.
          5    1    3    3  502    0 -0.25309637556E+02 -0.31106016669E+02 -0.11576865165E+02  0.41948280457E+02  0.41800000000E+01 0.  1.
         -5    1    3    3    0  502  0.31809773197E+00  0.87066304595E+02  0.58757968489E+02  0.10512189992E+03  0.41800000000E+01 0.  1.
        -11    1    1    2    0    0  0.29107657876E+02 -0.23346969391E+02 -0.30181648112E+02  0.47992380745E+02  0.00000000000E+00 0. -1.
         11    1    1    2    0    0 -0.41161180516E+01 -0.32613318534E+02  0.55614605464E+02  0.64603059638E+02  0.00000000000E+00 0.  1.
</event>
<event>
 7    1  0.2556591E-009  0.9051282E+02  0.7561462E-02  0.1301615E+00
          2   -1    0    0  501    0  0.00000000000E+00  0.00000000000E+00  0.47251218293E+03  0.47251218293E+03  0.00000000000E+00 0. -1.
         -2   -1    0    0    0  501 -0.00000000000E+00 -0.00000000000E+00 -0.47483103970E+02  0.47483103970E+02  0.00000000000E+00 0.  1.
         25    2    1    2    0    0 -0.32331524456E+02 -0.17731276118E+02  0.42228630667E+03  0.44196931809E+03  0.12510566616E+03 0.  0.
          5    1    3    3  502    0 -0.38731303933E+02  0.35409144513E+02  0.33773406193E+03  0.34181236141E+03  0.41800000000E+01 0. -1.
         -5    1    3    3    0  502  0.63997794770E+01 -0.53140420632E+02  0.84552244736E+02  0.10015695668E+03  0.41800000000E+01 0. -1.
        -11    1    1    2    0    0  0.52424247638E+02  0.13953744506E+02 -0.81535537877E+01  0.54858811193E+02  0.00000000000E+00 0. -1.
         11    1    1    2    0    0 -0.20092723182E+02  0.37775316124E+01  0.10896326074E+02  0.23167157613E+02  0.00000000000E+00 0.  1.
</event>
<event>
 7    1  0.2556591E-009  0.1082372E+03  0.7561462E-02  0.1263870E+00
          1   -1    0    0  501    0  0.00000000000E+00  0.00000000000E+00  0.29599834433E+02  0.29599834433E+02  0.00000000000E+00 0. -1.
         -1   -1    0    0    0  501 -0.00000000000E+00 -0.00000000000E+00 -0.47671995684E+03  0.47671995684E+03  0.00000000000E+00 0.  1.
         25    2    1    2    0    0  0.21801364103E+02  0.15316851465E+02 -0.16529561160E+03  0.20899777267E+03  0.12509006495E+03 0.  0.
          5    1    3    3  502    0  0.71628910309E+02 -0.78937641590E+01 -0.10351756248E+03  0.12619972443E+03  0.41800000000E+01 0.  1.
         -5    1    3    3    0  502 -0.49827546206E+02  0.23210615624E+02 -0.61778049118E+02  0.82798048235E+02  0.41800000000E+01 0.  1.
        -11    1    1    2    0    0 -0.54407414773E+02 -0.36372521250E+01 -0.21788351085E+03  0.22460325173E+03  0.00000000000E+00 0. -1.
         11    1    1    2    0    0  0.32606050670E+02 -0.11679599340E+02 -0.63940999946E+02  0.72718766871E+02  0.00000000000E+00 0.  1.
</event>
<event>
 7    1  0.2556591E-009  0.1035898E+03  0.7561462E-02  0.1272923E+00
          1   -1    0    0  501    0  0.00000000000E+00  0.00000000000E+00  0.30900433246E+03  0.30900433246E+03  0.00000000000E+00 0. -1.
         -1   -1    0    0    0  501 -0.00000000000E+00 -0.00000000000E+00 -0.44594187084E+02  0.44594187084E+02  0.00000000000E+00 0.  1.
         25    2    1    2    0    0 -0.27242876816E+02 -0.46336722843E+02  0.15880561201E+03  0.20917908295E+03  0.12508956838E+03 0.  0.
          5    1    3    3  502    0 -0.61970626852E+02 -0.43751281346E+02  0.15657580417E+03  0.17403444505E+03  0.41800000000E+01 0. -1.
         -5    1    3    3    0  502  0.34727750035E+02 -0.25854414977E+01  0.22298078374E+01  0.35144637902E+02  0.41800000000E+01 0. -1.
        -11    1    1    2    0    0 -0.24422306690E+02 -0.31080543439E+01  0.42149776874E+02  0.48813038795E+02  0.00000000000E+00 0. -1.
         11    1    1    2    0    0  0.51665183506E+02  0.49444777187E+02  0.63454756486E+02  0.95606397791E+02  0.00000000000E+00 0.  1.
</event>
<event>
 7    1  0.2556591E-009  0.6278362E+02  0.7561462E-02  0.1386508E+00
         -2   -1    0    0    0  501 -0.00000000000E+00  0.00000000000E+00  0.54664151675E+02  0.54664151675E+02  0.00000000000E+00 0.  1.
          2   -1    0    0  501    0  0.00000000000E+00 -0.00000000000E+00 -0.23340048647E+03  0.23340048647E+03  0.00000000000E+00 0. -1.
         25    2    1    2    0    0 -0.20072932421E+02  0.33447213150E+01 -0.66521324089E+02  0.14313722610E+03  0.12509623960E+03 0.  0.
          5    1    3    3  502    0  0.30890257154E+02 -0.35877967582E+01 -0.83189129147E+02  0.88909976273E+02  0.41800000000E+01 0.  1.
         -5    1    3    3    0  502 -0.50963189576E+02  0.69325180733E+01  0.16667805058E+02  0.54227249829E+02  0.41800000000E+01 0.  1.
        -11    1    1    2    0    0 -0.23356399295E+01 -0.16458774909E+02  0.10389902090E+02  0.19603483130E+02  0.00000000000E+00 0.  1.
         11    1    1    2    0    0  0.22408572351E+02  0.13114053594E+02 -0.12260491279E+03  0.12532392891E+03  0.00000000000E+00 0. -1.
</event>
<event>
 7    1  0.2556591E-009  0.1143979E+03  0.7561462E-02  0.1252636E+00
          2   -1    0    0  501    0  0.00000000000E+00  0.00000000000E+00  0.86780882069E+03  0.86780882069E+03  0.00000000000E+00 0. -1.
         -2   -1    0    0    0  501 -0.00000000000E+00 -0.00000000000E+00 -0.16478330703E+02  0.16478330703E+02  0.00000000000E+00 0.  1.
         25    2    1    2    0    0 -0.52351216363E+02 -0.14407523928E+02  0.57865230203E+03  0.59450376334E+03  0.12509201167E+03 0.  0.
          5    1    3    3  502    0  0.30388563904E+02 -0.38797061705E+02  0.18570393945E+03  0.19217726801E+03  0.41800000000E+01 0. -1.
         -5    1    3    3    0  502 -0.82739780268E+02  0.24389537776E+02  0.39294836258E+03  0.40232649533E+03  0.41800000000E+01 0. -1.
        -11    1    1    2    0    0  0.55724647432E+02 -0.19396997916E+02  0.21394933887E+03  0.22193647619E+03  0.00000000000E+00 0.  1.
         11    1    1    2    0    0 -0.33734310688E+01  0.33804521844E+02  0.58728849090E+02  0.67846911866E+02  0.00000000000E+00 0. -1.
</event>
<event>
 7    1  0.2556591E-009  0.8727602E+02  0.7561462E-02  0.1309586E+00
         -2   -1    0    0    0  501 -0.00000000000E+00  0.00000000000E+00  0.25166315998E+02  0.25166315998E+02  0.00000000000E+00 0.  1.
          2   -1    0    0  501    0  0.00000000000E+00 -0.00000000000E+00 -0.52754863785E+03  0.52754863785E+03  0.00000000000E+00 0. -1.
         25    2    1    2    0    0 -0.27531437909E+02 -0.14649258668E+02 -0.22790523364E+03  0.26184167504E+03  0.12509071274E+03 0.  0.
          5    1    3    3  502    0 -0.61964904558E+02 -0.31620320578E+02 -0.68111063726E+02  0.97447850013E+02  0.41800000000E+01 0.  1.
         -5    1    3    3    0  502  0.34433466649E+02  0.16971061910E+02 -0.15979416991E+03  0.16439382502E+03  0.41800000000E+01 0.  1.
        -11    1    1    2    0    0  0.43163711399E+02  0.22582874023E+02 -0.26767164718E+03  0.27206837906E+03  0.00000000000E+00 0. -1.
         11    1    1    2    0    0 -0.15632273490E+02 -0.79336153551E+01 -0.68054410389E+01  0.18804899755E+02  0.00000000000E+00 0.  1.
</event>
<event>
 7    1  0.2556591E-009  0.9260725E+02  0.7561462E-02  0.1296658E+00
         -1   -1    0    0    0  501 -0.00000000000E+00  0.00000000000E+00  0.49050236093E+02  0.49050236093E+02  0.00000000000E+00 0.  1.
          1   -1    0    0  501    0  0.00000000000E+00 -0.00000000000E+00 -0.39968833653E+03  0.39968833653E+03  0.00000000000E+00 0. -1.
         25    2    1    2    0    0  0.27008225714E+02  0.29313463201E+02 -0.31555793184E+03  0.34177906939E+03  0.12508957008E+03 0.  0.
          5    1    3    3  502    0 -0.14706188663E+02  0.39430933798E+02 -0.27354570430E+02  0.50366808997E+02  0.41800000000E+01 0.  1.
         -5    1    3    3    0  502  0.41714414376E+02 -0.10117470596E+02 -0.28820336142E+03  0.29141226040E+03  0.41800000000E+01 0.  1.
        -11    1    1    2    0    0 -0.61181610633E+02 -0.20176442115E+02 -0.30541947920E+02  0.71295784439E+02  0.00000000000E+00 0. -1.
         11    1    1    2    0    0  0.34173384919E+02 -0.91370210860E+01 -0.45382206726E+01  0.35663718791E+02  0.00000000000E+00 0.  1.
</event>
<event>
 7    1  0.2556591E-009  0.1083828E+03  0.7561462E-02  0.1263594E+00
          4   -1    0    0  501    0  0.00000000000E+00  0.00000000000E+00  0.32936550835E+02  0.32936550835E+02  0.00000000000E+00 0. -1.
         -4   -1    0    0    0  501 -0.00000000000E+00 -0.00000000000E+00 -0.42096407595E+03  0.42096407595E+03  0.00000000000E+00 0.  1.
         25    2    1    2    0    0  0.36705487328E+02  0.29067187775E+02 -0.19892566974E+03  0.23961169022E+03  0.12510054278E+03 0.  0.
          5    1    3    3  502    0  0.68696174237E+02  0.57912979833E+02 -0.14224489904E+03  0.16829783507E+03  0.41800000000E+01 0. -1.
         -5    1    3    3    0  502 -0.31990686909E+02 -0.28845792058E+02 -0.56680770700E+02  0.71313855144E+02  0.41800000000E+01 0. -1.
        -11    1    1    2    0    0  0.15069670052E+02 -0.27949475331E+02 -0.13773349090E+03  0.14134632165E+03  0.00000000000E+00 0. -1.
         11    1    1    2    0    0 -0.51775157380E+02 -0.11177124443E+01 -0.51368364476E+02  0.72942614923E+02  0.00000000000E+00 0.  1.
</event>
<event>
 7    1  0.2556591E-009  0.1148133E+03  0.7561462E-02  0.1251907E+00
         -2   -1    0    0    0  501 -0.00000000000E+00  0.00000000000E+00  0.10858430458E+03  0.10858430458E+03  0.00000000000E+00 0.  1.
          2   -1    0    0  501    0  0.00000000000E+00 -0.00000000000E+00 -0.15089078925E+03  0.15089078925E+03  0.00000000000E+00 0. -1.
         25    2    1    2    0    0  0.39618031421E+02  0.49591102900E+02 -0.31938463158E+02  0.14386463913E+03  0.12509237811E+03 0.  0.
          5    1    3    3  502    0 -0.26757892389E+02 -0.19551356852E+02 -0.34329116999E+02  0.47897818674E+02  0.41800000000E+01 0. -1.
         -5    1    3    3    0  502  0.66375923809E+02  0.69142459752E+02  0.23906538401E+01  0.95966820453E+02  0.41800000000E+01 0. -1.
        -11    1    1    2    0    0  0.25837733163E+01  0.19313754714E+02  0.21260480435E+02  0.28839296698E+02  0.00000000000E+00 0.  1.
         11    1    1    2    0    0 -0.42201804737E+02 -0.68904857614E+02 -0.31628501944E+02  0.86771158002E+02  0.00000000000E+00 0. -1.
</event>
<event>
 7    1  0.2556591E-009  0.7781366E+02  0.7561462E-02  0.1335373E+00
          1   -1    0    0  501    0  0.00000000000E+00  0.00000000000E+00  0.10034525640E+03  0.10034525640E+03  0.00000000000E+00 0. -1.
         -1   -1    0    0    0  501 -0.00000000000E+00 -0.00000000000E+00 -0.12309544798E+03  0.12309544798E+03  0.00000000000E+00 0.  1.
         25    2    1    2    0    0  0.37847181887E+01 -0.16745796175E+02  0.18781913773E+02  0.12765329558E+03  0.12509139781E+03 0.  0.
          5    1    3    3  502    0 -0.42624127767E+02  0.56743346900E+00  0.52373806819E+02  0.67658157597E+02  0.41800000000E+01 0. -1.
         -5    1    3    3    0  502  0.46408845955E+02 -0.17313229644E+02 -0.33591893046E+02  0.59995137987E+02  0.41800000000E+01 0. -1.
        -11    1    1    2    0    0 -0.16304886366E+02 -0.19102026911E+02 -0.50828576911E+02  0.56694629219E+02  0.00000000000E+00 0.  1.
         11    1    1    2    0    0  0.12520168177E+02  0.35847823087E+02  0.92964715626E+01  0.39092779573E+02  0.00000000000E+00 0. -1.
</event>
<event>
 7    1  0.2556591E-009  0.1433733E+03  0.7561462E-02  0.1208861E+00
         -1   -1    0    0    0  501 -0.00000000000E+00  0.00000000000E+00  0.98197553633E+02  0.98197553633E+02  0.00000000000E+00 0.  1.
          1   -1    0    0  501    0  0.00000000000E+00 -0.00000000000E+00 -0.32432309026E+03  0.32432309026E+03  0.00000000000E+00 0. -1.
         25    2    1    2    0    0 -0.88435073831E+02  0.99374648870E+02 -0.17908571845E+03  0.25576893372E+03  0.12509983926E+03 0.  0.
          5    1    3    3  502    0 -0.35122635887E+02  0.15318081594E+02 -0.14567865394E+03  0.15069169118E+03  0.41800000000E+01 0. -1.
         -5    1    3    3    0  502 -0.53312437944E+02  0.84056567276E+02 -0.33407064509E+02  0.10507724254E+03  0.41800000000E+01 0. -1.
        -11    1    1    2    0    0  0.58268412639E+02 -0.16766821460E+02 -0.50250845564E+02  0.78749486940E+02  0.00000000000E+00 0. -1.
         11    1    1    2    0    0  0.30166661192E+02 -0.82607827410E+02  0.32110273887E+01  0.88002223232E+02  0.00000000000E+00 0.  1.
</event>
<event>
 7    1  0.2556591E-009  0.1023089E+03  0.7561462E-02  0.1275514E+00
         -1   -1    0    0    0  501 -0.00000000000E+00  0.00000000000E+00  0.39938957645E+02  0.39938957645E+02  0.00000000000E+00 0.  1.
          1   -1    0    0  501    0  0.00000000000E+00 -0.00000000000E+00 -0.37159997006E+03  0.37159997006E+03  0.00000000000E+00 0. -1.
         25    2    1    2    0    0 -0.13855667046E+02  0.31140126065E+02 -0.11384930628E+03  0.17254357489E+03  0.12509170130E+03 0.  0.
          5    1    3    3  502    0 -0.18870109626E+02 -0.45170085172E+02 -0.65841002915E+02  0.82151857536E+02  0.41800000000E+01 0.  1.
         -5    1    3    3    0  502  0.50144425798E+01  0.76310211238E+02 -0.48008303367E+02  0.90391717351E+02  0.41800000000E+01 0.  1.
        -11    1    1    2    0    0 -0.15312598854E+01 -0.52527734463E+02 -0.63378274409E+02  0.82330512641E+02  0.00000000000E+00 0.  1.
         11    1    1    2    0    0  0.15386926931E+02  0.21387608398E+02 -0.15443343172E+03  0.15666484018E+03  0.00000000000E+00 0. -1.
</event>
<event>
 7    1  0.2556591E-009  0.9957437E+02  0.7561462E-02  0.1281194E+00
         -1   -1    0    0    0  501 -0.00000000000E+00  0.00000000000E+00  0.68398868294E+02  0.68398868294E+02  0.00000000000E+00 0.  1.
          1   -1    0    0  501    0  0.00000000000E+00 -0.00000000000E+00 -0.20492816784E+03  0.20492816784E+03  0.00000000000E+00 0. -1.
         25    2    1    2    0    0  0.23610348286E+02  0.85523131595E+01 -0.31021821702E+02  0.13130373054E+03  0.12509086947E+03 0.  0.
          5    1    3    3  502    0  0.40537647188E+02  0.51367649928E+02 -0.48838950598E+02  0.81759719876E+02  0.41800000000E+01 0. -1.
         -5    1    3    3    0  502 -0.16927298902E+02 -0.42815336768E+02  0.17817128897E+02  0.49544010665E+02  0.41800000000E+01 0. -1.
        -11    1    1    2    0    0  0.94891193465E+01  0.32935831978E+02 -0.70652293488E+02  0.78527440995E+02  0.00000000000E+00 0.  1.
         11    1    1    2    0    0 -0.33099467632E+02 -0.41488145137E+02 -0.34855184354E+02  0.63495864596E+02  0.00000000000E+00 0. -1.
</event>
<event>
 7    1  0.2556591E-009  0.2008558E+03  0.7561462E-02  0.1149019E+00
         -2   -1    0    0    0  501 -0.00000000000E+00  0.00000000000E+00  0.19132412679E+03  0.19132412679E+03  0.00000000000E+00 0.  1.
          2   -1    0    0  501    0  0.00000000000E+00 -0.00000000000E+00 -0.27962528191E+03  0.27962528191E+03  0.00000000000E+00 0. -1.
         25    2    1    2    0    0 -0.18368971300E+03 -0.25594435339E+02  0.41688349753E+02  0.22755802642E+03  0.12509097130E+03 0.  0.
          5    1    3    3  502    0 -0.86875943769E+02  0.28726964960E+02  0.67164319596E+02  0.11358338940E+03  0.41800000000E+01 0.  1.
         -5    1    3    3    0  502 -0.96813769232E+02 -0.54321400299E+02 -0.25475969844E+02  0.11397463702E+03  0.41800000000E+01 0.  1.
        -11    1    1    2    0    0  0.20789769548E+02  0.29483931756E+02 -0.18988282398E+01  0.36126476417E+02  0.00000000000E+00 0.  1.
         11    1    1    2    0    0  0.16289994345E+03 -0.38894964172E+01 -0.12809067664E+03  0.20726490586E+03  0.00000000000E+00 0. -1.
</event>
<event>
 7    1  0.2556591E-009  0.9740098E+02  0.7561462E-02  0.1285858E+00
          2   -1    0    0  501    0  0.00000000000E+00  0.00000000000E+00  0.15632300573E+04  0.15632300573E+04  0.00000000000E+00 0.  1.
         -2   -1    0    0    0  501 -0.00000000000E+00 -0.00000000000E+00 -0.90135772937E+01  0.90135772937E+01  0.00000000000E+00 0. -1.
         25    2    1    2    0    0  0.11951324659E+02 -0.45010588217E+02  0.10223055716E+04  0.10309826325E+04  0.12509084583E+03 0.  0.
          5    1    3    3  502    0  0.36734443614E+02 -0.56499042140E+02  0.27505542959E+03  0.28322168500E+03  0.41800000000E+01 0.  1.
         -5    1    3    3    0  502 -0.24783118955E+02  0.11488453923E+02  0.74725014197E+03  0.74776094752E+03  0.41800000000E+01 0.  1.
        -11    1    1    2    0    0 -0.49535989716E+02  0.15636392696E+02  0.30478853402E+03  0.30918337848E+03  0.00000000000E+00 0. -1.
         11    1    1    2    0    0  0.37584665057E+02  0.29374195521E+02  0.22712237445E+03  0.23207762362E+03  0.00000000000E+00 0.  1.
</event>
<event>
 7    1  0.2556591E-009  0.1178772E+03  0.7561462E-02  0.1246641E+00
         -1   -1    0    0    0  501 -0.00000000000E+00  0.00000000000E+00  0.38460343687E+02  0.38460343687E+02  0.00000000000E+00 0.  1.
          1   -1    0    0  501    0  0.00000000000E+00 -0.00000000000E+00 -0.11777177427E+04  0.11777177427E+04  0.00000000000E+00 0. -1.
         25    2    1    2    0    0  0.50894687571E+02  0.71203695892E+02 -0.10216170846E+04  0.10329617263E+04  0.12509286535E+03 0.  0.
          5    1    3    3  502    0 -0.11325391274E+02  0.58285159624E+02 -0.80446072930E+03  0.80665975585E+03  0.41800000000E+01 0.  1.
         -5    1    3    3    0  502  0.62220078845E+02  0.12918536268E+02 -0.21715635526E+03  0.22630197043E+03  0.41800000000E+01 0.  1.
        -11    1    1    2    0    0 -0.47391508753E+02 -0.65996377832E+01 -0.10757842377E+03  0.11773966019E+03  0.00000000000E+00 0. -1.
         11    1    1    2    0    0 -0.35031788184E+01 -0.64604058109E+02 -0.10061890663E+02  0.65476699899E+02  0.00000000000E+00 0.  1.
</event>
<event>
 7    1  0.2556591E-009  0.1040537E+03  0.7561462E-02  0.1271995E+00
         -1   -1    0    0    0  501 -0.00000000000E+00  0.00000000000E+00  0.23787628257E+03  0.23787628257E+03  0.00000000000E+00 0.  1.
          1   -1    0    0  501    0  0.00000000000E+00 -0.00000000000E+00 -0.20512728989E+03  0.20512728989E+03  0.00000000000E+00 0. -1.
         25    2    1    2    0    0 -0.95212978958E+01 -0.43906038414E+02  0.20337401672E+03  0.24295466187E+03  0.12509029428E+03 0.  0.
          5    1    3    3  502    0 -0.60514358530E+02 -0.50878166341E+02  0.14348776831E+03  0.16388040594E+03  0.41800000000E+01 0.  1.
         -5    1    3    3    0  502  0.50993060634E+02  0.69721279273E+01  0.59886248415E+02  0.79074255924E+02  0.41800000000E+01 0.  1.
        -11    1    1    2    0    0 -0.25194066399E+02  0.31718668866E+02 -0.20342384064E+02  0.45327999358E+02  0.00000000000E+00 0.  1.
         11    1    1    2    0    0  0.34715364295E+02  0.12187369548E+02 -0.15028263997E+03  0.15472091123E+03  0.00000000000E+00 0. -1.
</event>
<event>
 7    1  0.2556591E-009  0.1175575E+03  0.7561462E-02  0.1247182E+00
         -1   -1    0    0    0  501 -0.00000000000E+00  0.00000000000E+00  0.55341761005E+03  0.55341761005E+03  0.00000000000E+00 0.  1.
          1   -1    0    0  501    0  0.00000000000E+00 -0.00000000000E+00 -0.32169255967E+02  0.32169255967E+02  0.00000000000E+00 0. -1.
         25    2    1    2    0    0 -0.68282979785E+02 -0.14872436570E+02  0.35337516981E+03  0.38132086032E+03  0.12509129939E+03 0.  0.
          5    1    3    3  502    0 -0.78100921671E+02 -0.52859369050E+02  0.17714877538E+03  0.20073123295E+03  0.41800000000E+01 0.  1.
         -5    1    3    3    0  502  0.98179418857E+01  0.37986932480E+02  0.17622639443E+03  0.18058962737E+03  0.41800000000E+01 0.  1.
        -11    1    1    2    0    0  0.35717155043E+02 -0.29425731808E+02  0.12867296603E+03  0.13674180431E+03  0.00000000000E+00 0.  1.
         11    1    1    2    0    0  0.32565824742E+02  0.44298168378E+02  0.39200218237E+02  0.67524201385E+02  0.00000000000E+00 0. -1.
</event>
<event>
 7    1  0.2556591E-009  0.3484278E+03  0.7561462E-02  0.1063262E+00
         -2   -1    0    0    0  501 -0.00000000000E+00  0.00000000000E+00  0.13207565098E+03  0.13207565098E+03  0.00000000000E+00 0.  1.
          2   -1    0    0  501    0  0.00000000000E+00 -0.00000000000E+00 -0.95482498274E+03  0.95482498274E+03  0.00000000000E+00 0. -1.
         25    2    1    2    0    0  0.28088178523E+02 -0.33497793769E+03 -0.46927101463E+03  0.59064586487E+03  0.12509231794E+03 0.  0.
          5    1    3    3  502    0  0.45041723931E+02 -0.32563514649E+03 -0.46641445908E+03  0.57063729773E+03  0.41800000000E+01 0.  1.
         -5    1    3    3    0  502 -0.16953545408E+02 -0.93427911929E+01 -0.28565555464E+01  0.20008567134E+02  0.41800000000E+01 0.  1.
        -11    1    1    2    0    0  0.26790801448E+02  0.39304327355E+02 -0.46337630497E+02  0.66405972556E+02  0.00000000000E+00 0.  1.
         11    1    1    2    0    0 -0.54878979971E+02  0.29567361033E+03 -0.30714068664E+03  0.42984879630E+03  0.00000000000E+00 0. -1.
</event>
<event>
 7    1  0.2556591E-009  0.1066704E+03  0.7561462E-02  0.1266863E+00
         -2   -1    0    0    0  501 -0.00000000000E+00  0.00000000000E+00  0.30345238010E+02  0.30345238010E+02  0.00000000000E+00 0. -1.
          2   -1    0    0  501    0  0.00000000000E+00 -0.00000000000E+00 -0.44919279919E+03  0.44919279919E+03  0.00000000000E+00 0.  1.
         25    2    1    2    0    0  0.26662010965E+02 -0.25208158004E+02 -0.27319541465E+03  0.30270478338E+03  0.12509251472E+03 0.  0.
          5    1    3    3  502    0 -0.74200437040E+01 -0.65159647020E+02 -0.21203424274E+03  0.22198384883E+03  0.41800000000E+01 0. -1.
         -5    1    3    3    0  502  0.34082054669E+02  0.39951489016E+02 -0.61161171905E+02  0.80720934545E+02  0.41800000000E+01 0. -1.
        -11    1    1    2    0    0 -0.54271315086E+02 -0.44172653878E+01 -0.11058719869E+03  0.12326563345E+03  0.00000000000E+00 0.  1.
         11    1    1    2    0    0  0.27609304122E+02  0.29625423392E+02 -0.35064947841E+02  0.53567620372E+02  0.00000000000E+00 0. -1.
</event>
<event>
 7    1  0.2556591E-009  0.5707903E+02  0.7561462E-02  0.1410515E+00
          1   -1    0    0  501    0  0.00000000000E+00  0.00000000000E+00  0.13254381159E+02  0.13254381159E+02  0.00000000000E+00 0. -1.
         -1   -1    0    0    0  501 -0.00000000000E+00 -0.00000000000E+00 -0.89599336390E+03  0.89599336390E+03  0.00000000000E+00 0.  1.
         25    2    1    2    0    0 -0.85266642462E+01 -0.14363763016E+02 -0.54155514416E+03  0.55606270239E+03  0.12507890760E+03 0.  0.
          5    1    3    3  502    0 -0.74702048488E+00  0.66919384765E+01  0.47769166842E+01  0.92537242873E+01  0.41800000000E+01 0. -1.
         -5    1    3    3    0  502 -0.77796437613E+01 -0.21055701492E+02 -0.54633206084E+03  0.54680897810E+03  0.41800000000E+01 0. -1.
        -11    1    1    2    0    0 -0.19270188775E+02 -0.27238432590E+02 -0.71537453891E+02  0.78935921446E+02  0.00000000000E+00 0. -1.
         11    1    1    2    0    0  0.27796853021E+02  0.41602195605E+02 -0.26964638469E+03  0.27424912123E+03  0.00000000000E+00 0.  1.
</event>
<event>
 7    1  0.3639392E-009  0.1310518E+03  0.7561462E-02  0.1225903E+00
          2   -1    0    0  501    0  0.00000000000E+00  0.00000000000E+00  0.15014072449E+04  0.15014072449E+04  0.00000000000E+00 0. -1.
         -2   -1    0    0    0  501 -0.00000000000E+00 -0.00000000000E+00 -0.16379060460E+02  0.16379060460E+02  0.00000000000E+00 0.  1.
         25    2    1    2    0    0 -0.94328043089E+02 -0.57521457484E+02  0.90788068916E+03  0.92309305922E+03  0.12508777897E+03 0.  0.
          5    1    3    3  502    0 -0.39753237629E+02  0.22617515669E+02  0.10818283191E+03  0.11752816444E+03  0.41800000000E+01 0. -1.
         -5    1    3    3    0  502 -0.54574805460E+02 -0.80138973153E+02  0.79969785725E+03  0.80556489478E+03  0.41800000000E+01 0. -1.
        -11    1    1    2    0    0  0.60631426246E+01  0.23933166543E+02  0.27356961966E+02  0.36850529538E+02  0.00000000000E+00 0.  1.
         11    1    1    2    0    0  0.88264900465E+02  0.33588290941E+02  0.54979053327E+03  0.55784271655E+03  0.00000000000E+00 0. -1.
</event>
<event>
 7    1  0.2556591E-009  0.1449858E+03  0.7561462E-02  0.1206773E+00
         -3   -1    0    0    0  501 -0.00000000000E+00  0.00000000000E+00  0.38341838746E+03  0.38341838746E+03  0.00000000000E+00 0.  1.
          3   -1    0    0  501    0  0.00000000000E+00 -0.00000000000E+00 -0.78709368360E+02  0.78709368360E+02  0.00000000000E+00 0. -1.
         25    2    1    2    0    0 -0.25304709034E+02  0.11799666770E+03  0.79485177246E+02  0.19112280012E+03  0.12508592821E+03 0.  0.
          5    1    3    3  502    0 -0.50621889670E+02  0.46992702128E+02 -0.14365976250E+02  0.70673498857E+02  0.41800000000E+01 0.  1.
         -5    1    3    3    0  502  0.25317180636E+02  0.71003965568E+02  0.93851153496E+02  0.12044930126E+03  0.41800000000E+01 0.  1.
        -11    1    1    2    0    0 -0.28579416673E+02 -0.57833163646E+02  0.65009917228E+02  0.91584645070E+02  0.00000000000E+00 0. -1.
         11    1    1    2    0    0  0.53884125708E+02 -0.60163504051E+02  0.16021392463E+03  0.17942031063E+03  0.00000000000E+00 0.  1.
</event>
<event>
 7    1  0.2556591E-009  0.9723057E+02  0.7561462E-02  0.1286230E+00
          2   -1    0    0  501    0  0.00000000000E+00  0.00000000000E+00  0.49860633623E+03  0.49860633623E+03  0.00000000000E+00 0. -1.
         -2   -1    0    0    0  501 -0.00000000000E+00 -0.00000000000E+00 -0.33758092554E+02  0.33758092554E+02  0.00000000000E+00 0.  1.
         25    2    1    2    0    0 -0.55158140974E+02  0.56844256587E+02  0.18406372308E+03  0.23622215754E+03  0.12509102100E+03 0.  0.
          5    1    3    3  502    0 -0.40373954328E+01 -0.13413351559E+02  0.13610841093E+03  0.13689116292E+03  0.41800000000E+01 0. -1.
         -5    1    3    3    0  502 -0.51120745541E+02  0.70257608146E+02  0.47955312156E+02  0.99330994614E+02  0.41800000000E+01 0. -1.
        -11    1    1    2    0    0  0.47601772617E+02 -0.14384137254E+02  0.17432565440E+03  0.18127952433E+03  0.00000000000E+00 0.  1.
         11    1    1    2    0    0  0.75563683570E+01 -0.42460119333E+02  0.10645886619E+03  0.11486274691E+03  0.00000000000E+00 0. -1.
</event>
<event>
 7    1  0.2556591E-009  0.8862088E+02  0.7561462E-02  0.1306226E+00
          2   -1    0    0  501    0  0.00000000000E+00  0.00000000000E+00  0.17508198244E+04  0.17508198244E+04  0.00000000000E+00 0. -1.
         -2   -1    0    0    0  501 -0.00000000000E+00 -0.00000000000E+00 -0.10574004313E+02  0.10574004313E+02  0.00000000000E+00 0.  1.
         25    2    1    2    0    0 -0.21188194590E+02 -0.40056416233E+02  0.14282589039E+04  0.14344432588E+04  0.12510199849E+03 0.  0.
          5    1    3    3  502    0 -0.32352449689E+02 -0.70356522352E+02  0.12928757563E+04  0.12951995657E+04  0.41800000000E+01 0.  1.
         -5    1    3    3    0  502  0.11164255099E+02  0.30300106118E+02  0.13538314763E+03  0.13924369316E+03  0.41800000000E+01 0.  1.
        -11    1    1    2    0    0 -0.53809641561E+01 -0.94897514201E+01  0.10361334328E+01  0.10958272207E+02  0.00000000000E+00 0.  1.
         11    1    1    2    0    0  0.26569158746E+02  0.49546167654E+02  0.31095078275E+03  0.31599229772E+03  0.00000000000E+00 0. -1.
</event>
<event>
 7    1  0.2556591E-009  0.3083857E+03  0.7561462E-02  0.1081122E+00
         -1   -1    0    0    0  501 -0.00000000000E+00  0.00000000000E+00  0.29614588561E+03  0.29614588561E+03  0.00000000000E+00 0.  1.
          1   -1    0    0  501    0  0.00000000000E+00 -0.00000000000E+00 -0.35858543248E+03  0.35858543248E+03  0.00000000000E+00 0. -1.
         25    2    1    2    0    0  0.22454806416E+01  0.30673445090E+03 -0.19613972271E+02  0.33184806711E+03  0.12508943276E+03 0.  0.
          5    1    3    3  502    0  0.73112323305E+00  0.25633231667E+03  0.33434651712E+02  0.25853846802E+03  0.41800000000E+01 0. -1.
         -5    1    3    3    0  502  0.15143574086E+01  0.50402134229E+02 -0.53048623982E+02  0.73309599096E+02  0.41800000000E+01 0. -1.
        -11    1    1    2    0    0 -0.20641554278E+02 -0.92095277128E+02 -0.51046614742E+02  0.10730037609E+03  0.00000000000E+00 0. -1.
         11    1    1    2    0    0  0.18396073636E+02 -0.21463917377E+03  0.82210401422E+01  0.21558287488E+03  0.00000000000E+00 0.  1.
</event>
<event>
 7    1  0.2556591E-009  0.8640928E+02  0.7561462E-02  0.1311788E+00
         -3   -1    0    0    0  501 -0.00000000000E+00  0.00000000000E+00  0.38355929632E+03  0.38355929632E+03  0.00000000000E+00 0.  1.
          3   -1    0    0  501    0  0.00000000000E+00 -0.00000000000E+00 -0.29474792841E+02  0.29474792841E+02  0.00000000000E+00 0. -1.
         25    2    1    2    0    0 -0.14126623385E+02 -0.22609126915E+02  0.24705757535E+03  0.27820103119E+03  0.12509050368E+03 0.  0.
          5    1    3    3  502    0  0.49378861534E+02 -0.13099709313E+02  0.17129021620E+03  0.17879509198E+03  0.41800000000E+01 0. -1.
         -5    1    3    3    0  502 -0.63505484919E+02 -0.95094176022E+01  0.75767359152E+02  0.99405939213E+02  0.41800000000E+01 0. -1.
        -11    1    1    2    0    0  0.21260890500E+02 -0.10238720618E+02  0.96892753263E+02  0.99724934192E+02  0.00000000000E+00 0.  1.
         11    1    1    2    0    0 -0.71342671151E+01  0.32847847532E+02  0.10134174864E+02  0.35108123774E+02  0.00000000000E+00 0. -1.
</event>
<event>
 7    1  0.2556591E-009  0.1061976E+03  0.7561462E-02  0.1267778E+00
          3   -1    0    0  501    0  0.00000000000E+00  0.00000000000E+00  0.22951620670E+03  0.22951620670E+03  0.00000000000E+00 0. -1.
         -3   -1    0    0    0  501 -0.00000000000E+00 -0.00000000000E+00 -0.77118607843E+02  0.77118607843E+02  0.00000000000E+00 0.  1.
         25    2    1    2    0    0 -0.89595392256E+01  0.49928509745E+02  0.14126667597E+02  0.13571906401E+03  0.12508785780E+03 0.  0.
          5    1    3    3  502    0  0.50730311098E+02  0.54251726203E+02  0.14744009214E+01  0.74407395588E+02  0.41800000000E+01 0.  1.
         -5    1    3    3    0  502 -0.59689850324E+02 -0.43232164576E+01  0.12652266676E+02  0.61311668419E+02  0.41800000000E+01 0.  1.
        -11    1    1    2    0    0 -0.20833178002E+02 -0.42460415539E+02  0.24884475692E+02  0.53442916498E+02  0.00000000000E+00 0.  1.
         11    1    1    2    0    0  0.29792717227E+02 -0.74680942063E+01  0.11338645557E+03  0.11747283404E+03  0.00000000000E+00 0. -1.
</event>
<event>
 7    1  0.2556591E-009  0.1065611E+03  0.7561462E-02  0.1267074E+00
         -1   -1    0    0    0  501 -0.00000000000E+00  0.00000000000E+00  0.30252106454E+03  0.30252106454E+03  0.00000000000E+00 0.  1.
          1   -1    0    0  501    0  0.00000000000E+00 -0.00000000000E+00 -0.85762673640E+02  0.85762673640E+02  0.00000000000E+00 0. -1.
         25    2    1    2    0    0 -0.32262380657E+02  0.66212196574E+02  0.22702888456E+03  0.26947111119E+03  0.12509056382E+03 0.  0.
          5    1    3    3  502    0  0.20185697337E+01 -0.10070175050E+02 -0.11917006411E+02  0.16277914213E+02  0.41800000000E+01 0. -1.
         -5    1    3    3    0  502 -0.34280950391E+02  0.76282371624E+02  0.23894589098E+03  0.25319319697E+03  0.41800000000E+01 0. -1.
        -11    1    1    2    0    0  0.44841450989E+02  0.57823676563E+01 -0.59110275395E+01  0.45597497180E+02  0.00000000000E+00 0. -1.
         11    1    1    2    0    0 -0.12579070332E+02 -0.71994564230E+02 -0.43594661220E+01  0.73215129816E+02  0.00000000000E+00 0.  1.
</event>
<event>
 7    1  0.2822464E-009  0.1452151E+03  0.7561462E-02  0.1206479E+00
          1   -1    0    0  501    0  0.00000000000E+00  0.00000000000E+00  0.34317901231E+03  0.34317901231E+03  0.00000000000E+00 0. -1.
         -1   -1    0    0    0  501 -0.00000000000E+00 -0.00000000000E+00 -0.99203344487E+02  0.99203344487E+02  0.00000000000E+00 0.  1.
         25    2    1    2    0    0  0.63513049696E+02 -0.11735010031E+03  0.50014836582E+02  0.18961461408E+03  0.12508902618E+03 0.  0.
          5    1    3    3  502    0  0.76466727355E+02 -0.80029921505E+02 -0.16649553744E+02  0.11201173496E+03  0.41800000000E+01 0. -1.
         -5    1    3    3    0  502 -0.12953677659E+02 -0.37320178805E+02  0.66664390326E+02  0.77602879125E+02  0.41800000000E+01 0. -1.
        -11    1    1    2    0    0 -0.26461901643E+01  0.46322579369E+02  0.13363939809E+03  0.14146473908E+03  0.00000000000E+00 0. -1.
         11    1    1    2    0    0 -0.60866859532E+02  0.71027520941E+02  0.60321433153E+02  0.11130300363E+03  0.00000000000E+00 0.  1.
</event>
<event>
 7    1  0.2556591E-009  0.9531588E+02  0.7561462E-02  0.1290466E+00
          2   -1    0    0  501    0  0.00000000000E+00  0.00000000000E+00  0.53377761129E+03  0.53377761129E+03  0.00000000000E+00 0. -1.
         -2   -1    0    0    0  501 -0.00000000000E+00 -0.00000000000E+00 -0.24246046837E+02  0.24246046837E+02  0.00000000000E+00 0.  1.
         25    2    1    2    0    0  0.15807041197E+02  0.27509542494E+02  0.35956613761E+03  0.38202233606E+03  0.12508645191E+03 0.  0.
          5    1    3    3  502    0 -0.16539520481E+01 -0.49544565308E+02  0.14877624374E+03  0.15687333301E+03  0.41800000000E+01 0. -1.
         -5    1    3    3    0  502  0.17460993245E+02  0.77054107802E+02  0.21078989387E+03  0.22514900305E+03  0.41800000000E+01 0. -1.
        -11    1    1    2    0    0  0.85711255189E+01  0.12355480680E+02 -0.36181341120E+01  0.15466511886E+02  0.00000000000E+00 0.  1.
         11    1    1    2    0    0 -0.24378166716E+02 -0.39865023174E+02  0.15358356095E+03  0.16053481018E+03  0.00000000000E+00 0. -1.
</event>
<event>
 7    1  0.3068484E-009  0.1392437E+03  0.7561462E-02  0.1214350E+00
         -2   -1    0    0    0  501 -0.00000000000E+00  0.00000000000E+00  0.29315090736E+02  0.29315090736E+02  0.00000000000E+00 0.  1.
          2   -1    0    0  501    0  0.00000000000E+00 -0.00000000000E+00 -0.79867017242E+03  0.79867017242E+03  0.00000000000E+00 0. -1.
         25    2    1    2    0    0  0.94905904769E+02  0.19135774212E+02 -0.28699056096E+03  0.32768907717E+03  0.12507294113E+03 0.  0.
          5    1    3    3  502    0  0.73227878502E+02 -0.46507386665E+02 -0.13304767210E+03  0.15888491009E+03  0.41800000000E+01 0.  1.
         -5    1    3    3    0  502  0.21678026267E+02  0.65643160877E+02 -0.15394288886E+03  0.16880416708E+03  0.41800000000E+01 0.  1.
        -11    1    1    2    0    0 -0.46563105926E+02  0.28434992235E+02 -0.12256189829E+03  0.13415696229E+03  0.00000000000E+00 0.  1.
         11    1    1    2    0    0 -0.48342798844E+02 -0.47570766447E+02 -0.35980262243E+03  0.36613922369E+03  0.00000000000E+00 0. -1.
</event>
<event>
 7    1  0.2556591E-009  0.7760346E+02  0.7561462E-02  0.1335993E+00
         -1   -1    0    0    0  501 -0.00000000000E+00  0.00000000000E+00  0.20117781887E+02  0.20117781887E+02  0.00000000000E+00 0.  1.
          1   -1    0    0  501    0  0.00000000000E+00 -0.00000000000E+00 -0.87840785308E+03  0.87840785308E+03  0.00000000000E+00 0. -1.
         25    2    1    2    0    0  0.34037550723E+02 -0.26285568357E+02 -0.69049356688E+03  0.70304874727E+03  0.12508672664E+03 0.  0.
          5    1    3    3  502    0  0.44949863969E+02 -0.32271664208E+02 -0.68729976261E+03  0.68953635631E+03  0.41800000000E+01 0.  1.
         -5    1    3    3    0  502 -0.10912313246E+02  0.59860958519E+01 -0.31938042625E+01  0.13512390965E+02  0.41800000000E+01 0.  1.
        -11    1    1    2    0    0 -0.20481868013E+02  0.52894727794E+02 -0.15080209908E+03  0.16111682790E+03  0.00000000000E+00 0. -1.
         11    1    1    2    0    0 -0.13555682710E+02 -0.26609159437E+02 -0.16994405238E+02  0.34360059794E+02  0.00000000000E+00 0.  1.
</event>
<event>
 7    1  0.2556591E-009  0.1457924E+03  0.7561462E-02  0.1205741E+00
          2   -1    0    0  501    0  0.00000000000E+00  0.00000000000E+00  0.22062523836E+03  0.22062523836E+03  0.00000000000E+00 0. -1.
         -2   -1    0    0    0  501 -0.00000000000E+00 -0.00000000000E+00 -0.14924844925E+03  0.14924844925E+03  0.00000000000E+00 0.  1.
         25    2    1    2    0    0 -0.10168728747E+03  0.43878506728E+02  0.12735852188E+03  0.21007842317E+03  0.12508846070E+03 0.  0.
          5    1    3    3  502    0  0.15614639770E+02 -0.10742031772E+02 -0.95682092278E+01  0.21638651750E+02  0.41800000000E+01 0. -1.
         -5    1    3    3    0  502 -0.11730192724E+03  0.54620538499E+02  0.13692673111E+03  0.18843977142E+03  0.41800000000E+01 0. -1.
        -11    1    1    2    0    0  0.56826242497E+02  0.23724613519E+02 -0.48369577996E+02  0.78305141584E+02  0.00000000000E+00 0.  1.
         11    1    1    2    0    0  0.44861044969E+02 -0.67603120247E+02 -0.76121547808E+01  0.81490122857E+02  0.00000000000E+00 0. -1.
</event>
<event>
 7    1  0.2556591E-009  0.8391907E+02  0.7561462E-02  0.1318284E+00
         -1   -1    0    0    0  501 -0.00000000000E+00  0.00000000000E+00  0.93265059761E+02  0.93265059761E+02  0.00000000000E+00 0.  1.
          1   -1    0    0  501    0  0.00000000000E+00 -0.00000000000E+00 -0.36315013879E+03  0.36315013879E+03  0.00000000000E+00 0. -1.
         25    2    1    2    0    0  0.81012776111E+02 -0.13177177152E+01 -0.29397410643E+03  0.32959443371E+03  0.12508760613E+03 0.  0.
          5    1    3    3  502    0  0.59576353565E+02 -0.14409939077E+01 -0.30082903187E+03  0.30670343523E+03  0.41800000000E+01 0. -1.
         -5    1    3    3    0  502  0.21436422546E+02  0.12327619248E+00  0.68549254371E+01  0.22890998479E+02  0.41800000000E+01 0. -1.
        -11    1    1    2    0    0 -0.40005539770E+02 -0.14143800395E+02 -0.33775270022E+02  0.54233376872E+02  0.00000000000E+00 0. -1.
         11    1    1    2    0    0 -0.41007236341E+02  0.15461518110E+02  0.57864297429E+02  0.72587387965E+02  0.00000000000E+00 0.  1.
</event>
<event>
 7    1  0.3096426E-009  0.1380931E+03  0.7561462E-02  0.1215918E+00
         -2   -1    0    0    0  501 -0.00000000000E+00  0.00000000000E+00  0.21555691582E+02  0.21555691582E+02  0.00000000000E+00 0.  1.
          2   -1    0    0  501    0  0.00000000000E+00 -0.00000000000E+00 -0.10355875603E+04  0.10355875603E+04  0.00000000000E+00 0. -1.
         25    2    1    2    0    0 -0.65155658207E+02 -0.64291785792E+02 -0.71263217725E+03  0.72929363856E+03  0.12508356279E+03 0.  0.
          5    1    3    3  502    0 -0.70676183520E+01 -0.88596721568E+02 -0.48407729536E+03  0.49218658107E+03  0.41800000000E+01 0. -1.
         -5    1    3    3    0  502 -0.58088039855E+02  0.24304935776E+02 -0.22855488189E+03  0.23710705749E+03  0.41800000000E+01 0. -1.
        -11    1    1    2    0    0 -0.12437416730E+02  0.41364557550E+02 -0.15114140418E+03  0.15719236627E+03  0.00000000000E+00 0. -1.
         11    1    1    2    0    0  0.77593074937E+02  0.22927228242E+02 -0.15025828732E+03  0.17065724708E+03  0.00000000000E+00 0.  1.
</event>
<event>
 7    1  0.2556591E-009  0.8021377E+02  0.7561462E-02  0.1328446E+00
          2   -1    0    0  501    0  0.00000000000E+00  0.00000000000E+00  0.10180702785E+03  0.10180702785E+03  0.00000000000E+00 0. -1.
         -2   -1    0    0    0  501 -0.00000000000E+00 -0.00000000000E+00 -0.16234218932E+03  0.16234218932E+03  0.00000000000E+00 0.  1.
         25    2    1    2    0    0 -0.40783363769E+02 -0.55897421441E+02 -0.25066530625E+02  0.14513618255E+03  0.12509346923E+03 0.  0.
          5    1    3    3  502    0 -0.46322453473E+01 -0.15868936195E+02  0.49874515855E+02  0.52708828148E+02  0.41800000000E+01 0. -1.
         -5    1    3    3    0  502 -0.36151118422E+02 -0.40028485246E+02 -0.74941046480E+02  0.92427354402E+02  0.41800000000E+01 0. -1.
        -11    1    1    2    0    0  0.48699549806E+02  0.20216665175E+02 -0.56143301265E+02  0.77022269371E+02  0.00000000000E+00 0.  1.
         11    1    1    2    0    0 -0.79161860369E+01  0.35680756266E+02  0.20674670427E+02  0.41990765251E+02  0.00000000000E+00 0. -1.
</event>
<event>
 7    1  0.2556591E-009  0.1274173E+03  0.7561462E-02  0.1231339E+00
         -2   -1    0    0    0  501 -0.00000000000E+00  0.00000000000E+00  0.56889593421E+02  0.56889593421E+02  0.00000000000E+00 0.  1.
          2   -1    0    0  501    0  0.00000000000E+00 -0.00000000000E+00 -0.54558127388E+03  0.54558127388E+03  0.00000000000E+00 0. -1.
         25    2    1    2    0    0  0.41800452483E+02  0.88430424789E+02 -0.90598329952E+02  0.18283124171E+03  0.12510790423E+03 0.  0.
          5    1    3    3  502    0 -0.23542011173E+02  0.37398049774E+02  0.16474573376E+02  0.47346851900E+02  0.41800000000E+01 0.  1.
         -5    1    3    3    0  502  0.65342463656E+02  0.51032375015E+02 -0.10707290333E+03  0.13548438981E+03  0.41800000000E+01 0.  1.
        -11    1    1    2    0    0  0.11089356729E+02 -0.70826354995E+02 -0.28030456911E+03  0.28932680114E+03  0.00000000000E+00 0. -1.
         11    1    1    2    0    0 -0.52889809211E+02 -0.17604069794E+02 -0.11778878140E+03  0.13031282444E+03  0.00000000000E+00 0.  1.
</event>
<event>
 7    1  0.2556591E-009  0.1218483E+03  0.7561462E-02  0.1240079E+00
         -1   -1    0    0    0  501 -0.00000000000E+00  0.00000000000E+00  0.24722979288E+03  0.24722979288E+03  0.00000000000E+00 0.  1.
          1   -1    0    0  501    0  0.00000000000E+00 -0.00000000000E+00 -0.82524358572E+02  0.82524358572E+02  0.00000000000E+00 0. -1.
         25    2    1    2    0    0 -0.54838106145E+02 -0.31068326715E+02  0.11540468367E+02  0.14055637723E+03  0.12510177440E+03 0.  0.
          5    1    3    3  502    0 -0.30429225271E+01  0.46312992745E+02  0.79761773874E+01  0.47278372225E+02  0.41800000000E+01 0. -1.
         -5    1    3    3    0  502 -0.51795183618E+02 -0.77381319460E+02  0.35642909800E+01  0.93278005004E+02  0.41800000000E+01 0. -1.
        -11    1    1    2    0    0 -0.18078697103E+02  0.24814225601E+02  0.80106523561E+02  0.85788345352E+02  0.00000000000E+00 0. -1.
         11    1    1    2    0    0  0.72916803248E+02  0.62541011141E+01  0.73058442383E+02  0.10340942887E+03  0.00000000000E+00 0.  1.
</event>
<event>
 7    1  0.2962273E-009  0.1023403E+03  0.7561462E-02  0.1275450E+00
         -1   -1    0    0    0  501 -0.00000000000E+00  0.00000000000E+00  0.22327091954E+02  0.22327091954E+02  0.00000000000E+00 0.  1.
          1   -1    0    0  501    0  0.00000000000E+00 -0.00000000000E+00 -0.77033663316E+03  0.77033663316E+03  0.00000000000E+00 0. -1.
         25    2    1    2    0    0 -0.15908584267E+02  0.15167770524E+02 -0.62481605732E+03  0.63759344846E+03  0.12508859144E+03 0.  0.
          5    1    3    3  502    0  0.54647073596E+02  0.12166803598E+02 -0.26269680628E+03  0.26862877395E+03  0.41800000000E+01 0.  1.
         -5    1    3    3    0  502 -0.70555657863E+02  0.30009669254E+01 -0.36211925104E+03  0.36896467451E+03  0.41800000000E+01 0.  1.
        -11    1    1    2    0    0 -0.22543425390E+02 -0.29177636546E+02 -0.15746821907E+02  0.40093676595E+02  0.00000000000E+00 0.  1.
         11    1    1    2    0    0  0.38452009657E+02  0.14009866022E+02 -0.10744666197E+03  0.11497660006E+03  0.00000000000E+00 0. -1.
</event>
<event>
 7    1  0.2556591E-009  0.6388231E+02  0.7561462E-02  0.1382226E+00
          2   -1    0    0  501    0  0.00000000000E+00  0.00000000000E+00  0.38962662011E+03  0.38962662011E+03  0.00000000000E+00 0. -1.
         -2   -1    0    0    0  501 -0.00000000000E+00 -0.00000000000E+00 -0.39119419954E+02  0.39119419954E+02  0.00000000000E+00 0.  1.
         25    2    1    2    0    0 -0.20092487129E+02  0.36585856948E+02  0.25377061241E+03  0.28599410849E+03  0.12510345079E+03 0.  0.
          5    1    3    3  502    0 -0.19238856317E+02  0.49441057395E+02  0.26381664471E+03  0.26913053742E+03  0.41800000000E+01 0.  1.
         -5    1    3    3    0  502 -0.85363081269E+00 -0.12855200447E+02 -0.10046032299E+02  0.16863571065E+02  0.41800000000E+01 0.  1.
        -11    1    1    2    0    0  0.25455584096E+02 -0.14891461045E+01 -0.12133608560E+02  0.28238781392E+02  0.00000000000E+00 0.  1.
         11    1    1    2    0    0 -0.53630969671E+01 -0.35096710843E+02  0.10887019630E+03  0.11451315018E+03  0.00000000000E+00 0. -1.
</event>
<event>
 7    1  0.2556591E-009  0.8857680E+02  0.7561462E-02  0.1306335E+00
         -1   -1    0    0    0  501 -0.00000000000E+00  0.00000000000E+00  0.27145476400E+03  0.27145476400E+03  0.00000000000E+00 0.  1.
          1   -1    0    0  501    0  0.00000000000E+00 -0.00000000000E+00 -0.61279994512E+02  0.61279994512E+02  0.00000000000E+00 0. -1.
         25    2    1    2    0    0  0.25231251950E+02  0.29977331744E+01  0.19482077592E+03  0.23291088515E+03  0.12508694260E+03 0.  0.
          5    1    3    3  502    0  0.46447113644E+01  0.52915275080E+02  0.15972006042E+03  0.16837330484E+03  0.41800000000E+01 0. -1.
         -5    1    3    3    0  502  0.20586540586E+02 -0.49917541906E+02  0.35100715497E+02  0.64537580305E+02  0.41800000000E+01 0. -1.
        -11    1    1    2    0    0 -0.42804133010E+02 -0.18165847512E+02 -0.25353825282E+02  0.52962328829E+02  0.00000000000E+00 0. -1.
         11    1    1    2    0    0  0.17572881060E+02  0.15168114338E+02  0.40707818851E+02  0.46861544542E+02  0.00000000000E+00 0.  1.
</event>
<event>
 7    1  0.2556591E-009  0.1620726E+03  0.7561462E-02  0.1186376E+00
         -1   -1    0    0    0  501 -0.00000000000E+00  0.00000000000E+00  0.83527596999E+03  0.83527596999E+03  0.00000000000E+00 0.  1.
          1   -1    0    0  501    0  0.00000000000E+00 -0.00000000000E+00 -0.46155961499E+02  0.46155961499E+02  0.00000000000E+00 0. -1.
         25    2    1    2    0    0  0.76044949201E+02 -0.12208787933E+03  0.58884789979E+03  0.61893285989E+03  0.12509097246E+03 0.  0.
          5    1    3    3  502    0  0.54724366485E+02 -0.12170955501E+03  0.58049848947E+03  0.59565421240E+03  0.41800000000E+01 0. -1.
         -5    1    3    3    0  502  0.21320582716E+02 -0.37832431789E+00  0.83494103198E+01  0.23278647498E+02  0.41800000000E+01 0. -1.
        -11    1    1    2    0    0  0.19986992249E+02  0.14511308802E+02  0.38943695050E+02  0.46115825119E+02  0.00000000000E+00 0. -1.
         11    1    1    2    0    0 -0.96031941449E+02  0.10757657052E+03  0.16132841365E+03  0.21638324647E+03  0.00000000000E+00 0.  1.
</event>
<event>
 7    1  0.2556591E-009  0.1039542E+03  0.7561462E-02  0.1272194E+00
         -2   -1    0    0    0  501 -0.00000000000E+00  0.00000000000E+00  0.24435063472E+02  0.24435063472E+02  0.00000000000E+00 0.  1.
          2   -1    0    0  501    0  0.00000000000E+00 -0.00000000000E+00 -0.98501784140E+03  0.98501784140E+03  0.00000000000E+00 0. -1.
         25    2    1    2    0    0  0.18360813045E+02  0.19979817343E+02 -0.86212886627E+03  0.87157934552E+03  0.12509220966E+03 0.  0.
          5    1    3    3  502    0 -0.11139558742E+02  0.68087178657E+02 -0.39074025959E+03  0.39680647239E+03  0.41800000000E+01 0.  1.
         -5    1    3    3    0  502  0.29500371787E+02 -0.48107361314E+02 -0.47138860668E+03  0.47477287313E+03  0.41800000000E+01 0.  1.
        -11    1    1    2    0    0 -0.19412282486E+02  0.28076996465E+02 -0.74248570961E+01  0.34932548500E+02  0.00000000000E+00 0.  1.
         11    1    1    2    0    0  0.10514694404E+01 -0.48056813808E+02 -0.91029054558E+02  0.10294101085E+03  0.00000000000E+00 0. -1.
</event>
<event>
 7    1  0.2556591E-009  0.1009827E+03  0.7561462E-02  0.1278243E+00
         -2   -1    0    0    0  501 -0.00000000000E+00  0.00000000000E+00  0.18791379553E+02  0.18791379553E+02  0.00000000000E+00 0.  1.
          2   -1    0    0  501    0  0.00000000000E+00 -0.00000000000E+00 -0.94383119495E+03  0.94383119495E+03  0.00000000000E+00 0. -1.
         25    2    1    2    0    0  0.44604346677E+02 -0.59895890152E+02 -0.45325488025E+03  0.47609359967E+03  0.12509222107E+03 0.  0.
          5    1    3    3  502    0 -0.41292443593E+01 -0.40263452955E+02 -0.32569531172E+02  0.52119507515E+02  0.41800000000E+01 0. -1.
         -5    1    3    3    0  502  0.48733591037E+02 -0.19632437197E+02 -0.42068534908E+03  0.42397409215E+03  0.41800000000E+01 0. -1.
        -11    1    1    2    0    0 -0.63364427408E+02  0.63230148545E+02 -0.44337379378E+03  0.45232004527E+03  0.00000000000E+00 0. -1.
         11    1    1    2    0    0  0.18760080730E+02 -0.33342583923E+01 -0.28411141363E+02  0.34208929559E+02  0.00000000000E+00 0.  1.
</event>
<event>
 7    1  0.2556591E-009  0.8125840E+02  0.7561462E-02  0.1325518E+00
          2   -1    0    0  501    0  0.00000000000E+00  0.00000000000E+00  0.13809576339E+03  0.13809576339E+03  0.00000000000E+00 0. -1.
         -2   -1    0    0    0  501 -0.00000000000E+00 -0.00000000000E+00 -0.10491186160E+03  0.10491186160E+03  0.00000000000E+00 0.  1.
         25    2    1    2    0    0  0.32100945858E+02 -0.39952922246E+02  0.35146290699E+02  0.13968010079E+03  0.12509421284E+03 0.  0.
          5    1    3    3  502    0  0.33576137491E+02 -0.69314263577E+02 -0.17632607170E+02  0.79121459666E+02  0.41800000000E+01 0. -1.
         -5    1    3    3    0  502 -0.14751916336E+01  0.29361341331E+02  0.52778897869E+02  0.60558641129E+02  0.41800000000E+01 0. -1.
        -11    1    1    2    0    0 -0.22930592839E+02  0.11216503507E+02 -0.44427854067E+02  0.51239206238E+02  0.00000000000E+00 0.  1.
         11    1    1    2    0    0 -0.91703530181E+01  0.28736418739E+02  0.42465465161E+02  0.52088317958E+02  0.00000000000E+00 0. -1.
</event>
<event>
 7    1  0.2556591E-009  0.1174883E+03  0.7561462E-02  0.1247299E+00
         -2   -1    0    0    0  501 -0.00000000000E+00  0.00000000000E+00  0.31098958221E+02  0.31098958221E+02  0.00000000000E+00 0.  1.
          2   -1    0    0  501    0  0.00000000000E+00 -0.00000000000E+00 -0.94399660290E+03  0.94399660290E+03  0.00000000000E+00 0. -1.
         25    2    1    2    0    0  0.23667605015E+02 -0.63936046873E+02 -0.80615525359E+03  0.81864576677E+03  0.12508646986E+03 0.  0.
          5    1    3    3  502    0 -0.45870597024E+02 -0.42744722362E+01 -0.37501943069E+03  0.37786165270E+03  0.41800000000E+01 0.  1.
         -5    1    3    3    0  502  0.69538202038E+02 -0.59661574637E+02 -0.43113582290E+03  0.44078411407E+03  0.41800000000E+01 0.  1.
        -11    1    1    2    0    0 -0.82699096601E+01 -0.14701166230E+02 -0.62873394170E+02  0.65096692610E+02  0.00000000000E+00 0. -1.
         11    1    1    2    0    0 -0.15397695355E+02  0.78637213103E+02 -0.43868996915E+02  0.91353101739E+02  0.00000000000E+00 0.  1.
</event>
<event>
 7    1  0.2556591E-009  0.8023096E+02  0.7561462E-02  0.1328397E+00
          1   -1    0    0  501    0  0.00000000000E+00  0.00000000000E+00  0.84950143560E+02  0.84950143560E+02  0.00000000000E+00 0. -1.
         -1   -1    0    0    0  501 -0.00000000000E+00 -0.00000000000E+00 -0.21957575471E+03  0.21957575471E+03  0.00000000000E+00 0.  1.
         25    2    1    2    0    0 -0.18150829240E+02  0.44372455937E+02 -0.14723028697E+03  0.19905623681E+03  0.12509300766E+03 0.  0.
          5    1    3    3  502    0 -0.17806083389E+02  0.86841609383E+01  0.19731420028E+02  0.28271409465E+02  0.41800000000E+01 0.  1.
         -5    1    3    3    0  502 -0.34474585110E+00  0.35688294998E+02 -0.16696170700E+03  0.17078482735E+03  0.41800000000E+01 0.  1.
        -11    1    1    2    0    0 -0.43173661227E+01  0.28087553139E+02 -0.81133683835E+00  0.28429009111E+02  0.00000000000E+00 0.  1.
         11    1    1    2    0    0  0.22468195362E+02 -0.72460009076E+02  0.13416012656E+02  0.77040652344E+02  0.00000000000E+00 0. -1.
</event>
<event>
 7    1  0.2556591E-009  0.2441356E+03  0.7561462E-02  0.1117068E+00
         -2   -1    0    0    0  501 -0.00000000000E+00  0.00000000000E+00  0.77675932787E+02  0.77675932787E+02  0.00000000000E+00 0.  1.
          2   -1    0    0  501    0  0.00000000000E+00 -0.00000000000E+00 -0.95192903433E+03  0.95192903433E+03  0.00000000000E+00 0. -1.
         25    2    1    2    0    0 -0.21728695183E+03 -0.55077106615E+02 -0.24105308940E+03  0.35213800621E+03  0.12508987327E+03 0.  0.
          5    1    3    3  502    0 -0.15691244838E+03 -0.86623457358E+02 -0.21284555759E+03  0.27829093339E+03  0.41800000000E+01 0.  1.
         -5    1    3    3    0  502 -0.60374503459E+02  0.31546350742E+02 -0.28207531809E+02  0.73847072818E+02  0.41800000000E+01 0.  1.
        -11    1    1    2    0    0  0.17549533428E+03  0.50692934466E+01 -0.45166746365E+03  0.48459035052E+03  0.00000000000E+00 0. -1.
         11    1    1    2    0    0  0.41791617551E+02  0.50007813169E+02 -0.18153254848E+03  0.19287661039E+03  0.00000000000E+00 0.  1.
</event>
<event>
 7    1  0.2556591E-009  0.1222955E+03  0.7561462E-02  0.1239357E+00
          2   -1    0    0  501    0  0.00000000000E+00  0.00000000000E+00  0.12375163434E+03  0.12375163434E+03  0.00000000000E+00 0. -1.
         -2   -1    0    0    0  501 -0.00000000000E+00 -0.00000000000E+00 -0.14143974277E+03  0.14143974277E+03  0.00000000000E+00 0.  1.
         25    2    1    2    0    0  0.50349581416E+02 -0.42226080978E+02  0.17993716565E+02  0.14244326366E+03  0.12509271467E+03 0.  0.
          5    1    3    3  502    0 -0.14482999911E+02  0.35607635257E+02  0.13511629651E+02  0.40959705942E+02  0.41800000000E+01 0.  1.
         -5    1    3    3    0  502  0.64832581328E+02 -0.77833716235E+02  0.44820869138E+01  0.10148355772E+03  0.41800000000E+01 0.  1.
        -11    1    1    2    0    0 -0.49287040034E+02  0.65093274672E+02 -0.50005881135E+02  0.95744111417E+02  0.00000000000E+00 0.  1.
         11    1    1    2    0    0 -0.10625413825E+01 -0.22867193695E+02  0.14324056132E+02  0.27004002031E+02  0.00000000000E+00 0. -1.
</event>
<event>
 7    1  0.2556591E-009  0.1339705E+03  0.7561462E-02  0.1221680E+00
         -1   -1    0    0    0  501 -0.00000000000E+00  0.00000000000E+00  0.24146535508E+02  0.24146535508E+02  0.00000000000E+00 0.  1.
          1   -1    0    0  501    0  0.00000000000E+00 -0.00000000000E+00 -0.11139449360E+04  0.11139449360E+04  0.00000000000E+00 0. -1.
         25    2    1    2    0    0  0.11735757038E+03  0.22378259123E+02 -0.49058285576E+03  0.52018575160E+03  0.12509233387E+03 0.  0.
          5    1    3    3  502    0  0.50833844395E+02  0.22161246330E+01 -0.41214841935E+03  0.41529842634E+03  0.41800000000E+01 0. -1.
         -5    1    3    3    0  502  0.66523725982E+02  0.20162134490E+02 -0.78434436413E+02  0.10488732526E+03  0.41800000000E+01 0. -1.
        -11    1    1    2    0    0  0.13582723759E+02  0.29078339462E+01 -0.27096755372E+02  0.30449631109E+02  0.00000000000E+00 0.  1.
         11    1    1    2    0    0 -0.13094029414E+03 -0.25286093069E+02 -0.57211878934E+03  0.58745608878E+03  0.00000000000E+00 0. -1.
</event>
<event>
 7    1  0.2556591E-009  0.2130730E+03  0.7561462E-02  0.1139155E+00
         -2   -1    0    0    0  501 -0.00000000000E+00  0.00000000000E+00  0.68383143690E+02  0.68383143690E+02  0.00000000000E+00 0. -1.
          2   -1    0    0  501    0  0.00000000000E+00 -0.00000000000E+00 -0.23571896541E+04  0.23571896541E+04  0.00000000000E+00 0.  1.
         25    2    1    2    0    0  0.18750202830E+03 -0.67259299769E+02 -0.21544871666E+04  0.21672894613E+04  0.12509130237E+03 0.  0.
          5    1    3    3  502    0  0.12255597435E+03 -0.71890710404E+02 -0.18709605906E+04  0.18763526441E+04  0.41800000000E+01 0. -1.
         -5    1    3    3    0  502  0.64946053949E+02  0.46314106355E+01 -0.28352657604E+03  0.29093681721E+03  0.41800000000E+01 0. -1.
        -11    1    1    2    0    0 -0.30568967169E+02  0.52988079758E+02 -0.53091095928E+02  0.80999153187E+02  0.00000000000E+00 0.  1.
         11    1    1    2    0    0 -0.15693306113E+03  0.14271220011E+02 -0.81228247864E+02  0.17728418330E+03  0.00000000000E+00 0. -1.
</event>
<event>
 7    1  0.2556591E-009  0.1137824E+03  0.7561462E-02  0.1253722E+00
          2   -1    0    0  501    0  0.00000000000E+00  0.00000000000E+00  0.14041960846E+03  0.14041960846E+03  0.00000000000E+00 0.  1.
         -2   -1    0    0    0  501 -0.00000000000E+00 -0.00000000000E+00 -0.94447565596E+02  0.94447565596E+02  0.00000000000E+00 0. -1.
         25    2    1    2    0    0 -0.28145401562E+02 -0.26210495626E+02  0.23462612877E+02  0.13295587694E+03  0.12509043649E+03 0.  0.
          5    1    3    3  502    0  0.47246368895E+02  0.27900177027E+01 -0.36363742524E+01  0.47651854006E+02  0.41800000000E+01 0.  1.
         -5    1    3    3    0  502 -0.75391770457E+02 -0.29000513328E+02  0.27098987129E+02  0.85304022938E+02  0.41800000000E+01 0.  1.
        -11    1    1    2    0    0 -0.23740467412E+02 -0.18952938975E+02  0.37360821079E+01  0.30606894620E+02  0.00000000000E+00 0. -1.
         11    1    1    2    0    0  0.51885868974E+02  0.45163434601E+02  0.18773347879E+02  0.71304402492E+02  0.00000000000E+00 0.  1.
</event>
<event>
 7    1  0.2556591E-009  0.1144817E+03  0.7561462E-02  0.1252489E+00
         -2   -1    0    0    0  501 -0.00000000000E+00  0.00000000000E+00  0.65944779344E+02  0.65944779344E+02  0.00000000000E+00 0.  1.
          2   -1    0    0  501    0  0.00000000000E+00 -0.00000000000E+00 -0.30791765344E+03  0.30791765344E+03  0.00000000000E+00 0. -1.
         25    2    1    2    0    0 -0.62344748029E+02  0.32681630947E+02 -0.12367356204E+03  0.18946659185E+03  0.12508989917E+03 0.  0.
          5    1    3    3  502    0 -0.44453173652E+01  0.72464079629E+02 -0.70266155047E+02  0.10112175151E+03  0.41800000000E+01 0.  1.
         -5    1    3    3    0  502 -0.57899430664E+02 -0.39782448681E+02 -0.53407406993E+02  0.88344840347E+02  0.41800000000E+01 0.  1.
        -11    1    1    2    0    0  0.32701856204E+02 -0.43405847539E+02 -0.13724792297E+03  0.14761595903E+03  0.00000000000E+00 0. -1.
         11    1    1    2    0    0  0.29642891825E+02  0.10724216592E+02  0.18948610914E+02  0.36779881903E+02  0.00000000000E+00 0.  1.
</event>
<event>
 7    1  0.2556591E-009  0.1588365E+03  0.7561462E-02  0.1190017E+00
         -1   -1    0    0    0  501 -0.00000000000E+00  0.00000000000E+00  0.15585984769E+03  0.15585984769E+03  0.00000000000E+00 0.  1.
          1   -1    0    0  501    0  0.00000000000E+00 -0.00000000000E+00 -0.30436143261E+03  0.30436143261E+03  0.00000000000E+00 0. -1.
         25    2    1    2    0    0 -0.10405279401E+03 -0.59847651284E+02 -0.23166844885E+03  0.28935377230E+03  0.12508641030E+03 0.  0.
          5    1    3    3  502    0  0.20205084791E+02  0.13055487819E+02 -0.13564502403E+02  0.27931332568E+02  0.41800000000E+01 0.  1.
         -5    1    3    3    0  502 -0.12425787880E+03 -0.72903139103E+02 -0.21810394645E+03  0.26142243973E+03  0.41800000000E+01 0.  1.
        -11    1    1    2    0    0  0.89943887640E+02  0.24003923421E+01  0.46660048158E+02  0.10135494512E+03  0.00000000000E+00 0.  1.
         11    1    1    2    0    0  0.14108906375E+02  0.57447258942E+02  0.36506815779E+02  0.69512562875E+02  0.00000000000E+00 0. -1.
</event>
<event>
 7    1  0.2556591E-009  0.1030429E+03  0.7561462E-02  0.1274024E+00
          2   -1    0    0  501    0  0.00000000000E+00  0.00000000000E+00  0.79782328613E+03  0.79782328613E+03  0.00000000000E+00 0. -1.
         -2   -1    0    0    0  501 -0.00000000000E+00 -0.00000000000E+00 -0.36388457755E+02  0.36388457755E+02  0.00000000000E+00 0.  1.
         25    2    1    2    0    0 -0.65833882429E+02 -0.19719211718E+02  0.67098035986E+03  0.68599175175E+03  0.12508833982E+03 0.  0.
          5    1    3    3  502    0  0.25767910500E+02  0.29538287539E+01  0.39200886552E+02  0.47189958914E+02  0.41800000000E+01 0.  1.
         -5    1    3    3    0  502 -0.91601792929E+02 -0.22673040472E+02  0.63177947331E+03  0.63880179283E+03  0.41800000000E+01 0.  1.
        -11    1    1    2    0    0  0.25523492968E+02 -0.17131565654E+02  0.88370407181E+02  0.93564245844E+02  0.00000000000E+00 0. -1.
         11    1    1    2    0    0  0.40310389462E+02  0.36850777371E+02  0.20840613337E+01  0.54655746295E+02  0.00000000000E+00 0.  1.
</event>
<event>
 7    1  0.2556591E-009  0.1746829E+03  0.7561462E-02  0.1173050E+00
          1   -1    0    0  501    0  0.00000000000E+00  0.00000000000E+00  0.53577757435E+03  0.53577757435E+03  0.00000000000E+00 0. -1.
         -1   -1    0    0    0  501 -0.00000000000E+00 -0.00000000000E+00 -0.68016227248E+02  0.68016227248E+02  0.00000000000E+00 0.  1.
         25    2    1    2    0    0  0.13500808423E+03  0.65269615665E+02  0.17476681129E+03  0.26206568892E+03  0.12509069288E+03 0.  0.
          5    1    3    3  502    0  0.59371864617E+02 -0.35240716444E+02  0.55669804606E+02  0.88789222029E+02  0.41800000000E+01 0. -1.
         -5    1    3    3    0  502  0.75636219615E+02  0.10051033211E+03  0.11909700668E+03  0.17327646689E+03  0.41800000000E+01 0. -1.
        -11    1    1    2    0    0 -0.25634452904E+02  0.23604936850E+01  0.48566441459E+01  0.26197024611E+02  0.00000000000E+00 0.  1.
         11    1    1    2    0    0 -0.10937363133E+03 -0.67630109350E+02  0.28813789166E+03  0.31553108806E+03  0.00000000000E+00 0. -1.
</event>
<event>
 7    1  0.2556591E-009  0.1122582E+03  0.7561462E-02  0.1256444E+00
         -2   -1    0    0    0  501 -0.00000000000E+00  0.00000000000E+00  0.99114452547E+02  0.99114452547E+02  0.00000000000E+00 0.  1.
          2   -1    0    0  501    0  0.00000000000E+00 -0.00000000000E+00 -0.13825252582E+03  0.13825252582E+03  0.00000000000E+00 0. -1.
         25    2    1    2    0    0  0.41287277792E+02  0.57095219649E+01 -0.75667421835E+01  0.13206676878E+03  0.12508852018E+03 0.  0.
          5    1    3    3  502    0 -0.30327433280E+01 -0.53750344689E+02 -0.18306022975E+02  0.57016488523E+02  0.41800000000E+01 0. -1.
         -5    1    3    3    0  502  0.44320021120E+02  0.59459866654E+02  0.10739280792E+02  0.75050280256E+02  0.41800000000E+01 0. -1.
        -11    1    1    2    0    0 -0.66177609963E+01 -0.44052969214E+02  0.34361621590E+00  0.44548590655E+02  0.00000000000E+00 0.  1.
         11    1    1    2    0    0 -0.34669516795E+02  0.38343447250E+02 -0.31914947309E+02  0.60751618938E+02  0.00000000000E+00 0. -1.
</event>
<event>
 7    1  0.2556591E-009  0.1801972E+03  0.7561462E-02  0.1167612E+00
         -2   -1    0    0    0  501 -0.00000000000E+00  0.00000000000E+00  0.28550504572E+02  0.28550504572E+02  0.00000000000E+00 0. -1.
          2   -1    0    0  501    0  0.00000000000E+00 -0.00000000000E+00 -0.15899236968E+04  0.15899236968E+04  0.00000000000E+00 0.  1.
         25    2    1    2    0    0 -0.47245521297E+01  0.16566504654E+03 -0.11089233769E+04  0.11281960892E+04  0.12509248930E+03 0.  0.
          5    1    3    3  502    0  0.27335686311E+02  0.39368701902E+02 -0.63035338992E+03  0.63218668368E+03  0.41800000000E+01 0.  1.
         -5    1    3    3    0  502 -0.32060238441E+02  0.12629634464E+03 -0.47856998699E+03  0.49600940556E+03  0.41800000000E+01 0.  1.
        -11    1    1    2    0    0 -0.29125393894E+02 -0.28927153603E+02 -0.55187561737E+02  0.68780344253E+02  0.00000000000E+00 0.  1.
         11    1    1    2    0    0  0.33849946024E+02 -0.13673789294E+03 -0.39726225362E+03  0.42149776792E+03  0.00000000000E+00 0. -1.
</event>
<event>
 7    1  0.2556591E-009  0.1490287E+03  0.7561462E-02  0.1201672E+00
         -2   -1    0    0    0  501 -0.00000000000E+00  0.00000000000E+00  0.14908856361E+03  0.14908856361E+03  0.00000000000E+00 0.  1.
          2   -1    0    0  501    0  0.00000000000E+00 -0.00000000000E+00 -0.20306329495E+03  0.20306329495E+03  0.00000000000E+00 0. -1.
         25    2    1    2    0    0 -0.13188676029E+02  0.13509318694E+03 -0.21145976578E+02  0.18579130721E+03  0.12508855734E+03 0.  0.
          5    1    3    3  502    0 -0.27009280486E+02  0.11189045892E+02 -0.49709324795E+02  0.57820284952E+02  0.41800000000E+01 0.  1.
         -5    1    3    3    0  502  0.13820604457E+02  0.12390414105E+03  0.28563348218E+02  0.12797102226E+03  0.41800000000E+01 0.  1.
        -11    1    1    2    0    0 -0.17836267359E+02 -0.41170329406E+02 -0.48658610735E+02  0.66187527945E+02  0.00000000000E+00 0. -1.
         11    1    1    2    0    0  0.31024943387E+02 -0.93922857533E+02  0.15829855969E+02  0.10017302341E+03  0.00000000000E+00 0.  1.
</event>
<event>
 7    1  0.2556591E-009  0.1064476E+03  0.7561462E-02  0.1267293E+00
          2   -1    0    0  501    0  0.00000000000E+00  0.00000000000E+00  0.13717978737E+03  0.13717978737E+03  0.00000000000E+00 0.  1.
         -2   -1    0    0    0  501 -0.00000000000E+00 -0.00000000000E+00 -0.91955675768E+02  0.91955675768E+02  0.00000000000E+00 0. -1.
         25    2    1    2    0    0 -0.87074232096E+01 -0.75065962948E+01  0.53798725466E+02  0.13665803642E+03  0.12509575472E+03 0.  0.
          5    1    3    3  502    0  0.55665930347E+02  0.41709618472E+00  0.43678153527E+02  0.70881050120E+02  0.41800000000E+01 0. -1.
         -5    1    3    3    0  502 -0.64373353556E+02 -0.79236924795E+01  0.10120571939E+02  0.65776986302E+02  0.41800000000E+01 0. -1.
        -11    1    1    2    0    0  0.44844376551E+02 -0.17493251264E+02 -0.41937206791E+01  0.48317897732E+02  0.00000000000E+00 0. -1.
         11    1    1    2    0    0 -0.36136953342E+02  0.24999847559E+02 -0.43808931874E+01  0.44159528982E+02  0.00000000000E+00 0.  1.
</event>
<event>
 7    1  0.2556591E-009  0.1363734E+03  0.7561462E-02  0.1218294E+00
         -3   -1    0    0    0  501 -0.00000000000E+00  0.00000000000E+00  0.32905917872E+03  0.32905917872E+03  0.00000000000E+00 0.  1.
          3   -1    0    0  501    0  0.00000000000E+00 -0.00000000000E+00 -0.75778800946E+02  0.75778800946E+02  0.00000000000E+00 0. -1.
         25    2    1    2    0    0 -0.16075877967E+02 -0.91641487412E+02  0.50256456622E+02  0.16379674831E+03  0.12508823788E+03 0.  0.
          5    1    3    3  502    0  0.44227531399E+02 -0.60865112263E+02 -0.61118561944E+01  0.75600685252E+02  0.41800000000E+01 0. -1.
         -5    1    3    3    0  502 -0.60303409365E+02 -0.30776375149E+02  0.56368312816E+02  0.88196063054E+02  0.41800000000E+01 0. -1.
        -11    1    1    2    0    0 -0.13327841042E+02 -0.14339849538E+02  0.37604527832E+02  0.42395319849E+02  0.00000000000E+00 0.  1.
         11    1    1    2    0    0  0.29403719009E+02  0.10598133695E+03  0.16541939332E+03  0.19864591151E+03  0.00000000000E+00 0. -1.
</event>
<event>
 7    1  0.2556591E-009  0.1120744E+03  0.7561462E-02  0.1256776E+00
         -4   -1    0    0    0  501 -0.00000000000E+00  0.00000000000E+00  0.63128315167E+03  0.63128315167E+03  0.00000000000E+00 0.  1.
          4   -1    0    0  501    0  0.00000000000E+00 -0.00000000000E+00 -0.20443717556E+02  0.20443717556E+02  0.00000000000E+00 0. -1.
         25    2    1    2    0    0  0.36487568392E+02  0.62438073799E+01  0.39380905811E+03  0.41485316519E+03  0.12508895491E+03 0.  0.
          5    1    3    3  502    0  0.52423100454E+02 -0.48988190281E+02  0.24298682211E+03  0.25339315770E+03  0.41800000000E+01 0.  1.
         -5    1    3    3    0  502 -0.15935532062E+02  0.55231997661E+02  0.15082223600E+03  0.16146000749E+03  0.41800000000E+01 0.  1.
        -11    1    1    2    0    0  0.28107509388E+02  0.63830357980E+01  0.58199969649E+02  0.64946221577E+02  0.00000000000E+00 0. -1.
         11    1    1    2    0    0 -0.64595077780E+02 -0.12626843178E+02  0.15883040635E+03  0.17192748246E+03  0.00000000000E+00 0.  1.
</event>
<event>
 7    1  0.2556591E-009  0.1046703E+03  0.7561462E-02  0.1270771E+00
          2   -1    0    0  501    0  0.00000000000E+00  0.00000000000E+00  0.23155431215E+03  0.23155431215E+03  0.00000000000E+00 0.  1.
         -2   -1    0    0    0  501 -0.00000000000E+00 -0.00000000000E+00 -0.65814772396E+02  0.65814772396E+02  0.00000000000E+00 0. -1.
         25    2    1    2    0    0 -0.30679361225E+02  0.45882731391E+02  0.10537608511E+03  0.17262012364E+03  0.12508852676E+03 0.  0.
          5    1    3    3  502    0  0.45953838152E+02  0.34401409589E+02  0.57942712649E+02  0.81670328589E+02  0.41800000000E+01 0. -1.
         -5    1    3    3    0  502 -0.76633199377E+02  0.11481321802E+02  0.47433372461E+02  0.90949795053E+02  0.41800000000E+01 0. -1.
        -11    1    1    2    0    0  0.45161482429E+01 -0.47741205365E+02 -0.10583878123E+02  0.49108418431E+02  0.00000000000E+00 0. -1.
         11    1    1    2    0    0  0.26163212982E+02  0.18584739739E+01  0.70947332771E+02  0.75640542478E+02  0.00000000000E+00 0.  1.
</event>
<event>
 7    1  0.2556591E-009  0.1236082E+03  0.7561462E-02  0.1237261E+00
         -2   -1    0    0    0  501 -0.00000000000E+00  0.00000000000E+00  0.55626496305E+02  0.55626496305E+02  0.00000000000E+00 0.  1.
          2   -1    0    0  501    0  0.00000000000E+00 -0.00000000000E+00 -0.34230167349E+03  0.34230167349E+03  0.00000000000E+00 0. -1.
         25    2    1    2    0    0  0.70662216592E+02  0.46088146049E+02 -0.17497250048E+03  0.23104098022E+03  0.12508913844E+03 0.  0.
          5    1    3    3  502    0 -0.15087319847E+02 -0.13734151047E+02  0.62802013150E+01  0.21752412595E+02  0.41800000000E+01 0.  1.
         -5    1    3    3    0  502  0.85749536439E+02  0.59822297096E+02 -0.18125270180E+03  0.20928856763E+03  0.41800000000E+01 0.  1.
        -11    1    1    2    0    0 -0.87084125501E+02 -0.55068779653E+02 -0.10472047123E+03  0.14691015112E+03  0.00000000000E+00 0. -1.
         11    1    1    2    0    0  0.16421908909E+02  0.89806336039E+01 -0.69822054655E+01  0.19977038452E+02  0.00000000000E+00 0.  1.
</event>
<event>
 7    1  0.2556591E-009  0.1005927E+03  0.7561462E-02  0.1279055E+00
         -2   -1    0    0    0  501 -0.00000000000E+00  0.00000000000E+00  0.10818706654E+03  0.10818706654E+03  0.00000000000E+00 0.  1.
          2   -1    0    0  501    0  0.00000000000E+00 -0.00000000000E+00 -0.29262422424E+03  0.29262422424E+03  0.00000000000E+00 0. -1.
         25    2    1    2    0    0  0.78870782889E+02  0.18508145579E+02 -0.23057850093E+03  0.27454897217E+03  0.12509013223E+03 0.  0.
          5    1    3    3  502    0 -0.10823185449E+02  0.96284897212E+01  0.96726367782E+01  0.17913164428E+02  0.41800000000E+01 0.  1.
         -5    1    3    3    0  502  0.89693968337E+02  0.88796558574E+01 -0.24025113771E+03  0.25663580774E+03  0.41800000000E+01 0.  1.
        -11    1    1    2    0    0 -0.75208764950E+02  0.18127963999E+01 -0.52446577931E+00  0.75232437289E+02  0.00000000000E+00 0. -1.
         11    1    1    2    0    0 -0.36620179389E+01 -0.20320941978E+02  0.46665809004E+02  0.51029881328E+02  0.00000000000E+00 0.  1.
</event>
<event>
 7    1  0.2556591E-009  0.1971782E+03  0.7561462E-02  0.1152142E+00
          2   -1    0    0  501    0  0.00000000000E+00  0.00000000000E+00  0.12205857672E+03  0.12205857672E+03  0.00000000000E+00 0.  1.
         -2   -1    0    0    0  501 -0.00000000000E+00 -0.00000000000E+00 -0.33731595064E+03  0.33731595064E+03  0.00000000000E+00 0. -1.
         25    2    1    2    0    0 -0.13274641326E+03  0.99797488648E+02 -0.75829310447E+02  0.22131097018E+03  0.12508921706E+03 0.  0.
          5    1    3    3  502    0 -0.10450611596E+03  0.11076756907E+01 -0.29971550627E+02  0.10880496986E+03  0.41800000000E+01 0.  1.
         -5    1    3    3    0  502 -0.28240297300E+02  0.98689812957E+02 -0.45857759820E+02  0.11250600032E+03  0.41800000000E+01 0.  1.
        -11    1    1    2    0    0  0.93036665364E+02 -0.16146934060E+02 -0.99651707515E+02  0.13728440331E+03  0.00000000000E+00 0. -1.
         11    1    1    2    0    0  0.39709747897E+02 -0.83650554588E+02 -0.39776355955E+02  0.10077915387E+03  0.00000000000E+00 0.  1.
</event>
<event>
 7    1  0.2556591E-009  0.6279376E+02  0.7561462E-02  0.1386468E+00
         -2   -1    0    0    0  501 -0.00000000000E+00  0.00000000000E+00  0.30990674385E+02  0.30990674385E+02  0.00000000000E+00 0.  1.
          2   -1    0    0  501    0  0.00000000000E+00 -0.00000000000E+00 -0.47109877058E+03  0.47109877058E+03  0.00000000000E+00 0. -1.
         25    2    1    2    0    0  0.53806063487E+01 -0.87879694730E+01 -0.14020379175E+03  0.18817662409E+03  0.12508860580E+03 0.  0.
          5    1    3    3  502    0  0.23741092340E+02  0.19517256437E+01 -0.15817814755E+03  0.16001639747E+03  0.41800000000E+01 0. -1.
         -5    1    3    3    0  502 -0.18360485991E+02 -0.10739695117E+02  0.17974355797E+02  0.28160226621E+02  0.41800000000E+01 0. -1.
        -11    1    1    2    0    0  0.11697281753E+02 -0.32769713669E+02 -0.56184153995E+02  0.66085850940E+02  0.00000000000E+00 0.  1.
         11    1    1    2    0    0 -0.17077888101E+02  0.41557683142E+02 -0.24372015045E+03  0.24782696993E+03  0.00000000000E+00 0. -1.
</event>
<event>
 7    1  0.2556591E-009  0.1451375E+03  0.7561462E-02  0.1206579E+00
         -1   -1    0    0    0  501 -0.00000000000E+00  0.00000000000E+00  0.12064155957E+03  0.12064155957E+03  0.00000000000E+00 0.  1.
          1   -1    0    0  501    0  0.00000000000E+00 -0.00000000000E+00 -0.23979615842E+03  0.23979615842E+03  0.00000000000E+00 0. -1.
         25    2    1    2    0    0  0.27986563778E+02  0.10662287920E+03  0.12132293557E+02  0.16717222552E+03  0.12509066439E+03 0.  0.
          5    1    3    3  502    0 -0.47024148229E+02  0.33496944434E+02 -0.13074755579E+02  0.59344228333E+02  0.41800000000E+01 0. -1.
         -5    1    3    3    0  502  0.75010712007E+02  0.73125934769E+02  0.25207049137E+02  0.10782799719E+03  0.41800000000E+01 0. -1.
        -11    1    1    2    0    0  0.20697070591E+02 -0.39955874112E+02 -0.90761880435E+02  0.10130429185E+03  0.00000000000E+00 0.  1.
         11    1    1    2    0    0 -0.48683634369E+02 -0.66667005090E+02 -0.40525011980E+02  0.91961200618E+02  0.00000000000E+00 0. -1.
</event>
<event>
 7    1  0.2556591E-009  0.1167290E+03  0.7561462E-02  0.1248593E+00
          2   -1    0    0  501    0  0.00000000000E+00  0.00000000000E+00  0.53777319347E+02  0.53777319347E+02  0.00000000000E+00 0. -1.
         -2   -1    0    0    0  501 -0.00000000000E+00 -0.00000000000E+00 -0.73836756776E+03  0.73836756776E+03  0.00000000000E+00 0.  1.
         25    2    1    2    0    0 -0.46958480718E+02  0.78009545155E+02 -0.80392962640E+02  0.17435783430E+03  0.12508812052E+03 0.  0.
          5    1    3    3  502    0 -0.16896430507E-02  0.49375934038E+02 -0.10334897766E+03  0.11461442513E+03  0.41800000000E+01 0. -1.
         -5    1    3    3    0  502 -0.46956791075E+02  0.28633611117E+02  0.22956015020E+02  0.59743409170E+02  0.41800000000E+01 0. -1.
        -11    1    1    2    0    0 -0.63719936127E+01  0.17904729085E+02 -0.98944393090E+02  0.10075303742E+03  0.00000000000E+00 0.  1.
         11    1    1    2    0    0  0.53330474331E+02 -0.95914274240E+02 -0.50525289269E+03  0.51703401538E+03  0.00000000000E+00 0. -1.
</event>
<event>
 7    1  0.2556591E-009  0.6813845E+02  0.7561462E-02  0.1366540E+00
         -3   -1    0    0    0  501 -0.00000000000E+00  0.00000000000E+00  0.70889649430E+02  0.70889649430E+02  0.00000000000E+00 0.  1.
          3   -1    0    0  501    0  0.00000000000E+00 -0.00000000000E+00 -0.20522442521E+03  0.20522442521E+03  0.00000000000E+00 0. -1.
         25    2    1    2    0    0  0.27826194829E+02  0.25003324337E+02 -0.33534856211E+02  0.13480158065E+03  0.12508963274E+03 0.  0.
          5    1    3    3  502    0  0.61197165313E+01 -0.95987368096E+01 -0.75278125363E+02  0.76248640886E+02  0.41800000000E+01 0.  1.
         -5    1    3    3    0  502  0.21706478298E+02  0.34602061146E+02  0.41743269152E+02  0.58552939766E+02  0.41800000000E+01 0.  1.
        -11    1    1    2    0    0 -0.52650234324E+02 -0.24956987744E+02 -0.28486017632E+02  0.64856392223E+02  0.00000000000E+00 0.  1.
         11    1    1    2    0    0  0.24824039495E+02 -0.46336593074E-01 -0.72313901937E+02  0.76456101766E+02  0.00000000000E+00 0. -1.
</event>
<event>
 7    1  0.2556591E-009  0.1234171E+03  0.7561462E-02  0.1237564E+00
          2   -1    0    0  501    0  0.00000000000E+00  0.00000000000E+00  0.17396165612E+03  0.17396165612E+03  0.00000000000E+00 0. -1.
         -2   -1    0    0    0  501 -0.00000000000E+00 -0.00000000000E+00 -0.15523051235E+03  0.15523051235E+03  0.00000000000E+00 0.  1.
         25    2    1    2    0    0  0.69706490209E+02 -0.72906574293E+02 -0.59215739677E+02  0.17125488477E+03  0.12508944151E+03 0.  0.
          5    1    3    3  502    0  0.51915084852E+02 -0.93138475111E+02 -0.71656520361E+00  0.10671427949E+03  0.41800000000E+01 0. -1.
         -5    1    3    3    0  502  0.17791405357E+02  0.20231900818E+02 -0.58499174474E+02  0.64540605276E+02  0.41800000000E+01 0. -1.
        -11    1    1    2    0    0 -0.45778334341E+02  0.11860118317E+02  0.79328357839E+02  0.92354245484E+02  0.00000000000E+00 0. -1.
         11    1    1    2    0    0 -0.23928155868E+02  0.61046455976E+02 -0.13814743975E+01  0.65583038218E+02  0.00000000000E+00 0.  1.
</event>
<event>
 7    1  0.2556591E-009  0.1126917E+03  0.7561462E-02  0.1255665E+00
          2   -1    0    0  501    0  0.00000000000E+00  0.00000000000E+00  0.13748913274E+04  0.13748913274E+04  0.00000000000E+00 0. -1.
         -2   -1    0    0    0  501 -0.00000000000E+00 -0.00000000000E+00 -0.10679439799E+02  0.10679439799E+02  0.00000000000E+00 0.  1.
         25    2    1    2    0    0  0.20722566743E+02  0.29773809252E+02  0.98719112275E+03  0.99574604015E+03  0.12509180293E+03 0.  0.
          5    1    3    3  502    0  0.67358786096E+02 -0.58656055404E+01  0.40946573073E+03  0.41503164751E+03  0.41800000000E+01 0.  1.
         -5    1    3    3    0  502 -0.46636219353E+02  0.35639414792E+02  0.57772539201E+03  0.58071439264E+03  0.41800000000E+01 0.  1.
        -11    1    1    2    0    0  0.28688065408E+02 -0.39118481596E+02  0.17018569341E+03  0.17696449062E+03  0.00000000000E+00 0.  1.
         11    1    1    2    0    0 -0.49410632151E+02  0.93446723445E+01  0.20683507141E+03  0.21286023639E+03  0.00000000000E+00 0. -1.
</event>
<event>
 7    1  0.2556591E-009  0.8487164E+02  0.7561462E-02  0.1315769E+00
         -1   -1    0    0    0  501 -0.00000000000E+00  0.00000000000E+00  0.81924546002E+02  0.81924546002E+02  0.00000000000E+00 0.  1.
          1   -1    0    0  501    0  0.00000000000E+00 -0.00000000000E+00 -0.18205263128E+03  0.18205263128E+03  0.00000000000E+00 0. -1.
         25    2    1    2    0    0  0.44509453530E+01 -0.61562113257E+02 -0.67835626180E+02  0.15510627247E+03  0.12508628573E+03 0.  0.
          5    1    3    3  502    0  0.10456036705E+02 -0.93430479675E+01 -0.94772338953E+02  0.95895202589E+02  0.41800000000E+01 0.  1.
         -5    1    3    3    0  502 -0.60050913517E+01 -0.52219065289E+02  0.26936712773E+02  0.59211069884E+02  0.41800000000E+01 0.  1.
        -11    1    1    2    0    0  0.38677430770E+02  0.29003697710E+02 -0.58082249084E+01  0.48691822809E+02  0.00000000000E+00 0.  1.
         11    1    1    2    0    0 -0.43128376123E+02  0.32558415546E+02 -0.26484234192E+02  0.60179082003E+02  0.00000000000E+00 0. -1.
</event>
<event>
 7    1  0.2556591E-009  0.9705114E+02  0.7561462E-02  0.1286622E+00
         -3   -1    0    0    0  501 -0.00000000000E+00  0.00000000000E+00  0.18085437455E+03  0.18085437455E+03  0.00000000000E+00 0. -1.
          3   -1    0    0  501    0  0.00000000000E+00 -0.00000000000E+00 -0.85889295084E+02  0.85889295084E+02  0.00000000000E+00 0.  1.
         25    2    1    2    0    0 -0.35429569608E+02  0.42318512720E+02  0.26037172503E+02  0.13918107304E+03  0.12508927140E+03 0.  0.
          5    1    3    3  502    0  0.36130787120E+02  0.50525709932E+02 -0.63350492775E+00  0.62258773442E+02  0.41800000000E+01 0. -1.
         -5    1    3    3    0  502 -0.71560356728E+02 -0.82071972118E+01  0.26670677431E+02  0.76922299600E+02  0.41800000000E+01 0. -1.
        -11    1    1    2    0    0  0.11429185392E+02 -0.31234453429E+02 -0.17217484131E+02  0.37452090990E+02  0.00000000000E+00 0.  1.
         11    1    1    2    0    0  0.24000384216E+02 -0.11084059290E+02  0.86145391094E+02  0.90110505601E+02  0.00000000000E+00 0. -1.
</event>
<event>
 7    1  0.2893774E-009  0.1253594E+03  0.7561462E-02  0.1234509E+00
          2   -1    0    0  501    0  0.00000000000E+00  0.00000000000E+00  0.64371118677E+03  0.64371118677E+03  0.00000000000E+00 0. -1.
         -2   -1    0    0    0  501 -0.00000000000E+00 -0.00000000000E+00 -0.35819683339E+02  0.35819683339E+02  0.00000000000E+00 0.  1.
         25    2    1    2    0    0  0.10232321674E+03  0.25855877582E+02  0.30427347660E+03  0.34549636584E+03  0.12508726219E+03 0.  0.
          5    1    3    3  502    0  0.76425037319E+02  0.53245262390E+02  0.29058329931E+03  0.30517531115E+03  0.41800000000E+01 0.  1.
         -5    1    3    3    0  502  0.25898179420E+02 -0.27389384808E+02  0.13690177283E+02  0.40321054692E+02  0.41800000000E+01 0.  1.
        -11    1    1    2    0    0 -0.68553167852E+02 -0.43762995125E+02  0.11069522993E+03  0.13736145927E+03  0.00000000000E+00 0.  1.
         11    1    1    2    0    0 -0.33770048887E+02  0.17907117543E+02  0.19292279691E+03  0.19667304499E+03  0.00000000000E+00 0. -1.
</event>
<event>
 7    1  0.3397662E-009  0.7536111E+02  0.7561462E-02  0.1342756E+00
         -2   -1    0    0    0  501 -0.00000000000E+00  0.00000000000E+00  0.42647296057E+02  0.42647296057E+02  0.00000000000E+00 0.  1.
          2   -1    0    0  501    0  0.00000000000E+00 -0.00000000000E+00 -0.35014493064E+03  0.35014493064E+03  0.00000000000E+00 0. -1.
         25    2    1    2    0    0 -0.55506768276E+02 -0.11964959639E+01 -0.15226398389E+03  0.20472845058E+03  0.12508790813E+03 0.  0.
          5    1    3    3  502    0  0.33788542901E+01  0.89808757524E+00 -0.14512546488E+03  0.14522773900E+03  0.41800000000E+01 0.  1.
         -5    1    3    3    0  502 -0.58885622567E+02 -0.20945835391E+01 -0.71385190099E+01  0.59500711583E+02  0.41800000000E+01 0.  1.
        -11    1    1    2    0    0 -0.29471080975E+01 -0.22817874514E+02 -0.29591164941E+01  0.23196922509E+02  0.00000000000E+00 0.  1.
         11    1    1    2    0    0  0.58453876374E+02  0.24014370478E+02 -0.15227453419E+03  0.16486685360E+03  0.00000000000E+00 0. -1.
</event>
<event>
 7    1  0.2556591E-009  0.8012036E+02  0.7561462E-02  0.1328710E+00
         -1   -1    0    0    0  501 -0.00000000000E+00  0.00000000000E+00  0.23123953300E+02  0.23123953300E+02  0.00000000000E+00 0. -1.
          1   -1    0    0  501    0  0.00000000000E+00 -0.00000000000E+00 -0.54083511059E+03  0.54083511059E+03  0.00000000000E+00 0.  1.
         25    2    1    2    0    0  0.39328681600E+01  0.44960605393E+01 -0.40358048914E+03  0.42256401419E+03  0.12508977918E+03 0.  0.
          5    1    3    3  502    0  0.31575471749E+02 -0.23805236157E+02 -0.38586095700E+02  0.55408111916E+02  0.41800000000E+01 0.  1.
         -5    1    3    3    0  502 -0.27642603589E+02  0.28301296696E+02 -0.36499439344E+03  0.36715590227E+03  0.41800000000E+01 0.  1.
        -11    1    1    2    0    0 -0.33022119056E+02 -0.28001836164E+02 -0.78985071038E+02  0.90073329140E+02  0.00000000000E+00 0.  1.
         11    1    1    2    0    0  0.29089250896E+02  0.23505775625E+02 -0.35145597108E+02  0.51321720562E+02  0.00000000000E+00 0. -1.
</event>
<event>
 7    1  0.2556591E-009  0.1014615E+03  0.7561462E-02  0.1277252E+00
          3   -1    0    0  501    0  0.00000000000E+00  0.00000000000E+00  0.25873333980E+03  0.25873333980E+03  0.00000000000E+00 0. -1.
         -3   -1    0    0    0  501 -0.00000000000E+00 -0.00000000000E+00 -0.52596932664E+02  0.52596932664E+02  0.00000000000E+00 0.  1.
         25    2    1    2    0    0  0.41410198585E+02 -0.82378093498E+01  0.11780746484E+03  0.17693323902E+03  0.12507640165E+03 0.  0.
          5    1    3    3  502    0  0.64622392870E+02 -0.40973648761E+02  0.11266953090E+03  0.13626000568E+03  0.41800000000E+01 0.  1.
         -5    1    3    3    0  502 -0.23212194285E+02  0.32735839411E+02  0.51379339315E+01  0.40673233342E+02  0.41800000000E+01 0.  1.
        -11    1    1    2    0    0 -0.53600984372E+02 -0.18382342081E+02  0.88536510897E+02  0.10511750467E+03  0.00000000000E+00 0. -1.
         11    1    1    2    0    0  0.12190785786E+02  0.26620151431E+02 -0.20756860156E+00  0.29279528770E+02  0.00000000000E+00 0.  1.
</event>
<event>
 7    1  0.2556591E-009  0.1286718E+03  0.7561462E-02  0.1229440E+00
          1   -1    0    0  501    0  0.00000000000E+00  0.00000000000E+00  0.78207958958E+02  0.78207958958E+02  0.00000000000E+00 0. -1.
         -1   -1    0    0    0  501 -0.00000000000E+00 -0.00000000000E+00 -0.21631199507E+03  0.21631199507E+03  0.00000000000E+00 0.  1.
         25    2    1    2    0    0 -0.50969224967E+02 -0.49760310983E+02 -0.81136800216E+02  0.16524189500E+03  0.12509097918E+03 0.  0.
          5    1    3    3  502    0 -0.91358002700E+02 -0.39888868829E+02 -0.42919328109E+02  0.10861375437E+03  0.41800000000E+01 0.  1.
         -5    1    3    3    0  502  0.40388777733E+02 -0.98714421542E+01 -0.38217472107E+02  0.56628140630E+02  0.41800000000E+01 0.  1.
        -11    1    1    2    0    0  0.93902641362E+01  0.69234770830E+02 -0.38641064174E+02  0.79842109146E+02  0.00000000000E+00 0.  1.
         11    1    1    2    0    0  0.41578960831E+02 -0.19474459847E+02 -0.18326171717E+02  0.49435949873E+02  0.00000000000E+00 0. -1.
</event>
<event>
 7    1  0.2556591E-009  0.1099478E+03  0.7561462E-02  0.1260667E+00
         -2   -1    0    0    0  501 -0.00000000000E+00  0.00000000000E+00  0.49229684436E+03  0.49229684436E+03  0.00000000000E+00 0.  1.
          2   -1    0    0  501    0  0.00000000000E+00 -0.00000000000E+00 -0.40329682153E+02  0.40329682153E+02  0.00000000000E+00 0. -1.
         25    2    1    2    0    0  0.26943736880E+02  0.79936163190E+02  0.31000590238E+03  0.34477139657E+03  0.12509157142E+03 0.  0.
          5    1    3    3  502    0 -0.37672917273E+02  0.48209626578E+02  0.22546501590E+03  0.23365650555E+03  0.41800000000E+01 0.  1.
         -5    1    3    3    0  502  0.64616654153E+02  0.31726536613E+02  0.84540886472E+02  0.11111489101E+03  0.41800000000E+01 0.  1.
        -11    1    1    2    0    0 -0.72099832591E+01 -0.50575535941E+02  0.11076548613E+02  0.52273880892E+02  0.00000000000E+00 0. -1.
         11    1    1    2    0    0 -0.19733753621E+02 -0.29360627249E+02  0.13088471122E+03  0.13558124905E+03  0.00000000000E+00 0.  1.
</event>
<event>
 7    1  0.2556591E-009  0.1236018E+03  0.7561462E-02  0.1237271E+00
         -2   -1    0    0    0  501 -0.00000000000E+00  0.00000000000E+00  0.41904063967E+02  0.41904063967E+02  0.00000000000E+00 0.  1.
          2   -1    0    0  501    0  0.00000000000E+00 -0.00000000000E+00 -0.37708004863E+03  0.37708004863E+03  0.00000000000E+00 0. -1.
         25    2    1    2    0    0  0.53551343311E+00  0.70099565567E+02 -0.18796147829E+03  0.23641419834E+03  0.12509164636E+03 0.  0.
          5    1    3    3  502    0 -0.61772864848E+02  0.33806296901E+02 -0.10389411011E+03  0.12557950094E+03  0.41800000000E+01 0. -1.
         -5    1    3    3    0  502  0.62308378281E+02  0.36293268667E+02 -0.84067368176E+02  0.11083469739E+03  0.41800000000E+01 0. -1.
        -11    1    1    2    0    0 -0.20216461249E+02  0.95704664376E+01 -0.53587487111E+02  0.58068217711E+02  0.00000000000E+00 0. -1.
         11    1    1    2    0    0  0.19680947816E+02 -0.79670032005E+02 -0.93627019265E+02  0.12450169655E+03  0.00000000000E+00 0.  1.
</event>
<event>
 7    1  0.2556591E-009  0.1033657E+03  0.7561462E-02  0.1273373E+00
          2   -1    0    0  501    0  0.00000000000E+00  0.00000000000E+00  0.23452565139E+02  0.23452565139E+02  0.00000000000E+00 0.  1.
         -2   -1    0    0    0  501 -0.00000000000E+00 -0.00000000000E+00 -0.12481768682E+04  0.12481768682E+04  0.00000000000E+00 0. -1.
         25    2    1    2    0    0 -0.59084840807E+02  0.63263040436E+01 -0.10887243275E+04  0.10974967326E+04  0.12508947234E+03 0.  0.
          5    1    3    3  502    0 -0.28376606334E+02 -0.40037325366E+02 -0.16762475072E+03  0.17471047096E+03  0.41800000000E+01 0.  1.
         -5    1    3    3    0  502 -0.30708234472E+02  0.46363629410E+02 -0.92109957682E+03  0.92278626161E+03  0.41800000000E+01 0.  1.
        -11    1    1    2    0    0  0.79857500817E+02  0.46082713408E+00 -0.75863279167E+02  0.11014839955E+03  0.00000000000E+00 0.  1.
         11    1    1    2    0    0 -0.20772660010E+02 -0.67871311777E+01 -0.60136696366E+02  0.63984301226E+02  0.00000000000E+00 0. -1.
</event>
<event>
 7    1  0.2556591E-009  0.1121053E+03  0.7561462E-02  0.1256720E+00
         -1   -1    0    0    0  501 -0.00000000000E+00  0.00000000000E+00  0.27493755905E+02  0.27493755905E+02  0.00000000000E+00 0.  1.
          1   -1    0    0  501    0  0.00000000000E+00 -0.00000000000E+00 -0.49656908771E+03  0.49656908771E+03  0.00000000000E+00 0. -1.
         25    2    1    2    0    0 -0.27557020724E+02  0.29881569495E+02 -0.21249598635E+03  0.24990858157E+03  0.12508979710E+03 0.  0.
          5    1    3    3  502    0  0.46832231177E+02  0.26477344450E+02 -0.11610135126E+03  0.12802852733E+03  0.41800000000E+01 0. -1.
         -5    1    3    3    0  502 -0.74389251901E+02  0.34042250458E+01 -0.96394635096E+02  0.12188005424E+03  0.41800000000E+01 0. -1.
        -11    1    1    2    0    0 -0.20675383936E+02 -0.41223087891E+02 -0.10497188825E+03  0.11465562262E+03  0.00000000000E+00 0. -1.
         11    1    1    2    0    0  0.48232404659E+02  0.11341518395E+02 -0.15160745721E+03  0.15949863943E+03  0.00000000000E+00 0.  1.
</event>
<event>
 7    1  0.2556591E-009  0.1156528E+03  0.7561462E-02  0.1250446E+00
         -1   -1    0    0    0  501 -0.00000000000E+00  0.00000000000E+00  0.69324518662E+03  0.69324518662E+03  0.00000000000E+00 0.  1.
          1   -1    0    0  501    0  0.00000000000E+00 -0.00000000000E+00 -0.27453929594E+02  0.27453929594E+02  0.00000000000E+00 0. -1.
         25    2    1    2    0    0 -0.16131347225E+02  0.85929129087E+02  0.42739671709E+03  0.45382757966E+03  0.12508989846E+03 0.  0.
          5    1    3    3  502    0  0.17366633764E+02 -0.21198903154E+02  0.29931450464E+02  0.40796538948E+02  0.41800000000E+01 0. -1.
         -5    1    3    3    0  502 -0.33497980989E+02  0.10712803224E+03  0.39746526662E+03  0.41303104071E+03  0.41800000000E+01 0. -1.
        -11    1    1    2    0    0  0.48647438395E+01 -0.76264446597E+02  0.24006417243E+03  0.25193399618E+03  0.00000000000E+00 0.  1.
         11    1    1    2    0    0  0.11266603385E+02 -0.96646824895E+01 -0.16696324963E+01  0.14937540364E+02  0.00000000000E+00 0. -1.
</event>
<event>
 7    1  0.2556591E-009  0.8394458E+02  0.7561462E-02  0.1318216E+00
         -2   -1    0    0    0  501 -0.00000000000E+00  0.00000000000E+00  0.11640065867E+03  0.11640065867E+03  0.00000000000E+00 0.  1.
          2   -1    0    0  501    0  0.00000000000E+00 -0.00000000000E+00 -0.11280085800E+03  0.11280085800E+03  0.00000000000E+00 0. -1.
         25    2    1    2    0    0  0.27642060391E+02 -0.68587855266E+01 -0.22561253315E+02  0.13026208811E+03  0.12509226598E+03 0.  0.
          5    1    3    3  502    0 -0.14610454595E+02 -0.22973666995E+02  0.42664403369E+02  0.50783643759E+02  0.41800000000E+01 0. -1.
         -5    1    3    3    0  502  0.42252514986E+02  0.16114881468E+02 -0.65225656684E+02  0.79478444355E+02  0.41800000000E+01 0. -1.
        -11    1    1    2    0    0  0.30561055509E+02  0.18288585268E+02  0.14688435976E+02  0.38525324351E+02  0.00000000000E+00 0.  1.
         11    1    1    2    0    0 -0.58203115900E+02 -0.11429799741E+02  0.11472618016E+02  0.60414104204E+02  0.00000000000E+00 0. -1.
</event>
<event>
 7    1  0.2556591E-009  0.8817032E+02  0.7561462E-02  0.1307344E+00
          2   -1    0    0  501    0  0.00000000000E+00  0.00000000000E+00  0.94693033109E+03  0.94693033109E+03  0.00000000000E+00 0. -1.
         -2   -1    0    0    0  501 -0.00000000000E+00 -0.00000000000E+00 -0.14495876237E+02  0.14495876237E+02  0.00000000000E+00 0.  1.
         25    2    1    2    0    0  0.28570184558E+02 -0.99263949973E+01  0.68617837498E+03  0.69814289107E+03  0.12509174751E+03 0.  0.
          5    1    3    3  502    0  0.54097613522E+02 -0.20365587737E+02  0.14368391240E+03  0.15493175283E+03  0.41800000000E+01 0.  1.
         -5    1    3    3    0  502 -0.25527428964E+02  0.10439192739E+02  0.54249446259E+03  0.54321113824E+03  0.41800000000E+01 0.  1.
        -11    1    1    2    0    0 -0.28381036020E+02 -0.35283217744E+02  0.92018476943E+02  0.10255627118E+03  0.00000000000E+00 0.  1.
         11    1    1    2    0    0 -0.18914853740E+00  0.45209612741E+02  0.15423760293E+03  0.16072704507E+03  0.00000000000E+00 0. -1.
</event>
<event>
 7    1  0.2556591E-009  0.1245232E+03  0.7561462E-02  0.1235816E+00
          3   -1    0    0  501    0  0.00000000000E+00  0.00000000000E+00  0.67485473128E+02  0.67485473128E+02  0.00000000000E+00 0. -1.
         -3   -1    0    0    0  501 -0.00000000000E+00 -0.00000000000E+00 -0.29006814175E+03  0.29006814175E+03  0.00000000000E+00 0.  1.
         25    2    1    2    0    0  0.86750086890E+02 -0.26083875396E+01 -0.10012827267E+03  0.18222733208E+03  0.12509495717E+03 0.  0.
          5    1    3    3  502    0  0.60822625349E+02 -0.55594174002E+02 -0.24194750027E+02  0.85982336943E+02  0.41800000000E+01 0. -1.
         -5    1    3    3    0  502  0.25927461541E+02  0.52985786462E+02 -0.75933522639E+02  0.96244995139E+02  0.41800000000E+01 0. -1.
        -11    1    1    2    0    0 -0.65029621649E+02  0.30683415757E+02 -0.11981078228E+03  0.13973169735E+03  0.00000000000E+00 0.  1.
         11    1    1    2    0    0 -0.21720465241E+02 -0.28075028218E+02 -0.26436136764E+01  0.35594585445E+02  0.00000000000E+00 0. -1.
</event>
<event>
 7    1  0.2556591E-009  0.3553944E+03  0.7561462E-02  0.1060422E+00
         -2   -1    0    0    0  501 -0.00000000000E+00  0.00000000000E+00  0.12443488158E+03  0.12443488158E+03  0.00000000000E+00 0.  1.
          2   -1    0    0  501    0  0.00000000000E+00 -0.00000000000E+00 -0.10894927102E+04  0.10894927102E+04  0.00000000000E+00 0. -1.
         25    2    1    2    0    0  0.34216805936E+03  0.71047857383E+02 -0.54748255680E+03  0.66144624221E+03  0.12508877826E+03 0.  0.
          5    1    3    3  502    0  0.86903751248E+02  0.23927165219E+02 -0.25433910564E+03  0.26987149585E+03  0.41800000000E+01 0. -1.
         -5    1    3    3    0  502  0.25526430811E+03  0.47120692164E+02 -0.29314345117E+03  0.39157474636E+03  0.41800000000E+01 0. -1.
        -11    1    1    2    0    0 -0.30475885465E+03 -0.91643563299E+02 -0.37943686549E+03  0.49522604644E+03  0.00000000000E+00 0.  1.
         11    1    1    2    0    0 -0.37409204703E+02  0.20595705916E+02 -0.38138406289E+02  0.57255303099E+02  0.00000000000E+00 0. -1.
</event>
<event>
 7    1  0.2556591E-009  0.1132263E+03  0.7561462E-02  0.1254709E+00
         -1   -1    0    0    0  501 -0.00000000000E+00  0.00000000000E+00  0.83606726815E+02  0.83606726815E+02  0.00000000000E+00 0.  1.
          1   -1    0    0  501    0  0.00000000000E+00 -0.00000000000E+00 -0.21548597994E+03  0.21548597994E+03  0.00000000000E+00 0. -1.
         25    2    1    2    0    0 -0.49561850332E+02  0.32123146040E+02 -0.15884340969E+02  0.13925212762E+03  0.12510223515E+03 0.  0.
          5    1    3    3  502    0 -0.11918187662E+02  0.74474337864E+02  0.11107219844E+02  0.76349937329E+02  0.41800000000E+01 0. -1.
         -5    1    3    3    0  502 -0.37643662670E+02 -0.42351191824E+02 -0.26991560813E+02  0.62902190289E+02  0.41800000000E+01 0. -1.
        -11    1    1    2    0    0  0.15849293929E+02 -0.52408802184E+02 -0.10590622834E+03  0.11922253086E+03  0.00000000000E+00 0. -1.
         11    1    1    2    0    0  0.33712556404E+02  0.20285656143E+02 -0.10088683817E+02  0.40618048274E+02  0.00000000000E+00 0.  1.
</event>
<event>
 7    1  0.2556591E-009  0.1164804E+03  0.7561462E-02  0.1249019E+00
          2   -1    0    0  501    0  0.00000000000E+00  0.00000000000E+00  0.10602972773E+04  0.10602972773E+04  0.00000000000E+00 0. -1.
         -2   -1    0    0    0  501 -0.00000000000E+00 -0.00000000000E+00 -0.19986557979E+02  0.19986557979E+02  0.00000000000E+00 0.  1.
         25    2    1    2    0    0 -0.68573967544E+02  0.62075776732E+02  0.48242637762E+03  0.50689073944E+03  0.12508885174E+03 0.  0.
          5    1    3    3  502    0 -0.19438788283E+02  0.43464637056E+02  0.42931630003E+02  0.64246699674E+02  0.41800000000E+01 0. -1.
         -5    1    3    3    0  502 -0.49135179261E+02  0.18611139675E+02  0.43949474761E+03  0.44264403977E+03  0.41800000000E+01 0. -1.
        -11    1    1    2    0    0  0.30940591361E+01 -0.66738960194E+02  0.28118735413E+03  0.28901555344E+03  0.00000000000E+00 0.  1.
         11    1    1    2    0    0  0.65479908408E+02  0.46631834623E+01  0.27669698757E+03  0.28437754239E+03  0.00000000000E+00 0. -1.
</event>
<event>
 7    1  0.2556591E-009  0.1445306E+03  0.7561462E-02  0.1207360E+00
         -1   -1    0    0    0  501 -0.00000000000E+00  0.00000000000E+00  0.57866832215E+03  0.57866832215E+03  0.00000000000E+00 0.  1.
          1   -1    0    0  501    0  0.00000000000E+00 -0.00000000000E+00 -0.57834957952E+02  0.57834957952E+02  0.00000000000E+00 0. -1.
         25    2    1    2    0    0  0.11382482055E+01  0.11186472223E+03  0.45066803956E+03  0.48089961364E+03  0.12509094621E+03 0.  0.
          5    1    3    3  502    0  0.62689447123E+02  0.50646838926E+02  0.22889342470E+03  0.24270298998E+03  0.41800000000E+01 0.  1.
         -5    1    3    3    0  502 -0.61551198918E+02  0.61217883308E+02  0.22177461486E+03  0.23819662366E+03  0.41800000000E+01 0.  1.
        -11    1    1    2    0    0 -0.21178609083E+02 -0.27352324912E+02  0.58506992911E+02  0.67968752969E+02  0.00000000000E+00 0.  1.
         11    1    1    2    0    0  0.20040360877E+02 -0.84512397322E+02  0.11658331727E+02  0.87634913498E+02  0.00000000000E+00 0. -1.
</event>
<event>
 7    1  0.2556591E-009  0.1076790E+03  0.7561462E-02  0.1264929E+00
         -2   -1    0    0    0  501 -0.00000000000E+00  0.00000000000E+00  0.39606648830E+02  0.39606648830E+02  0.00000000000E+00 0.  1.
          2   -1    0    0  501    0  0.00000000000E+00 -0.00000000000E+00 -0.45833173099E+03  0.45833173099E+03  0.00000000000E+00 0. -1.
         25    2    1    2    0    0 -0.39664784347E+01 -0.79578872030E+01 -0.83644274845E+02  0.15074069181E+03  0.12508929024E+03 0.  0.
          5    1    3    3  502    0  0.54667878804E+02 -0.29016452800E+02 -0.50854958104E+02  0.80213656379E+02  0.41800000000E+01 0. -1.
         -5    1    3    3    0  502 -0.58634357238E+02  0.21058565597E+02 -0.32789316741E+02  0.70527035427E+02  0.41800000000E+01 0. -1.
        -11    1    1    2    0    0  0.44694192791E+02 -0.10897872999E+02 -0.17469773218E+03  0.18065334797E+03  0.00000000000E+00 0.  1.
         11    1    1    2    0    0 -0.40727714357E+02  0.18855760202E+02 -0.16038307514E+03  0.16654434004E+03  0.00000000000E+00 0. -1.
</event>
<event>
 7    1  0.2556591E-009  0.1211207E+03  0.7561462E-02  0.1241260E+00
         -2   -1    0    0    0  501 -0.00000000000E+00  0.00000000000E+00  0.42747271334E+02  0.42747271334E+02  0.00000000000E+00 0. -1.
          2   -1    0    0  501    0  0.00000000000E+00 -0.00000000000E+00 -0.49383250693E+03  0.49383250693E+03  0.00000000000E+00 0.  1.
         25    2    1    2    0    0  0.96000340118E+01 -0.77963126499E+02 -0.35379567225E+03  0.38338938602E+03  0.12508250820E+03 0.  0.
          5    1    3    3  502    0  0.55060699208E+02 -0.38636763983E+02 -0.28061421852E+03  0.28859364540E+03  0.41800000000E+01 0.  1.
         -5    1    3    3    0  502 -0.45460665196E+02 -0.39326362516E+02 -0.73181453734E+02  0.94795740619E+02  0.41800000000E+01 0.  1.
        -11    1    1    2    0    0 -0.37060208617E+02  0.78841904712E+02 -0.88885887126E+02  0.12445965584E+03  0.00000000000E+00 0.  1.
         11    1    1    2    0    0  0.27460174605E+02 -0.87877821326E+00 -0.84036762133E+01  0.28730736405E+02  0.00000000000E+00 0. -1.
</event>
<event>
 7    1  0.2556591E-009  0.1428293E+03  0.7561462E-02  0.1209572E+00
         -3   -1    0    0    0  501 -0.00000000000E+00  0.00000000000E+00  0.71745581431E+03  0.71745581431E+03  0.00000000000E+00 0.  1.
          3   -1    0    0  501    0  0.00000000000E+00 -0.00000000000E+00 -0.32212051906E+02  0.32212051906E+02  0.00000000000E+00 0. -1.
         25    2    1    2    0    0  0.10966555516E+02  0.10381483178E+03  0.42714401194E+03  0.45716190038E+03  0.12508881479E+03 0.  0.
          5    1    3    3  502    0  0.65091810658E+02  0.31500935174E+02  0.19661698157E+03  0.20953511060E+03  0.41800000000E+01 0.  1.
         -5    1    3    3    0  502 -0.54125255143E+02  0.72313896610E+02  0.23052703036E+03  0.24762678978E+03  0.41800000000E+01 0.  1.
        -11    1    1    2    0    0 -0.38095891755E+02 -0.66950672615E+02  0.21952620229E+03  0.23264875462E+03  0.00000000000E+00 0.  1.
         11    1    1    2    0    0  0.27129336239E+02 -0.36864159169E+02  0.38573548168E+02  0.59857211214E+02  0.00000000000E+00 0. -1.
</event>
<event>
 7    1  0.2556591E-009  0.7884328E+02  0.7561462E-02  0.1332366E+00
          2   -1    0    0  501    0  0.00000000000E+00  0.00000000000E+00  0.95612701816E+02  0.95612701816E+02  0.00000000000E+00 0. -1.
         -2   -1    0    0    0  501 -0.00000000000E+00 -0.00000000000E+00 -0.20730103202E+03  0.20730103202E+03  0.00000000000E+00 0.  1.
         25    2    1    2    0    0 -0.15170177137E+02 -0.39647837700E+02  0.23657653009E+02  0.13420039740E+03  0.12509187347E+03 0.  0.
          5    1    3    3  502    0 -0.40309183456E+02 -0.37236626152E+02 -0.38375287726E+02  0.67093455017E+02  0.41800000000E+01 0.  1.
         -5    1    3    3    0  502  0.25139006319E+02 -0.24112115481E+01  0.62032940735E+02  0.67106942384E+02  0.41800000000E+01 0.  1.
        -11    1    1    2    0    0  0.29858225732E+02  0.50585584773E+02 -0.13821271020E+03  0.15017712306E+03  0.00000000000E+00 0.  1.
         11    1    1    2    0    0 -0.14688048595E+02 -0.10937747073E+02  0.28667269871E+01  0.18536213373E+02  0.00000000000E+00 0. -1.
</event>
<event>
 7    1  0.2556591E-009  0.1886400E+03  0.7561462E-02  0.1159694E+00
          1   -1    0    0  501    0  0.00000000000E+00  0.00000000000E+00  0.72830296867E+02  0.72830296867E+02  0.00000000000E+00 0. -1.
         -1   -1    0    0    0  501 -0.00000000000E+00 -0.00000000000E+00 -0.59401478987E+03  0.59401478987E+03  0.00000000000E+00 0.  1.
         25    2    1    2    0    0 -0.11904079758E+03  0.12465990623E+03 -0.21554271439E+03  0.30301342173E+03  0.12509064039E+03 0.  0.
          5    1    3    3  502    0 -0.32369951064E+02  0.10403713624E+03 -0.61958687300E+02  0.12541088781E+03  0.41800000000E+01 0. -1.
         -5    1    3    3    0  502 -0.86670846516E+02  0.20622769988E+02 -0.15358402709E+03  0.17760253392E+03  0.41800000000E+01 0. -1.
        -11    1    1    2    0    0  0.31430774988E+02 -0.67301147508E+01 -0.99382721463E+01  0.33644573324E+02  0.00000000000E+00 0. -1.
         11    1    1    2    0    0  0.87610022592E+02 -0.11792979148E+03 -0.29570350646E+03  0.33018709167E+03  0.00000000000E+00 0.  1.
</event>
<event>
 7    1  0.2556591E-009  0.2384271E+03  0.7561462E-02  0.1120845E+00
         -1   -1    0    0    0  501 -0.00000000000E+00  0.00000000000E+00  0.37165364049E+03  0.37165364049E+03  0.00000000000E+00 0.  1.
          1   -1    0    0  501    0  0.00000000000E+00 -0.00000000000E+00 -0.16995872338E+03  0.16995872338E+03  0.00000000000E+00 0. -1.
         25    2    1    2    0    0  0.14521191368E+02 -0.21832646385E+03  0.15622382996E+03  0.29653029100E+03  0.12508804346E+03 0.  0.
          5    1    3    3  502    0 -0.35527844468E+02 -0.55587223861E+02  0.10255144986E+01  0.66111203809E+02  0.41800000000E+01 0.  1.
         -5    1    3    3    0  502  0.50049035836E+02 -0.16273923999E+03  0.15519831546E+03  0.23041908719E+03  0.41800000000E+01 0.  1.
        -11    1    1    2    0    0  0.39149928080E+02  0.14083351424E+03  0.20831264680E+02  0.14765072703E+03  0.00000000000E+00 0.  1.
         11    1    1    2    0    0 -0.53671119448E+02  0.77492949603E+02  0.24639822468E+02  0.97431345840E+02  0.00000000000E+00 0. -1.
</event>
<event>
 7    1  0.2556591E-009  0.3101677E+03  0.7561462E-02  0.1080266E+00
          1   -1    0    0  501    0  0.00000000000E+00  0.00000000000E+00  0.10467428965E+04  0.10467428965E+04  0.00000000000E+00 0. -1.
         -1   -1    0    0    0  501 -0.00000000000E+00 -0.00000000000E+00 -0.13421666393E+03  0.13421666393E+03  0.00000000000E+00 0.  1.
         25    2    1    2    0    0 -0.28966184035E+03  0.47451157048E+02  0.13799367878E+03  0.34762351032E+03  0.12507699821E+03 0.  0.
          5    1    3    3  502    0 -0.28855510518E+03  0.24482141920E+02  0.10689051598E+03  0.30871747409E+03  0.41800000000E+01 0. -1.
         -5    1    3    3    0  502 -0.11067351676E+01  0.22969015128E+02  0.31103162806E+02  0.38906036231E+02  0.41800000000E+01 0. -1.
        -11    1    1    2    0    0  0.18666191798E+03  0.14367204468E+02  0.45918749835E+03  0.49588531620E+03  0.00000000000E+00 0.  1.
         11    1    1    2    0    0  0.10299992237E+03 -0.61818361516E+02  0.31534505547E+03  0.33745073394E+03  0.00000000000E+00 0. -1.
</event>
<event>
 7    1  0.2556591E-009  0.1276874E+03  0.7561462E-02  0.1230928E+00
         -1   -1    0    0    0  501 -0.00000000000E+00  0.00000000000E+00  0.16686094614E+02  0.16686094614E+02  0.00000000000E+00 0.  1.
          1   -1    0    0  501    0  0.00000000000E+00 -0.00000000000E+00 -0.11291581823E+04  0.11291581823E+04  0.00000000000E+00 0. -1.
         25    2    1    2    0    0  0.85274802333E+01 -0.83076964263E+02 -0.61865242442E+03  0.63667300057E+03  0.12508871851E+03 0.  0.
          5    1    3    3  502    0 -0.35107445410E+02 -0.80566181801E+02 -0.24251181278E+03  0.25797847606E+03  0.41800000000E+01 0.  1.
         -5    1    3    3    0  502  0.43634925643E+02 -0.25107824622E+01 -0.37614061164E+03  0.37869452450E+03  0.41800000000E+01 0.  1.
        -11    1    1    2    0    0  0.15455421454E+02 -0.15585974803E+02 -0.10851623945E+03  0.11071389654E+03  0.00000000000E+00 0.  1.
         11    1    1    2    0    0 -0.23982901688E+02  0.98662939066E+02 -0.38530342379E+03  0.39845737978E+03  0.00000000000E+00 0. -1.
</event>
<event>
 7    1  0.2556591E-009  0.1428334E+03  0.7561462E-02  0.1209566E+00
          1   -1    0    0  501    0  0.00000000000E+00  0.00000000000E+00  0.92798831452E+02  0.92798831452E+02  0.00000000000E+00 0. -1.
         -1   -1    0    0    0  501 -0.00000000000E+00 -0.00000000000E+00 -0.29949260302E+03  0.29949260302E+03  0.00000000000E+00 0.  1.
         25    2    1    2    0    0 -0.24555794962E+02  0.12240342622E+03 -0.86799363544E+02  0.19689543255E+03  0.12509235001E+03 0.  0.
          5    1    3    3  502    0  0.20336757708E+02  0.10796853247E+03 -0.15102435526E+02  0.11097902359E+03  0.41800000000E+01 0.  1.
         -5    1    3    3    0  502 -0.44892552669E+02  0.14434893756E+02 -0.71696928018E+02  0.85916408969E+02  0.41800000000E+01 0.  1.
        -11    1    1    2    0    0 -0.70757155062E+01 -0.23142419949E+02  0.12250225172E+02  0.27123889245E+02  0.00000000000E+00 0. -1.
         11    1    1    2    0    0  0.31631510468E+02 -0.99261006274E+02 -0.13214463320E+03  0.16827211268E+03  0.00000000000E+00 0.  1.
</event>
<event>
 7    1  0.2556591E-009  0.1661064E+03  0.7561462E-02  0.1181970E+00
          2   -1    0    0  501    0  0.00000000000E+00  0.00000000000E+00  0.40138812399E+03  0.40138812399E+03  0.00000000000E+00 0. -1.
         -2   -1    0    0    0  501 -0.00000000000E+00 -0.00000000000E+00 -0.81578147849E+02  0.81578147849E+02  0.00000000000E+00 0.  1.
         25    2    1    2    0    0  0.12978580848E+02  0.14084694391E+03  0.17065868029E+03  0.25451620216E+03  0.12509119406E+03 0.  0.
          5    1    3    3  502    0 -0.48505547902E+02  0.80007944383E+02  0.50499973379E+02  0.10640384886E+03  0.41800000000E+01 0. -1.
         -5    1    3    3    0  502  0.61484128750E+02  0.60838999532E+02  0.12015870692E+03  0.14811235330E+03  0.41800000000E+01 0. -1.
        -11    1    1    2    0    0 -0.31297882583E+02 -0.47864572533E+02  0.11368914621E+03  0.12726270752E+03  0.00000000000E+00 0. -1.
         11    1    1    2    0    0  0.18319301735E+02 -0.92982371382E+02  0.35462149630E+02  0.10118736216E+03  0.00000000000E+00 0.  1.
</event>
<event>
 7    1  0.2556591E-009  0.2443898E+03  0.7561462E-02  0.1116903E+00
          1   -1    0    0  501    0  0.00000000000E+00  0.00000000000E+00  0.37388730581E+03  0.37388730581E+03  0.00000000000E+00 0. -1.
         -1   -1    0    0    0  501 -0.00000000000E+00 -0.00000000000E+00 -0.17896797804E+03  0.17896797804E+03  0.00000000000E+00 0.  1.
         25    2    1    2    0    0 -0.21357264198E+03 -0.90578869250E+02  0.63392803322E+02  0.27107825583E+03  0.12508784239E+03 0.  0.
          5    1    3    3  502    0 -0.96303122475E+02 -0.73503636673E+02  0.88223631495E+02  0.14992650719E+03  0.41800000000E+01 0. -1.
         -5    1    3    3    0  502 -0.11726951950E+03 -0.17075232577E+02 -0.24830828173E+02  0.12115174864E+03  0.41800000000E+01 0. -1.
        -11    1    1    2    0    0  0.12220459693E+03  0.27395303923E+01  0.58680711411E+02  0.13559090836E+03  0.00000000000E+00 0.  1.
         11    1    1    2    0    0  0.91368045042E+02  0.87839338858E+02  0.72845813038E+02  0.14618611967E+03  0.00000000000E+00 0. -1.
</event>
<event>
 7    1  0.2556591E-009  0.9366054E+02  0.7561462E-02  0.1294222E+00
         -2   -1    0    0    0  501 -0.00000000000E+00  0.00000000000E+00  0.51865207471E+02  0.51865207471E+02  0.00000000000E+00 0.  1.
          2   -1    0    0  501    0  0.00000000000E+00 -0.00000000000E+00 -0.30012769577E+03  0.30012769577E+03  0.00000000000E+00 0. -1.
         25    2    1    2    0    0 -0.50753179101E+02 -0.34254861609E+01 -0.18298744757E+03  0.22742013913E+03  0.12509154475E+03 0.  0.
          5    1    3    3  502    0 -0.90921956860E+02 -0.14467609287E+02 -0.11242953375E+03  0.14537532947E+03  0.41800000000E+01 0. -1.
         -5    1    3    3    0  502  0.40168777759E+02  0.11042123126E+02 -0.70557913819E+02  0.82044809661E+02  0.41800000000E+01 0. -1.
        -11    1    1    2    0    0  0.33522721688E+02 -0.53647263687E+01  0.18452444379E+02  0.38639951630E+02  0.00000000000E+00 0.  1.
         11    1    1    2    0    0  0.17230457413E+02  0.87902125296E+01 -0.83727485104E+02  0.85932812481E+02  0.00000000000E+00 0. -1.
</event>
<event>
 7    1  0.2556591E-009  0.1101117E+03  0.7561462E-02  0.1260363E+00
         -4   -1    0    0    0  501 -0.00000000000E+00  0.00000000000E+00  0.58466042116E+03  0.58466042116E+03  0.00000000000E+00 0.  1.
          4   -1    0    0  501    0  0.00000000000E+00 -0.00000000000E+00 -0.22164741025E+02  0.22164741025E+02  0.00000000000E+00 0. -1.
         25    2    1    2    0    0 -0.88833587949E+01  0.25775967145E+02  0.38269284149E+03  0.40354034396E+03  0.12509070200E+03 0.  0.
          5    1    3    3  502    0 -0.11376738719E+02  0.76227889200E+02  0.22116984705E+03  0.23425134988E+03  0.41800000000E+01 0. -1.
         -5    1    3    3    0  502  0.24933799239E+01 -0.50451922056E+02  0.16152299444E+03  0.16928899408E+03  0.41800000000E+01 0. -1.
        -11    1    1    2    0    0 -0.10371113734E+02 -0.55760818484E+02  0.86784455541E+02  0.10367434881E+03  0.00000000000E+00 0. -1.
         11    1    1    2    0    0  0.19254472528E+02  0.29984851339E+02  0.93018383107E+02  0.99610469420E+02  0.00000000000E+00 0.  1.
</event>
<event>
 7    1  0.2556591E-009  0.1114791E+03  0.7561462E-02  0.1257855E+00
         -2   -1    0    0    0  501 -0.00000000000E+00  0.00000000000E+00  0.20331342572E+02  0.20331342572E+02  0.00000000000E+00 0.  1.
          2   -1    0    0  501    0  0.00000000000E+00 -0.00000000000E+00 -0.79055504354E+03  0.79055504354E+03  0.00000000000E+00 0. -1.
         25    2    1    2    0    0  0.37149412362E+02 -0.13776959663E+02 -0.61453058790E+03  0.62838363652E+03  0.12509303628E+03 0.  0.
          5    1    3    3  502    0 -0.44025576292E+02  0.87055713830E+01 -0.26623443540E+03  0.27002274966E+03  0.41800000000E+01 0.  1.
         -5    1    3    3    0  502  0.81174988653E+02 -0.22482531046E+02 -0.34829615250E+03  0.35836088686E+03  0.41800000000E+01 0.  1.
        -11    1    1    2    0    0  0.26829744592E+02 -0.40530936799E+01 -0.30799049748E+02  0.41046854065E+02  0.00000000000E+00 0.  1.
         11    1    1    2    0    0 -0.63979156954E+02  0.17830053343E+02 -0.12489406332E+03  0.14145589553E+03  0.00000000000E+00 0. -1.
</event>
<event>
 7    1  0.2556591E-009  0.6644218E+02  0.7561462E-02  0.1372627E+00
         -1   -1    0    0    0  501 -0.00000000000E+00  0.00000000000E+00  0.35613579556E+03  0.35613579556E+03  0.00000000000E+00 0.  1.
          1   -1    0    0  501    0  0.00000000000E+00 -0.00000000000E+00 -0.47623259713E+02  0.47623259713E+02  0.00000000000E+00 0. -1.
         25    2    1    2    0    0 -0.40704396227E+02 -0.42144622519E+02  0.22365883660E+03  0.26287629326E+03  0.12509058035E+03 0.  0.
          5    1    3    3  502    0 -0.49406906514E+02 -0.35454466858E+02  0.23722541312E+03  0.24493148157E+03  0.41800000000E+01 0.  1.
         -5    1    3    3    0  502  0.87025102872E+01 -0.66901556607E+01 -0.13566576528E+02  0.17944811695E+02  0.41800000000E+01 0.  1.
        -11    1    1    2    0    0  0.14507023129E+02  0.63739870082E+01  0.94239544319E+02  0.95562404448E+02  0.00000000000E+00 0.  1.
         11    1    1    2    0    0  0.26197373098E+02  0.35770635510E+02 -0.93858450674E+01  0.45320357563E+02  0.00000000000E+00 0. -1.
</event>
<event>
 7    1  0.2556591E-009  0.1137603E+03  0.7561462E-02  0.1253761E+00
         -2   -1    0    0    0  501 -0.00000000000E+00  0.00000000000E+00  0.14793048199E+02  0.14793048199E+02  0.00000000000E+00 0.  1.
          2   -1    0    0  501    0  0.00000000000E+00 -0.00000000000E+00 -0.98102479384E+03  0.98102479384E+03  0.00000000000E+00 0. -1.
         25    2    1    2    0    0  0.16776124870E+02 -0.39458071597E+02 -0.67867648938E+03  0.69144012595E+03  0.12509713328E+03 0.  0.
          5    1    3    3  502    0 -0.34558060279E+02 -0.62319633229E+02 -0.28767531987E+03  0.29639932233E+03  0.41800000000E+01 0.  1.
         -5    1    3    3    0  502  0.51334185148E+02  0.22861561632E+02 -0.39100116951E+03  0.39504080362E+03  0.41800000000E+01 0.  1.
        -11    1    1    2    0    0 -0.37215384349E+02 -0.16130597080E+02 -0.11637729614E+03  0.12324307709E+03  0.00000000000E+00 0. -1.
         11    1    1    2    0    0  0.20439259480E+02  0.55588668677E+02 -0.17117796012E+03  0.18113463900E+03  0.00000000000E+00 0.  1.
</event>
<event>
 7    1  0.2556591E-009  0.1107223E+03  0.7561462E-02  0.1259238E+00
         -2   -1    0    0    0  501 -0.00000000000E+00  0.00000000000E+00  0.27410152740E+03  0.27410152740E+03  0.00000000000E+00 0.  1.
          2   -1    0    0  501    0  0.00000000000E+00 -0.00000000000E+00 -0.71996678963E+02  0.71996678963E+02  0.00000000000E+00 0. -1.
         25    2    1    2    0    0  0.72255377165E+02 -0.46673429510E+02  0.12984451259E+03  0.19976814316E+03  0.12509382487E+03 0.  0.
          5    1    3    3  502    0  0.75873199064E+02 -0.73313284165E+02  0.52787647632E+02  0.11804909197E+03  0.41800000000E+01 0. -1.
         -5    1    3    3    0  502 -0.36178218995E+01  0.26639854654E+02  0.77056864958E+02  0.81719051196E+02  0.41800000000E+01 0. -1.
        -11    1    1    2    0    0 -0.39477619864E+02  0.37878858961E+02 -0.11543426864E+02  0.55915482025E+02  0.00000000000E+00 0. -1.
         11    1    1    2    0    0 -0.32777757301E+02  0.87945705490E+01  0.83803762708E+02  0.90414581174E+02  0.00000000000E+00 0.  1.
</event>
<event>
 7    1  0.2556591E-009  0.1250467E+03  0.7561462E-02  0.1234996E+00
         -2   -1    0    0    0  501 -0.00000000000E+00  0.00000000000E+00  0.18188517602E+02  0.18188517602E+02  0.00000000000E+00 0.  1.
          2   -1    0    0  501    0  0.00000000000E+00 -0.00000000000E+00 -0.10423167310E+04  0.10423167310E+04  0.00000000000E+00 0. -1.
         25    2    1    2    0    0 -0.66800997344E+02 -0.40185307078E+01 -0.76358741333E+03  0.77665524758E+03  0.12509641867E+03 0.  0.
          5    1    3    3  502    0 -0.86713420674E+02 -0.43552383786E+02 -0.50045833362E+03  0.50979608036E+03  0.41800000000E+01 0. -1.
         -5    1    3    3    0  502  0.19912423331E+02  0.39533853078E+02 -0.26312907971E+03  0.26685916722E+03  0.41800000000E+01 0. -1.
        -11    1    1    2    0    0 -0.70165110176E+01 -0.27396433816E+02 -0.38573118906E+02  0.47829713723E+02  0.00000000000E+00 0. -1.
         11    1    1    2    0    0  0.73817508361E+02  0.31414964524E+02 -0.22196768121E+03  0.23602028734E+03  0.00000000000E+00 0.  1.
</event>
<event>
 7    1  0.2556591E-009  0.6582551E+02  0.7561462E-02  0.1374893E+00
         -1   -1    0    0    0  501 -0.00000000000E+00  0.00000000000E+00  0.46767319484E+02  0.46767319484E+02  0.00000000000E+00 0.  1.
          1   -1    0    0  501    0  0.00000000000E+00 -0.00000000000E+00 -0.29627429615E+03  0.29627429615E+03  0.00000000000E+00 0. -1.
         25    2    1    2    0    0  0.41835984081E+02 -0.91904026945E+01 -0.16123940050E+03  0.20851981131E+03  0.12509058467E+03 0.  0.
          5    1    3    3  502    0  0.97927682947E+01  0.24775700941E+01 -0.17213119459E+03  0.17247799053E+03  0.41800000000E+01 0. -1.
         -5    1    3    3    0  502  0.32043215787E+02 -0.11667972789E+02  0.10891794096E+02  0.36041820786E+02  0.41800000000E+01 0. -1.
        -11    1    1    2    0    0 -0.46010370886E+02  0.36503472013E+02 -0.89287886363E+02  0.10687274839E+03  0.00000000000E+00 0. -1.
         11    1    1    2    0    0  0.41743868041E+01 -0.27313069318E+02  0.10203101938E+01  0.27649055927E+02  0.00000000000E+00 0.  1.
</event>
<event>
 7    1  0.2556591E-009  0.2042805E+03  0.7561462E-02  0.1146177E+00
         -1   -1    0    0    0  501 -0.00000000000E+00  0.00000000000E+00  0.37894621039E+02  0.37894621039E+02  0.00000000000E+00 0.  1.
          1   -1    0    0  501    0  0.00000000000E+00 -0.00000000000E+00 -0.13027131760E+04  0.13027131760E+04  0.00000000000E+00 0. -1.
         25    2    1    2    0    0  0.12816281176E+03 -0.14536503986E+03 -0.63211379582E+03  0.67288255839E+03  0.12508551231E+03 0.  0.
          5    1    3    3  502    0  0.55680050110E+02 -0.21555578434E+02 -0.67061470101E+02  0.89886729354E+02  0.41800000000E+01 0. -1.
         -5    1    3    3    0  502  0.72482761654E+02 -0.12380946143E+03 -0.56505232572E+03  0.58299582904E+03  0.41800000000E+01 0. -1.
        -11    1    1    2    0    0 -0.74384640898E+02  0.12910119435E+03 -0.36598289399E+03  0.39515018901E+03  0.00000000000E+00 0.  1.
         11    1    1    2    0    0 -0.53778170866E+02  0.16263845508E+02 -0.26672186517E+03  0.27257504965E+03  0.00000000000E+00 0. -1.
</event>
<event>
 7    1  0.2556591E-009  0.1385001E+03  0.7561462E-02  0.1215362E+00
         -2   -1    0    0    0  501 -0.00000000000E+00  0.00000000000E+00  0.57893000411E+02  0.57893000411E+02  0.00000000000E+00 0.  1.
          2   -1    0    0  501    0  0.00000000000E+00 -0.00000000000E+00 -0.42349160643E+03  0.42349160643E+03  0.00000000000E+00 0. -1.
         25    2    1    2    0    0  0.11053150876E+03  0.15578340357E+02 -0.19154544337E+03  0.25455298513E+03  0.12509063213E+03 0.  0.
          5    1    3    3  502    0 -0.82914340552E+00  0.36931180765E+02 -0.10635610128E+03  0.11266628719E+03  0.41800000000E+01 0. -1.
         -5    1    3    3    0  502  0.11136065217E+03 -0.21352840408E+02 -0.85189342090E+02  0.14188669793E+03  0.41800000000E+01 0. -1.
        -11    1    1    2    0    0 -0.89628267991E+02 -0.36506990426E+02 -0.72124406936E+02  0.12069762570E+03  0.00000000000E+00 0.  1.
         11    1    1    2    0    0 -0.20903240771E+02  0.20928650069E+02 -0.10192875571E+03  0.10613399601E+03  0.00000000000E+00 0. -1.
</event>
<event>
 7    1  0.2556591E-009  0.1156277E+03  0.7561462E-02  0.1250489E+00
         -1   -1    0    0    0  501 -0.00000000000E+00  0.00000000000E+00  0.28886563413E+02  0.28886563413E+02  0.00000000000E+00 0.  1.
          1   -1    0    0  501    0  0.00000000000E+00 -0.00000000000E+00 -0.49028804707E+03  0.49028804707E+03  0.00000000000E+00 0. -1.
         25    2    1    2    0    0 -0.21017437637E+02 -0.45929168690E+02 -0.28786939204E+03  0.31791033023E+03  0.12508784902E+03 0.  0.
          5    1    3    3  502    0  0.43090166452E+02 -0.52563278797E+02 -0.11891798178E+03  0.13703510321E+03  0.41800000000E+01 0.  1.
         -5    1    3    3    0  502 -0.64107604089E+02  0.66341101075E+01 -0.16895141026E+03  0.18087522701E+03  0.41800000000E+01 0.  1.
        -11    1    1    2    0    0  0.48781232909E+02  0.50751434860E+02 -0.14488397576E+03  0.16107974192E+03  0.00000000000E+00 0. -1.
         11    1    1    2    0    0 -0.27763795272E+02 -0.48222661705E+01 -0.28648115860E+02  0.40184538336E+02  0.00000000000E+00 0.  1.
</event>
<event>
 7    1  0.2556591E-009  0.1170649E+03  0.7561462E-02  0.1248019E+00
         -1   -1    0    0    0  501 -0.00000000000E+00  0.00000000000E+00  0.16075981645E+03  0.16075981645E+03  0.00000000000E+00 0.  1.
          1   -1    0    0  501    0  0.00000000000E+00 -0.00000000000E+00 -0.11136489539E+03  0.11136489539E+03  0.00000000000E+00 0. -1.
         25    2    1    2    0    0 -0.30649494365E+02  0.57842290922E+02 -0.16433428662E+02  0.14213673334E+03  0.12509065218E+03 0.  0.
          5    1    3    3  502    0 -0.32031067132E+02 -0.28286954804E+02  0.21384269601E+02  0.47967702260E+02  0.41800000000E+01 0. -1.
         -5    1    3    3    0  502  0.13815727675E+01  0.86129245726E+02 -0.37817698263E+02  0.94169031080E+02  0.41800000000E+01 0. -1.
        -11    1    1    2    0    0 -0.20972074268E+02 -0.48024371013E+02  0.10054647175E+02  0.53359760495E+02  0.00000000000E+00 0. -1.
         11    1    1    2    0    0  0.51621568633E+02 -0.98179199094E+01  0.55773702548E+02  0.76628218010E+02  0.00000000000E+00 0.  1.
</event>
<event>
 7    1  0.2556591E-009  0.1495176E+03  0.7561462E-02  0.1201067E+00
          3   -1    0    0  501    0  0.00000000000E+00  0.00000000000E+00  0.61419898626E+02  0.61419898626E+02  0.00000000000E+00 0. -1.
         -3   -1    0    0    0  501 -0.00000000000E+00 -0.00000000000E+00 -0.43342099365E+03  0.43342099365E+03  0.00000000000E+00 0.  1.
         25    2    1    2    0    0  0.79979195425E+02  0.89476027496E+02 -0.22590317395E+03  0.28474863255E+03  0.12508760346E+03 0.  0.
          5    1    3    3  502    0  0.99209434079E+02  0.43948152262E+02 -0.20278031165E+03  0.23002451846E+03  0.41800000000E+01 0. -1.
         -5    1    3    3    0  502 -0.19230238654E+02  0.45527875234E+02 -0.23122862293E+02  0.54724114087E+02  0.41800000000E+01 0. -1.
        -11    1    1    2    0    0 -0.32233867510E+02  0.71966229967E+01 -0.64281825873E+01  0.33647215763E+02  0.00000000000E+00 0.  1.
         11    1    1    2    0    0 -0.47745327916E+02 -0.96672650492E+02 -0.13966973849E+03  0.17644504396E+03  0.00000000000E+00 0. -1.
</event>
<event>
 7    1  0.2556591E-009  0.1471570E+03  0.7561462E-02  0.1204011E+00
          3   -1    0    0  501    0  0.00000000000E+00  0.00000000000E+00  0.16857351939E+03  0.16857351939E+03  0.00000000000E+00 0. -1.
         -3   -1    0    0    0  501 -0.00000000000E+00 -0.00000000000E+00 -0.19453166770E+03  0.19453166770E+03  0.00000000000E+00 0.  1.
         25    2    1    2    0    0 -0.89939191288E+02  0.10812383123E+03  0.21744569007E+02  0.18947252760E+03  0.12508873421E+03 0.  0.
          5    1    3    3  502    0 -0.87618368272E+02  0.91851361638E+02  0.65242144835E+02  0.14278536674E+03  0.41800000000E+01 0. -1.
         -5    1    3    3    0  502 -0.23208230167E+01  0.16272469589E+02 -0.43497575828E+02  0.46687160858E+02  0.41800000000E+01 0. -1.
        -11    1    1    2    0    0  0.63681446513E+02 -0.35034355338E+02 -0.60940229893E+02  0.94849587787E+02  0.00000000000E+00 0. -1.
         11    1    1    2    0    0  0.26257744775E+02 -0.73089475890E+02  0.13237512580E+02  0.78783071696E+02  0.00000000000E+00 0.  1.
</event>
<event>
 7    1  0.2556591E-009  0.1328538E+03  0.7561462E-02  0.1223282E+00
          1   -1    0    0  501    0  0.00000000000E+00  0.00000000000E+00  0.43930161447E+02  0.43930161447E+02  0.00000000000E+00 0. -1.
         -1   -1    0    0    0  501 -0.00000000000E+00 -0.00000000000E+00 -0.43571364489E+03  0.43571364489E+03  0.00000000000E+00 0.  1.
         25    2    1    2    0    0 -0.33876114505E+01  0.82472800679E+02 -0.17465126726E+03  0.23014274512E+03  0.12509747883E+03 0.  0.
          5    1    3    3  502    0 -0.60031456518E+02  0.17750953878E+02 -0.60530807002E+02  0.87179832137E+02  0.41800000000E+01 0. -1.
         -5    1    3    3    0  502  0.56643845067E+02  0.64721846801E+02 -0.11412046026E+03  0.14296291298E+03  0.41800000000E+01 0. -1.
        -11    1    1    2    0    0 -0.39217696932E+02 -0.30680417407E+02 -0.55806747688E+02  0.74791101425E+02  0.00000000000E+00 0. -1.
         11    1    1    2    0    0  0.42605308383E+02 -0.51792383271E+02 -0.16132546849E+03  0.17470995979E+03  0.00000000000E+00 0.  1.
</event>
<event>
 7    1  0.2556591E-009  0.2505146E+03  0.7561462E-02  0.1112980E+00
          2   -1    0    0  501    0  0.00000000000E+00  0.00000000000E+00  0.11714344633E+04  0.11714344633E+04  0.00000000000E+00 0. -1.
         -2   -1    0    0    0  501 -0.00000000000E+00 -0.00000000000E+00 -0.57919063761E+02  0.57919063761E+02  0.00000000000E+00 0.  1.
         25    2    1    2    0    0 -0.24087052377E+02 -0.22616232291E+03  0.42643038025E+03  0.49921968208E+03  0.12509132416E+03 0.  0.
          5    1    3    3  502    0 -0.72072573932E+02 -0.12460865327E+03  0.20030942332E+03  0.24670449905E+03  0.41800000000E+01 0.  1.
         -5    1    3    3    0  502  0.47985521555E+02 -0.10155366965E+03  0.22612095693E+03  0.25251518303E+03  0.41800000000E+01 0.  1.
        -11    1    1    2    0    0 -0.25867779471E+02  0.15804920571E+03  0.39965911048E+03  0.43055324645E+03  0.00000000000E+00 0. -1.
         11    1    1    2    0    0  0.49954831848E+02  0.68113117207E+02  0.28742590886E+03  0.29958059858E+03  0.00000000000E+00 0.  1.
</event>
<event>
 7    1  0.2556591E-009  0.1181885E+03  0.7561462E-02  0.1246116E+00
          1   -1    0    0  501    0  0.00000000000E+00  0.00000000000E+00  0.64407511367E+03  0.64407511367E+03  0.00000000000E+00 0. -1.
         -1   -1    0    0    0  501 -0.00000000000E+00 -0.00000000000E+00 -0.35551478884E+02  0.35551478884E+02  0.00000000000E+00 0.  1.
         25    2    1    2    0    0  0.16305749597E+02 -0.10167171671E+03  0.38048817833E+03  0.41354275866E+03  0.12507335426E+03 0.  0.
          5    1    3    3  502    0 -0.44784446116E+01 -0.48777208735E+02  0.28197717963E+02  0.56673241097E+02  0.41800000000E+01 0. -1.
         -5    1    3    3    0  502  0.20784194209E+02 -0.52894507973E+02  0.35229046037E+03  0.35686951757E+03  0.41800000000E+01 0. -1.
        -11    1    1    2    0    0  0.22597382350E+01  0.10990085282E+03  0.21629981429E+03  0.24262916875E+03  0.00000000000E+00 0. -1.
         11    1    1    2    0    0 -0.18565487832E+02 -0.82291361154E+01  0.11735642169E+02  0.23454665139E+02  0.00000000000E+00 0.  1.
</event>
<event>
 7    1  0.2556591E-009  0.1961961E+03  0.7561462E-02  0.1152989E+00
          2   -1    0    0  501    0  0.00000000000E+00  0.00000000000E+00  0.11802572100E+04  0.11802572100E+04  0.00000000000E+00 0. -1.
         -2   -1    0    0    0  501 -0.00000000000E+00 -0.00000000000E+00 -0.53742069574E+02  0.53742069574E+02  0.00000000000E+00 0.  1.
         25    2    1    2    0    0 -0.54272923130E+02 -0.16614434026E+03  0.93247585572E+03  0.95692638173E+03  0.12508951417E+03 0.  0.
          5    1    3    3  502    0 -0.48482375454E+02 -0.17590866149E+03  0.67720395621E+03  0.70136799801E+03  0.41800000000E+01 0.  1.
         -5    1    3    3    0  502 -0.57905476756E+01  0.97643212239E+01  0.25527189951E+03  0.25555838372E+03  0.41800000000E+01 0.  1.
        -11    1    1    2    0    0  0.33705353988E+02  0.35526061858E+01  0.33880364016E+02  0.47922343057E+02  0.00000000000E+00 0.  1.
         11    1    1    2    0    0  0.20567569141E+02  0.16259173408E+03  0.16015892073E+03  0.22915055484E+03  0.00000000000E+00 0. -1.
</event>
<event>
 7    1  0.2556591E-009  0.9703799E+02  0.7561462E-02  0.1286651E+00
          3   -1    0    0  501    0  0.00000000000E+00  0.00000000000E+00  0.56985029449E+03  0.56985029449E+03  0.00000000000E+00 0. -1.
         -3   -1    0    0    0  501 -0.00000000000E+00 -0.00000000000E+00 -0.25353539583E+02  0.25353539583E+02  0.00000000000E+00 0.  1.
         25    2    1    2    0    0  0.15652359237E+02 -0.34217184141E+02  0.39278943905E+03  0.41393986606E+03  0.12508739842E+03 0.  0.
          5    1    3    3  502    0 -0.36349301265E+02 -0.18267130995E+02  0.40868722603E+02  0.57815955103E+02  0.41800000000E+01 0. -1.
         -5    1    3    3    0  502  0.52001660502E+02 -0.15950053146E+02  0.35192071645E+03  0.35612391096E+03  0.41800000000E+01 0. -1.
        -11    1    1    2    0    0 -0.52204993963E+02  0.61987428623E+01  0.71067294525E+02  0.88398790483E+02  0.00000000000E+00 0.  1.
         11    1    1    2    0    0  0.36552634726E+02  0.28018441279E+02  0.80640021327E+02  0.92865177525E+02  0.00000000000E+00 0. -1.
</event>
<event>
 7    1  0.2556591E-009  0.1058039E+03  0.7561462E-02  0.1268544E+00
          1   -1    0    0  501    0  0.00000000000E+00  0.00000000000E+00  0.41060485749E+03  0.41060485749E+03  0.00000000000E+00 0. -1.
         -1   -1    0    0    0  501 -0.00000000000E+00 -0.00000000000E+00 -0.35660211120E+02  0.35660211120E+02  0.00000000000E+00 0.  1.
         25    2    1    2    0    0  0.14072471405E+02 -0.23378420767E+02  0.12427310705E+03  0.17842622288E+03  0.12509007502E+03 0.  0.
          5    1    3    3  502    0 -0.50299575476E+02 -0.18766936327E+02  0.23653140091E+02  0.58814867409E+02  0.41800000000E+01 0. -1.
         -5    1    3    3    0  502  0.64372046881E+02 -0.46114844400E+01  0.10061996696E+03  0.11961135548E+03  0.41800000000E+01 0. -1.
        -11    1    1    2    0    0 -0.13221378396E+02 -0.33596924645E+02  0.11925232543E+03  0.12459805501E+03  0.00000000000E+00 0.  1.
         11    1    1    2    0    0 -0.85109300896E+00  0.56975345412E+02  0.13141921389E+03  0.14324079071E+03  0.00000000000E+00 0. -1.
</event>
<event>
 7    1  0.2556591E-009  0.2232690E+03  0.7561462E-02  0.1131469E+00
         -1   -1    0    0    0  501 -0.00000000000E+00  0.00000000000E+00  0.15144038298E+03  0.15144038298E+03  0.00000000000E+00 0.  1.
          1   -1    0    0  501    0  0.00000000000E+00 -0.00000000000E+00 -0.49917985502E+03  0.49917985502E+03  0.00000000000E+00 0. -1.
         25    2    1    2    0    0 -0.19243964596E+03 -0.84342076515E+02 -0.34305510811E+03  0.42128487228E+03  0.12509010035E+03 0.  0.
          5    1    3    3  502    0 -0.17515396594E+03 -0.10860112471E+03 -0.25302079295E+03  0.32635886710E+03  0.41800000000E+01 0.  1.
         -5    1    3    3    0  502 -0.17285680019E+02  0.24259048193E+02 -0.90034315155E+02  0.94926005175E+02  0.41800000000E+01 0.  1.
        -11    1    1    2    0    0  0.18733525503E+02  0.52079154355E+01 -0.31055290603E+02  0.36640120570E+02  0.00000000000E+00 0. -1.
         11    1    1    2    0    0  0.17370612045E+03  0.79134161080E+02  0.26370926673E+02  0.19269524516E+03  0.00000000000E+00 0.  1.
</event>
<event>
 7    1  0.2556591E-009  0.8525794E+02  0.7561462E-02  0.1314759E+00
         -2   -1    0    0    0  501 -0.00000000000E+00  0.00000000000E+00  0.53411656330E+02  0.53411656330E+02  0.00000000000E+00 0.  1.
          2   -1    0    0  501    0  0.00000000000E+00 -0.00000000000E+00 -0.32306348279E+03  0.32306348279E+03  0.00000000000E+00 0. -1.
         25    2    1    2    0    0 -0.31470085025E+02  0.64268287373E+02 -0.14268606106E+03  0.20280097347E+03  0.12509254098E+03 0.  0.
          5    1    3    3  502    0 -0.95458834858E+01  0.73684658194E+02 -0.15764715083E+03  0.17432914073E+03  0.41800000000E+01 0.  1.
         -5    1    3    3    0  502 -0.21924201539E+02 -0.94163708210E+01  0.14961089769E+02  0.28471832741E+02  0.41800000000E+01 0.  1.
        -11    1    1    2    0    0  0.24583907227E+02 -0.43157528518E+02 -0.13956761429E+03  0.14814202551E+03  0.00000000000E+00 0. -1.
         11    1    1    2    0    0  0.68861777980E+01 -0.21110758855E+02  0.12601848897E+02  0.25532140132E+02  0.00000000000E+00 0.  1.
</event>
<event>
 7    1  0.2556591E-009  0.2058205E+03  0.7561462E-02  0.1144919E+00
          1   -1    0    0  501    0  0.00000000000E+00  0.00000000000E+00  0.76800225280E+03  0.76800225280E+03  0.00000000000E+00 0. -1.
         -1   -1    0    0    0  501 -0.00000000000E+00 -0.00000000000E+00 -0.75337186825E+02  0.75337186825E+02  0.00000000000E+00 0.  1.
         25    2    1    2    0    0 -0.19053162840E+03 -0.42271961201E+02  0.51848569044E+03  0.56794799349E+03  0.12509313328E+03 0.  0.
          5    1    3    3  502    0 -0.18890916900E+03 -0.19246002369E+02  0.50782358929E+03  0.54218018497E+03  0.41800000000E+01 0. -1.
         -5    1    3    3    0  502 -0.16224593969E+01 -0.23025958832E+02  0.10662101147E+02  0.25767808512E+02  0.41800000000E+01 0. -1.
        -11    1    1    2    0    0  0.66277860308E+02 -0.20988763293E+01  0.13828792174E+02  0.67737696609E+02  0.00000000000E+00 0.  1.
         11    1    1    2    0    0  0.12425376809E+03  0.44370837531E+02  0.16035058336E+03  0.20765374953E+03  0.00000000000E+00 0. -1.
</event>
<event>
 7    1  0.2556591E-009  0.1160987E+03  0.7561462E-02  0.1249675E+00
         -1   -1    0    0    0  501 -0.00000000000E+00  0.00000000000E+00  0.11164551661E+03  0.11164551661E+03  0.00000000000E+00 0.  1.
          1   -1    0    0  501    0  0.00000000000E+00 -0.00000000000E+00 -0.14601651953E+03  0.14601651953E+03  0.00000000000E+00 0. -1.
         25    2    1    2    0    0 -0.11756684329E+02 -0.65724279560E+02 -0.19618979000E+02  0.14315075412E+03  0.12509729620E+03 0.  0.
          5    1    3    3  502    0  0.76839654692E+00  0.25823099770E+02  0.28662630259E+02  0.38812906209E+02  0.41800000000E+01 0. -1.
         -5    1    3    3    0  502 -0.12525080876E+02 -0.91547379330E+02 -0.48281609259E+02  0.10433784791E+03  0.41800000000E+01 0. -1.
        -11    1    1    2    0    0  0.51824825539E+02  0.30189617456E+02 -0.65953128606E+01  0.60338409790E+02  0.00000000000E+00 0.  1.
         11    1    1    2    0    0 -0.40068141210E+02  0.35534662104E+02 -0.81567110512E+01  0.54172872234E+02  0.00000000000E+00 0. -1.
</event>
<event>
 7    1  0.3292868E-009  0.1779005E+03  0.7561462E-02  0.1169851E+00
         -2   -1    0    0    0  501 -0.00000000000E+00  0.00000000000E+00  0.21879331810E+02  0.21879331810E+02  0.00000000000E+00 0.  1.
          2   -1    0    0  501    0  0.00000000000E+00 -0.00000000000E+00 -0.15930300288E+04  0.15930300288E+04  0.00000000000E+00 0. -1.
         25    2    1    2    0    0 -0.42304063405E+02 -0.13422456588E+03 -0.58386256908E+03  0.61347314241E+03  0.12509168243E+03 0.  0.
          5    1    3    3  502    0  0.41311027370E+02 -0.19068868587E+02 -0.12925490778E+03  0.13709313008E+03  0.41800000000E+01 0. -1.
         -5    1    3    3    0  502 -0.83615090775E+02 -0.11515569730E+03 -0.45460766131E+03  0.47638001233E+03  0.41800000000E+01 0. -1.
        -11    1    1    2    0    0  0.62932382710E+02  0.48187901550E+02 -0.46398035118E+03  0.47070194915E+03  0.00000000000E+00 0. -1.
         11    1    1    2    0    0 -0.20628319304E+02  0.86036664332E+02 -0.52330777673E+03  0.53073426906E+03  0.00000000000E+00 0.  1.
</event>
<event>
 7    1  0.2556591E-009  0.1098797E+03  0.7561462E-02  0.1260793E+00
          4   -1    0    0  501    0  0.00000000000E+00  0.00000000000E+00  0.41448105115E+02  0.41448105115E+02  0.00000000000E+00 0. -1.
         -4   -1    0    0    0  501 -0.00000000000E+00 -0.00000000000E+00 -0.52106814793E+03  0.52106814793E+03  0.00000000000E+00 0.  1.
         25    2    1    2    0    0  0.37509178929E+02 -0.85737790883E+02 -0.33389384944E+03  0.36863302432E+03  0.12508915473E+03 0.  0.
          5    1    3    3  502    0  0.19541300459E+02 -0.43853538546E+02 -0.21270418780E+02  0.52677304237E+02  0.41800000000E+01 0. -1.
         -5    1    3    3    0  502  0.17967878470E+02 -0.41884252337E+02 -0.31262343066E+03  0.31595572008E+03  0.41800000000E+01 0. -1.
        -11    1    1    2    0    0 -0.64775941058E+02  0.59265260656E+02 -0.11682701565E+03  0.14613981404E+03  0.00000000000E+00 0.  1.
         11    1    1    2    0    0  0.27266762130E+02  0.26472530227E+02 -0.28899177721E+02  0.47743414693E+02  0.00000000000E+00 0. -1.
</event>
<event>
 7    1  0.2556591E-009  0.1779484E+03  0.7561462E-02  0.1169804E+00
         -1   -1    0    0    0  501 -0.00000000000E+00  0.00000000000E+00  0.50344916473E+03  0.50344916473E+03  0.00000000000E+00 0.  1.
          1   -1    0    0  501    0  0.00000000000E+00 -0.00000000000E+00 -0.67405043654E+02  0.67405043654E+02  0.00000000000E+00 0. -1.
         25    2    1    2    0    0  0.64148528764E+02  0.13241310018E+03  0.19012514704E+03  0.27100585911E+03  0.12509333034E+03 0.  0.
          5    1    3    3  502    0  0.94002933396E+02  0.62635083547E+02  0.85725170738E+02  0.14186607232E+03  0.41800000000E+01 0. -1.
         -5    1    3    3    0  502 -0.29854404632E+02  0.69778016630E+02  0.10439997630E+03  0.12913978679E+03  0.41800000000E+01 0. -1.
        -11    1    1    2    0    0  0.12776463974E+02 -0.59511733258E+02  0.57849299388E+02  0.83972768602E+02  0.00000000000E+00 0. -1.
         11    1    1    2    0    0 -0.76924992738E+02 -0.72901366919E+02  0.18806967465E+03  0.21587558067E+03  0.00000000000E+00 0.  1.
</event>
<event>
 7    1  0.2556591E-009  0.7962515E+02  0.7561462E-02  0.1330119E+00
          2   -1    0    0  501    0  0.00000000000E+00  0.00000000000E+00  0.31090115670E+03  0.31090115670E+03  0.00000000000E+00 0. -1.
         -2   -1    0    0    0  501 -0.00000000000E+00 -0.00000000000E+00 -0.48869047729E+02  0.48869047729E+02  0.00000000000E+00 0.  1.
         25    2    1    2    0    0 -0.30398343601E+02 -0.51078818086E+02  0.14446948743E+03  0.20013081562E+03  0.12509118918E+03 0.  0.
          5    1    3    3  502    0 -0.35952832746E+02 -0.17248205196E+02  0.15802221738E+03  0.16302944627E+03  0.41800000000E+01 0. -1.
         -5    1    3    3    0  502  0.55544891452E+01 -0.33830612890E+02 -0.13552729950E+02  0.37101369345E+02  0.41800000000E+01 0. -1.
        -11    1    1    2    0    0  0.46607555015E+02  0.50028809666E+02  0.12445003668E+03  0.14199632957E+03  0.00000000000E+00 0. -1.
         11    1    1    2    0    0 -0.16209211414E+02  0.10500084197E+01 -0.68874151387E+01  0.17643059249E+02  0.00000000000E+00 0.  1.
</event>
<event>
 7    1  0.2556591E-009  0.1580840E+03  0.7561462E-02  0.1190877E+00
         -2   -1    0    0    0  501 -0.00000000000E+00  0.00000000000E+00  0.52023446834E+02  0.52023446834E+02  0.00000000000E+00 0.  1.
          2   -1    0    0  501    0  0.00000000000E+00 -0.00000000000E+00 -0.51868790525E+03  0.51868790525E+03  0.00000000000E+00 0. -1.
         25    2    1    2    0    0  0.93331572041E+02 -0.80050654019E+02 -0.26783345578E+03  0.32015815554E+03  0.12509034726E+03 0.  0.
          5    1    3    3  502    0 -0.24646318549E+02  0.53567374428E+01 -0.19189198554E+02  0.31966128874E+02  0.41800000000E+01 0.  1.
         -5    1    3    3    0  502  0.11797789059E+03 -0.85407391462E+02 -0.24864425722E+03  0.28819202667E+03  0.41800000000E+01 0.  1.
        -11    1    1    2    0    0 -0.25911206005E+01  0.48881643385E+02 -0.10735966072E+03  0.11799248161E+03  0.00000000000E+00 0. -1.
         11    1    1    2    0    0 -0.90740451440E+02  0.31169010634E+02 -0.91471341918E+02  0.13256071493E+03  0.00000000000E+00 0.  1.
</event>
<event>
 7    1  0.2556591E-009  0.7851652E+02  0.7561462E-02  0.1333315E+00
          1   -1    0    0  501    0  0.00000000000E+00  0.00000000000E+00  0.38398641840E+02  0.38398641840E+02  0.00000000000E+00 0. -1.
         -1   -1    0    0    0  501 -0.00000000000E+00 -0.00000000000E+00 -0.47667614073E+03  0.47667614073E+03  0.00000000000E+00 0.  1.
         25    2    1    2    0    0 -0.39621367033E+02 -0.25424296706E+02 -0.36358938829E+03  0.38737758429E+03  0.12509157423E+03 0.  0.
          5    1    3    3  502    0  0.27842401126E+01 -0.25134422376E+02 -0.48126918313E+01  0.26079217470E+02  0.41800000000E+01 0.  1.
         -5    1    3    3    0  502 -0.42405607145E+02 -0.28987432997E+00 -0.35877669646E+03  0.36129836682E+03  0.41800000000E+01 0.  1.
        -11    1    1    2    0    0  0.59819075318E+02  0.31621322686E+02 -0.81099358602E+02  0.10561882307E+03  0.00000000000E+00 0.  1.
         11    1    1    2    0    0 -0.20197708285E+02 -0.61970259794E+01  0.64112480050E+01  0.22078375211E+02  0.00000000000E+00 0. -1.
</event>
<event>
 7    1  0.2556591E-009  0.1319825E+03  0.7561462E-02  0.1224543E+00
         -1   -1    0    0    0  501 -0.00000000000E+00  0.00000000000E+00  0.42638151888E+02  0.42638151888E+02  0.00000000000E+00 0.  1.
          1   -1    0    0  501    0  0.00000000000E+00 -0.00000000000E+00 -0.67718858995E+03  0.67718858995E+03  0.00000000000E+00 0. -1.
         25    2    1    2    0    0  0.33190624679E+02  0.94368298505E+02 -0.51431951384E+03  0.53868217778E+03  0.12508770129E+03 0.  0.
          5    1    3    3  502    0 -0.71340586492E+00 -0.15188663260E+02 -0.49247339558E+01  0.16520588491E+02  0.41800000000E+01 0.  1.
         -5    1    3    3    0  502  0.33904030544E+02  0.10955696177E+03 -0.50939477988E+03  0.52216158929E+03  0.41800000000E+01 0.  1.
        -11    1    1    2    0    0 -0.33233939222E+02  0.53985032518E+01 -0.44951456803E+02  0.56162906106E+02  0.00000000000E+00 0.  1.
         11    1    1    2    0    0  0.43314543046E-01 -0.99766801757E+02 -0.75279467420E+02  0.12498165795E+03  0.00000000000E+00 0. -1.
</event>
<event>
 7    1  0.2909723E-009  0.1353708E+03  0.7561462E-02  0.1219697E+00
         -4   -1    0    0    0  501 -0.00000000000E+00  0.00000000000E+00  0.14258829597E+03  0.14258829597E+03  0.00000000000E+00 0.  1.
          4   -1    0    0  501    0  0.00000000000E+00 -0.00000000000E+00 -0.16013472556E+03  0.16013472556E+03  0.00000000000E+00 0. -1.
         25    2    1    2    0    0  0.71898182127E+02  0.76235966376E+02 -0.33533860664E+01  0.16322216763E+03  0.12509580187E+03 0.  0.
          5    1    3    3  502    0  0.16717785935E+02 -0.31633986829E+02  0.17756401760E+02  0.40161619648E+02  0.41800000000E+01 0. -1.
         -5    1    3    3    0  502  0.55180396193E+02  0.10786995321E+03 -0.21109787826E+02  0.12306054799E+03  0.41800000000E+01 0. -1.
        -11    1    1    2    0    0 -0.40335253319E+02 -0.12282401387E+02  0.33375187709E+02  0.53774466048E+02  0.00000000000E+00 0.  1.
         11    1    1    2    0    0 -0.31562928808E+02 -0.63953564989E+02 -0.47568231231E+02  0.85726387841E+02  0.00000000000E+00 0. -1.
</event>
<event>
 7    1  0.2556591E-009  0.8725240E+02  0.7561462E-02  0.1309645E+00
          1   -1    0    0  501    0  0.00000000000E+00  0.00000000000E+00  0.97223222535E+02  0.97223222535E+02  0.00000000000E+00 0. -1.
         -1   -1    0    0    0  501 -0.00000000000E+00 -0.00000000000E+00 -0.15021142945E+03  0.15021142945E+03  0.00000000000E+00 0.  1.
         25    2    1    2    0    0  0.33674385931E+01 -0.89749371730E+01 -0.86693057838E+02  0.15249793338E+03  0.12509214312E+03 0.  0.
          5    1    3    3  502    0 -0.40238609425E+02 -0.17092177413E+02  0.10871007047E+02  0.45243114519E+02  0.41800000000E+01 0. -1.
         -5    1    3    3    0  502  0.43606048018E+02  0.81172402396E+01 -0.97564064885E+02  0.10725481887E+03  0.41800000000E+01 0. -1.
        -11    1    1    2    0    0  0.33044923832E+02  0.29447924312E+02  0.56603161435E+01  0.44622711888E+02  0.00000000000E+00 0.  1.
         11    1    1    2    0    0 -0.36412362425E+02 -0.20472987139E+02  0.28044534784E+02  0.50314006708E+02  0.00000000000E+00 0. -1.
</event>
<event>
 7    1  0.2556591E-009  0.1596218E+03  0.7561462E-02  0.1189124E+00
         -1   -1    0    0    0  501 -0.00000000000E+00  0.00000000000E+00  0.14435768328E+03  0.14435768328E+03  0.00000000000E+00 0.  1.
          1   -1    0    0  501    0  0.00000000000E+00 -0.00000000000E+00 -0.19188631973E+03  0.19188631973E+03  0.00000000000E+00 0. -1.
         25    2    1    2    0    0  0.62680970552E+02 -0.10756006669E+03 -0.43054089186E+02  0.18165972871E+03  0.12509408628E+03 0.  0.
          5    1    3    3  502    0  0.99906626258E+02 -0.65615833703E+02 -0.36480988077E+02  0.12504041944E+03  0.41800000000E+01 0. -1.
         -5    1    3    3    0  502 -0.37225655706E+02 -0.41944232989E+02 -0.65731011097E+01  0.56619309268E+02  0.41800000000E+01 0. -1.
        -11    1    1    2    0    0 -0.25066427829E+01  0.74897365207E+02  0.26432165077E+02  0.79464192714E+02  0.00000000000E+00 0.  1.
         11    1    1    2    0    0 -0.60174327769E+02  0.32662701485E+02 -0.30906712333E+02  0.75120081589E+02  0.00000000000E+00 0. -1.
</event>
<event>
 7    1  0.2556591E-009  0.2265221E+03  0.7561462E-02  0.1129112E+00
          2   -1    0    0  501    0  0.00000000000E+00  0.00000000000E+00  0.11914906367E+03  0.11914906367E+03  0.00000000000E+00 0. -1.
         -2   -1    0    0    0  501 -0.00000000000E+00 -0.00000000000E+00 -0.56122545654E+03  0.56122545654E+03  0.00000000000E+00 0.  1.
         25    2    1    2    0    0  0.15053782589E+03 -0.15260365374E+03 -0.36987432949E+03  0.44542602099E+03  0.12509120032E+03 0.  0.
          5    1    3    3  502    0  0.16375856406E+03 -0.15141019508E+03 -0.29813432697E+03  0.37234857834E+03  0.41800000000E+01 0. -1.
         -5    1    3    3    0  502 -0.13220738170E+02 -0.11934586575E+01 -0.71740002524E+02  0.73077442644E+02  0.41800000000E+01 0. -1.
        -11    1    1    2    0    0 -0.90070899871E+02  0.10958555531E+03 -0.75451555488E+02  0.16066953091E+03  0.00000000000E+00 0. -1.
         11    1    1    2    0    0 -0.60466926018E+02  0.43018098429E+02  0.32494921096E+01  0.74278968312E+02  0.00000000000E+00 0.  1.
</event>
<event>
 7    1  0.2556591E-009  0.9530024E+02  0.7561462E-02  0.1290501E+00
         -2   -1    0    0    0  501 -0.00000000000E+00  0.00000000000E+00  0.45823931157E+02  0.45823931157E+02  0.00000000000E+00 0. -1.
          2   -1    0    0  501    0  0.00000000000E+00 -0.00000000000E+00 -0.48994028220E+03  0.48994028220E+03  0.00000000000E+00 0.  1.
         25    2    1    2    0    0 -0.13745106534E+02  0.37359437060E+01 -0.57301229789E+02  0.13832461042E+03  0.12508949470E+03 0.  0.
          5    1    3    3  502    0  0.35254925856E+02 -0.24033195912E+02 -0.68441090811E+02  0.80759888647E+02  0.41800000000E+01 0. -1.
         -5    1    3    3    0  502 -0.49000032391E+02  0.27769139618E+02  0.11139861023E+02  0.57564721775E+02  0.41800000000E+01 0. -1.
        -11    1    1    2    0    0 -0.24932034734E+01  0.42332454273E+02 -0.17475807665E+03  0.17982946951E+03  0.00000000000E+00 0.  1.
         11    1    1    2    0    0  0.16238310008E+02 -0.46068397979E+02 -0.21205704460E+03  0.21761013342E+03  0.00000000000E+00 0. -1.
</event>
<event>
 7    1  0.2556591E-009  0.1324486E+03  0.7561462E-02  0.1223867E+00
          3   -1    0    0  501    0  0.00000000000E+00  0.00000000000E+00  0.39361474615E+02  0.39361474615E+02  0.00000000000E+00 0. -1.
         -3   -1    0    0    0  501 -0.00000000000E+00 -0.00000000000E+00 -0.48726670318E+03  0.48726670318E+03  0.00000000000E+00 0.  1.
         25    2    1    2    0    0  0.85179758476E+02 -0.88428378272E+01 -0.22249994968E+03  0.26923515768E+03  0.12509018942E+03 0.  0.
          5    1    3    3  502    0  0.53478968753E+02 -0.64475592375E+02 -0.96629195829E+02  0.12795224108E+03  0.41800000000E+01 0.  1.
         -5    1    3    3    0  502  0.31700789723E+02  0.55632754548E+02 -0.12587075385E+03  0.14128291660E+03  0.41800000000E+01 0.  1.
        -11    1    1    2    0    0 -0.52053648854E+01  0.32926798496E+02 -0.10996323355E+03  0.11490510265E+03  0.00000000000E+00 0.  1.
         11    1    1    2    0    0 -0.79974393591E+02 -0.24083960668E+02 -0.11544204533E+03  0.14248791746E+03  0.00000000000E+00 0. -1.
</event>
<event>
 7    1  0.2556591E-009  0.1008826E+03  0.7561462E-02  0.1278451E+00
         -1   -1    0    0    0  501 -0.00000000000E+00  0.00000000000E+00  0.81779190850E+02  0.81779190850E+02  0.00000000000E+00 0.  1.
          1   -1    0    0  501    0  0.00000000000E+00 -0.00000000000E+00 -0.13836138475E+03  0.13836138475E+03  0.00000000000E+00 0. -1.
         25    2    1    2    0    0  0.18124656853E+02  0.10004663352E+02 -0.49062211758E+02  0.13595876508E+03  0.12509631771E+03 0.  0.
          5    1    3    3  502    0  0.59563118314E+02 -0.30369293149E+02 -0.14850067035E+02  0.68615274689E+02  0.41800000000E+01 0. -1.
         -5    1    3    3    0  502 -0.41438461461E+02  0.40373956501E+02 -0.34212144724E+02  0.67343490394E+02  0.41800000000E+01 0. -1.
        -11    1    1    2    0    0  0.34719754350E+01 -0.39811128949E+02  0.13020956910E+02  0.42030059725E+02  0.00000000000E+00 0.  1.
         11    1    1    2    0    0 -0.21596632288E+02  0.29806465598E+02 -0.20540939049E+02  0.42151750790E+02  0.00000000000E+00 0. -1.
</event>
<event>
 7    1  0.2556591E-009  0.2078186E+03  0.7561462E-02  0.1143305E+00
          2   -1    0    0  501    0  0.00000000000E+00  0.00000000000E+00  0.30262199450E+03  0.30262199450E+03  0.00000000000E+00 0. -1.
         -2   -1    0    0    0  501 -0.00000000000E+00 -0.00000000000E+00 -0.19460995103E+03  0.19460995103E+03  0.00000000000E+00 0.  1.
         25    2    1    2    0    0 -0.14871643887E+03  0.12703521792E+03  0.14777612457E+03  0.27520828514E+03  0.12508913396E+03 0.  0.
          5    1    3    3  502    0 -0.88690311468E+02  0.26978902319E+02  0.80840977528E+01  0.93148577848E+02  0.41800000000E+01 0.  1.
         -5    1    3    3    0  502 -0.60026127401E+02  0.10005631560E+03  0.13969202682E+03  0.18205970729E+03  0.41800000000E+01 0.  1.
        -11    1    1    2    0    0  0.10475311886E+03 -0.47094710969E+02  0.14671246610E+02  0.11578589374E+03  0.00000000000E+00 0. -1.
         11    1    1    2    0    0  0.43963320008E+02 -0.79940506953E+02 -0.54435327721E+02  0.10623776665E+03  0.00000000000E+00 0.  1.
</event>
<event>
 7    1  0.2556591E-009  0.1085076E+03  0.7561462E-02  0.1263359E+00
         -2   -1    0    0    0  501 -0.00000000000E+00  0.00000000000E+00  0.13281351257E+02  0.13281351257E+02  0.00000000000E+00 0.  1.
          2   -1    0    0  501    0  0.00000000000E+00 -0.00000000000E+00 -0.18971748190E+04  0.18971748190E+04  0.00000000000E+00 0. -1.
         25    2    1    2    0    0 -0.81313036689E+02 -0.16656993583E+02 -0.15079027281E+04  0.15153581797E+04  0.12510199757E+03 0.  0.
          5    1    3    3  502    0 -0.69033380639E+02 -0.32034089868E+02 -0.14737583792E+04  0.14757279639E+04  0.41800000000E+01 0. -1.
         -5    1    3    3    0  502 -0.12279656050E+02  0.15377096285E+02 -0.34144348885E+02  0.39630215791E+02  0.41800000000E+01 0. -1.
        -11    1    1    2    0    0 -0.14170487755E+02  0.20728064468E+02 -0.96770987841E+02  0.99975394311E+02  0.00000000000E+00 0.  1.
         11    1    1    2    0    0  0.95483524444E+02 -0.40710708847E+01 -0.27921975176E+03  0.29512259627E+03  0.00000000000E+00 0. -1.
</event>
<event>
 7    1  0.2556591E-009  0.8706572E+02  0.7561462E-02  0.1310117E+00
         -3   -1    0    0    0  501 -0.00000000000E+00  0.00000000000E+00  0.12077143649E+02  0.12077143649E+02  0.00000000000E+00 0.  1.
          3   -1    0    0  501    0  0.00000000000E+00 -0.00000000000E+00 -0.14192108433E+04  0.14192108433E+04  0.00000000000E+00 0. -1.
         25    2    1    2    0    0  0.35451912757E+02  0.53514535024E+02 -0.98832922173E+03  0.99828011057E+03  0.12509150674E+03 0.  0.
          5    1    3    3  502    0  0.11164164834E+02  0.24341216315E+02 -0.91674830398E+03  0.91714887485E+03  0.41800000000E+01 0. -1.
         -5    1    3    3    0  502  0.24287747923E+02  0.29173318709E+02 -0.71580917751E+02  0.81131235721E+02  0.41800000000E+01 0. -1.
        -11    1    1    2    0    0  0.28693275312E+02 -0.27097720379E+02 -0.12294544031E+03  0.12912463665E+03  0.00000000000E+00 0.  1.
         11    1    1    2    0    0 -0.64145188069E+02 -0.26416814645E+02 -0.29585903757E+03  0.30388323968E+03  0.00000000000E+00 0. -1.
</event>
<event>
 7    1  0.2556591E-009  0.1850974E+03  0.7561462E-02  0.1162959E+00
          2   -1    0    0  501    0  0.00000000000E+00  0.00000000000E+00  0.69407522027E+03  0.69407522027E+03  0.00000000000E+00 0. -1.
         -2   -1    0    0    0  501 -0.00000000000E+00 -0.00000000000E+00 -0.75930484369E+02  0.75930484369E+02  0.00000000000E+00 0.  1.
         25    2    1    2    0    0 -0.48017220429E+01 -0.15577295003E+03  0.10485478819E+03  0.22567784746E+03  0.12509074999E+03 0.  0.
          5    1    3    3  502    0 -0.70421808133E+01 -0.17692503292E+03  0.85737972545E+02  0.19677533362E+03  0.41800000000E+01 0. -1.
         -5    1    3    3    0  502  0.22404587704E+01  0.21152082891E+02  0.19116815647E+02  0.28902513846E+02  0.41800000000E+01 0. -1.
        -11    1    1    2    0    0 -0.31428485414E+02  0.45251849736E+02  0.25762582870E+03  0.26345122359E+03  0.00000000000E+00 0. -1.
         11    1    1    2    0    0  0.36230207457E+02  0.11052110029E+03  0.25566411901E+03  0.28087663358E+03  0.00000000000E+00 0.  1.
</event>
<event>
 7    1  0.2556591E-009  0.1472476E+03  0.7561462E-02  0.1203896E+00
          1   -1    0    0  501    0  0.00000000000E+00  0.00000000000E+00  0.20792491861E+03  0.20792491861E+03  0.00000000000E+00 0. -1.
         -1   -1    0    0    0  501 -0.00000000000E+00 -0.00000000000E+00 -0.11090106951E+03  0.11090106951E+03  0.00000000000E+00 0.  1.
         25    2    1    2    0    0  0.10526341239E+03  0.26114694979E+00  0.67304416545E+02  0.17679765536E+03  0.12508825792E+03 0.  0.
          5    1    3    3  502    0  0.24429758947E+02  0.53384896464E+02  0.52469849100E+02  0.78849969925E+02  0.41800000000E+01 0. -1.
         -5    1    3    3    0  502  0.80833653440E+02 -0.53123749514E+02  0.14834567444E+02  0.97947685435E+02  0.41800000000E+01 0. -1.
        -11    1    1    2    0    0 -0.62555097592E+02  0.44641058869E+02  0.18601833157E+02  0.79069542609E+02  0.00000000000E+00 0.  1.
         11    1    1    2    0    0 -0.42708314795E+02 -0.44902205819E+02  0.11117599403E+02  0.62958790145E+02  0.00000000000E+00 0. -1.
</event>
<event>
 7    1  0.2556591E-009  0.1358460E+03  0.7561462E-02  0.1219030E+00
         -3   -1    0    0    0  501 -0.00000000000E+00  0.00000000000E+00  0.61787934525E+02  0.61787934525E+02  0.00000000000E+00 0.  1.
          3   -1    0    0  501    0  0.00000000000E+00 -0.00000000000E+00 -0.33279931669E+03  0.33279931669E+03  0.00000000000E+00 0. -1.
         25    2    1    2    0    0  0.83633302429E+02  0.37869575105E+02 -0.16045508262E+03  0.22321258909E+03  0.12509753152E+03 0.  0.
          5    1    3    3  502    0  0.14161921371E+02  0.67957974377E+02 -0.38175022242E+02  0.79332534446E+02  0.41800000000E+01 0. -1.
         -5    1    3    3    0  502  0.69471381058E+02 -0.30088399272E+02 -0.12228006038E+03  0.14388005464E+03  0.41800000000E+01 0. -1.
        -11    1    1    2    0    0 -0.46821718646E+02  0.25294816069E+02 -0.69473731946E+02  0.87514001665E+02  0.00000000000E+00 0.  1.
         11    1    1    2    0    0 -0.36811583783E+02 -0.63164391174E+02 -0.41082567596E+02  0.83860660463E+02  0.00000000000E+00 0. -1.
</event>
<event>
 7    1  0.2556591E-009  0.9546784E+02  0.7561462E-02  0.1290126E+00
         -2   -1    0    0    0  501 -0.00000000000E+00  0.00000000000E+00  0.56697286866E+02  0.56697286866E+02  0.00000000000E+00 0.  1.
          2   -1    0    0  501    0  0.00000000000E+00 -0.00000000000E+00 -0.36393944576E+03  0.36393944576E+03  0.00000000000E+00 0. -1.
         25    2    1    2    0    0 -0.19565950027E+02 -0.26343112208E+02 -0.29303746818E+03  0.32030491970E+03  0.12508995908E+03 0.  0.
          5    1    3    3  502    0  0.26380340098E+02 -0.38378158532E+02 -0.36345369411E+02  0.59222155260E+02  0.41800000000E+01 0. -1.
         -5    1    3    3    0  502 -0.45946290125E+02  0.12035046324E+02 -0.25669209877E+03  0.26108276444E+03  0.41800000000E+01 0. -1.
        -11    1    1    2    0    0  0.42351894816E+02 -0.18485910735E+02  0.50465545901E+01  0.46485262217E+02  0.00000000000E+00 0.  1.
         11    1    1    2    0    0 -0.22785944789E+02  0.44829022942E+02 -0.19251245306E+02  0.53846550713E+02  0.00000000000E+00 0. -1.
</event>
<event>
 7    1  0.2556591E-009  0.2161142E+03  0.7561462E-02  0.1136814E+00
          2   -1    0    0  501    0  0.00000000000E+00  0.00000000000E+00  0.80662701386E+03  0.80662701386E+03  0.00000000000E+00 0. -1.
         -2   -1    0    0    0  501 -0.00000000000E+00 -0.00000000000E+00 -0.66961247318E+02  0.66961247318E+02  0.00000000000E+00 0.  1.
         25    2    1    2    0    0 -0.13215558454E+03  0.15776707073E+03  0.36517487203E+03  0.43744254879E+03  0.12509096372E+03 0.  0.
          5    1    3    3  502    0 -0.69179876759E+02  0.48497008555E+02  0.25921381641E+03  0.27266662833E+03  0.41800000000E+01 0.  1.
         -5    1    3    3    0  502 -0.62975707778E+02  0.10927006217E+03  0.10596105562E+03  0.16477592046E+03  0.41800000000E+01 0.  1.
        -11    1    1    2    0    0 -0.70598671596E+01 -0.35413796650E+02  0.41181191074E+02  0.54771061846E+02  0.00000000000E+00 0. -1.
         11    1    1    2    0    0  0.13921545170E+03 -0.12235327408E+03  0.33330970345E+03  0.38137465055E+03  0.00000000000E+00 0.  1.
</event>
<event>
 7    1  0.2556591E-009  0.9717364E+02  0.7561462E-02  0.1286354E+00
          1   -1    0    0  501    0  0.00000000000E+00  0.00000000000E+00  0.35459356820E+03  0.35459356820E+03  0.00000000000E+00 0. -1.
         -1   -1    0    0    0  501 -0.00000000000E+00 -0.00000000000E+00 -0.54800089619E+02  0.54800089619E+02  0.00000000000E+00 0.  1.
         25    2    1    2    0    0 -0.38764133156E+02 -0.60128274853E+02  0.89815226457E+02  0.16979814297E+03  0.12508623823E+03 0.  0.
          5    1    3    3  502    0 -0.14415243060E+02 -0.65391476571E+02 -0.91022402883E+01  0.67706481366E+02  0.41800000000E+01 0.  1.
         -5    1    3    3    0  502 -0.24348890096E+02  0.52632017180E+01  0.98917466746E+02  0.10209166160E+03  0.41800000000E+01 0.  1.
        -11    1    1    2    0    0  0.52541461260E+02  0.68150746085E+02  0.20587077338E+03  0.22313203418E+03  0.00000000000E+00 0.  1.
         11    1    1    2    0    0 -0.13777328105E+02 -0.80224712321E+01  0.41074787449E+01  0.16463480677E+02  0.00000000000E+00 0. -1.
</event>
<event>
 7    1  0.2556591E-009  0.9039765E+02  0.7561462E-02  0.1301892E+00
         -2   -1    0    0    0  501 -0.00000000000E+00  0.00000000000E+00  0.99060641522E+03  0.99060641522E+03  0.00000000000E+00 0.  1.
          2   -1    0    0  501    0  0.00000000000E+00 -0.00000000000E+00 -0.11974334817E+02  0.11974334817E+02  0.00000000000E+00 0. -1.
         25    2    1    2    0    0 -0.99809375469E+01 -0.34323796044E-01  0.61508099194E+03  0.62775154565E+03  0.12509099138E+03 0.  0.
          5    1    3    3  502    0  0.13857125653E+01  0.44436623783E+02  0.88212405753E+02  0.98870797818E+02  0.41800000000E+01 0. -1.
         -5    1    3    3    0  502 -0.11366650112E+02 -0.44470947579E+02  0.52686858619E+03  0.52888074783E+03  0.41800000000E+01 0. -1.
        -11    1    1    2    0    0  0.33308192844E+02  0.34808066877E+02  0.16388448332E+03  0.17081908881E+03  0.00000000000E+00 0.  1.
         11    1    1    2    0    0 -0.23327255297E+02 -0.34773743081E+02  0.19966660514E+03  0.20401011557E+03  0.00000000000E+00 0. -1.
</event>
<event>
 7    1  0.2556591E-009  0.1285853E+03  0.7561462E-02  0.1229570E+00
         -3   -1    0    0    0  501 -0.00000000000E+00  0.00000000000E+00  0.81207231797E+02  0.81207231797E+02  0.00000000000E+00 0.  1.
          3   -1    0    0  501    0  0.00000000000E+00 -0.00000000000E+00 -0.27385881937E+03  0.27385881937E+03  0.00000000000E+00 0. -1.
         25    2    1    2    0    0 -0.76654138963E+02  0.49095899274E+02 -0.49869684808E+02  0.16254214678E+03  0.12508676857E+03 0.  0.
          5    1    3    3  502    0 -0.10881691088E+03  0.19270535239E+02 -0.33758392801E+02  0.11562687883E+03  0.41800000000E+01 0.  1.
         -5    1    3    3    0  502  0.32162771919E+02  0.29825364035E+02 -0.16111292007E+02  0.46915267957E+02  0.41800000000E+01 0.  1.
        -11    1    1    2    0    0  0.20364404904E+02  0.84250609807E+01 -0.97949601417E+02  0.10039828214E+03  0.00000000000E+00 0. -1.
         11    1    1    2    0    0  0.56289734059E+02 -0.57520960255E+02 -0.44832301349E+02  0.92125622241E+02  0.00000000000E+00 0.  1.
</event>
<event>
 7    1  0.2556591E-009  0.1239221E+03  0.7561462E-02  0.1236764E+00
          1   -1    0    0  501    0  0.00000000000E+00  0.00000000000E+00  0.78287006614E+03  0.78287006614E+03  0.00000000000E+00 0. -1.
         -1   -1    0    0    0  501 -0.00000000000E+00 -0.00000000000E+00 -0.25729655041E+02  0.25729655041E+02  0.00000000000E+00 0.  1.
         25    2    1    2    0    0 -0.16194169858E+02  0.77912029449E+02  0.28925694112E+03  0.32503897234E+03  0.12509284586E+03 0.  0.
          5    1    3    3  502    0 -0.21775818035E+01 -0.30676452095E+02  0.28256390366E+02  0.41972402506E+02  0.41800000000E+01 0.  1.
         -5    1    3    3    0  502 -0.14016588054E+02  0.10858848154E+03  0.26100055075E+03  0.28306656983E+03  0.41800000000E+01 0.  1.
        -11    1    1    2    0    0  0.20024358485E+02  0.77640982653E+01  0.27440897363E+02  0.34846219346E+02  0.00000000000E+00 0.  1.
         11    1    1    2    0    0 -0.38301886278E+01 -0.85676127715E+02  0.44044257263E+03  0.44871452950E+03  0.00000000000E+00 0. -1.
</event>
<event>
 7    1  0.2556591E-009  0.7816325E+02  0.7561462E-02  0.1334346E+00
         -2   -1    0    0    0  501 -0.00000000000E+00  0.00000000000E+00  0.58321735186E+02  0.58321735186E+02  0.00000000000E+00 0.  1.
          2   -1    0    0  501    0  0.00000000000E+00 -0.00000000000E+00 -0.24428666069E+03  0.24428666069E+03  0.00000000000E+00 0. -1.
         25    2    1    2    0    0  0.44163417360E+02 -0.23882738067E+02 -0.90492139867E+02  0.16235210040E+03  0.12509430249E+03 0.  0.
          5    1    3    3  502    0  0.11480755181E+02  0.79057597180E+01  0.30060771101E+02  0.33398070834E+02  0.41800000000E+01 0. -1.
         -5    1    3    3    0  502  0.32682662178E+02 -0.31788497785E+02 -0.12055291097E+03  0.12895402957E+03  0.41800000000E+01 0. -1.
        -11    1    1    2    0    0  0.21856263324E+02 -0.72105086434E+01 -0.41968387986E+01  0.23394468092E+02  0.00000000000E+00 0. -1.
         11    1    1    2    0    0 -0.66019680684E+02  0.31093246711E+02 -0.91275946842E+02  0.11686182739E+03  0.00000000000E+00 0.  1.
</event>
<event>
 7    1  0.2556591E-009  0.1081093E+03  0.7561462E-02  0.1264112E+00
          3   -1    0    0  501    0  0.00000000000E+00  0.00000000000E+00  0.39078896337E+02  0.39078896337E+02  0.00000000000E+00 0. -1.
         -3   -1    0    0    0  501 -0.00000000000E+00 -0.00000000000E+00 -0.41973700336E+03  0.41973700336E+03  0.00000000000E+00 0.  1.
         25    2    1    2    0    0  0.79565064229E+01  0.37943631263E+02 -0.31248564973E+03  0.33881857890E+03  0.12509085888E+03 0.  0.
          5    1    3    3  502    0  0.61559188248E+02  0.11896202464E+01 -0.11014706310E+03  0.12625686818E+03  0.41800000000E+01 0.  1.
         -5    1    3    3    0  502 -0.53602681825E+02  0.36754011016E+02 -0.20233858663E+03  0.21256171072E+03  0.41800000000E+01 0.  1.
        -11    1    1    2    0    0 -0.26040614451E+02 -0.57269166070E+02 -0.69183845299E+02  0.93510830569E+02  0.00000000000E+00 0.  1.
         11    1    1    2    0    0  0.18084108028E+02  0.19325534807E+02  0.10113880059E+01  0.26486490225E+02  0.00000000000E+00 0. -1.
</event>
<event>
 7    1  0.2556591E-009  0.1076549E+03  0.7561462E-02  0.1264975E+00
          1   -1    0    0  501    0  0.00000000000E+00  0.00000000000E+00  0.82212434866E+03  0.82212434866E+03  0.00000000000E+00 0. -1.
         -1   -1    0    0    0  501 -0.00000000000E+00 -0.00000000000E+00 -0.20951992920E+02  0.20951992920E+02  0.00000000000E+00 0.  1.
         25    2    1    2    0    0 -0.12500211937E+02  0.34311105603E+02  0.65002407080E+03  0.66295812756E+03  0.12509468024E+03 0.  0.
          5    1    3    3  502    0  0.53896606088E+02  0.14922271167E+02  0.20336874790E+03  0.21095932866E+03  0.41800000000E+01 0.  1.
         -5    1    3    3    0  502 -0.66396818025E+02  0.19388834436E+02  0.44665532289E+03  0.45199879891E+03  0.41800000000E+01 0.  1.
        -11    1    1    2    0    0  0.18310520934E+02 -0.60447121330E+02  0.68189397041E+02  0.92945809603E+02  0.00000000000E+00 0.  1.
         11    1    1    2    0    0 -0.58103089968E+01  0.26136015727E+02  0.82958887905E+02  0.87172404413E+02  0.00000000000E+00 0. -1.
</event>
<event>
 7    1  0.2556591E-009  0.9942875E+02  0.7561462E-02  0.1281502E+00
          2   -1    0    0  501    0  0.00000000000E+00  0.00000000000E+00  0.16457358731E+03  0.16457358731E+03  0.00000000000E+00 0. -1.
         -2   -1    0    0    0  501 -0.00000000000E+00 -0.00000000000E+00 -0.11965229001E+03  0.11965229001E+03  0.00000000000E+00 0.  1.
         25    2    1    2    0    0  0.72077485007E+02 -0.19274322240E+02  0.72186126255E+02  0.16255552104E+03  0.12508715863E+03 0.  0.
          5    1    3    3  502    0 -0.50869745547E+01  0.11763499368E+02 -0.28717778034E+02  0.31724444876E+02  0.41800000000E+01 0. -1.
         -5    1    3    3    0  502  0.77164459562E+02 -0.31037821608E+02  0.10090390429E+03  0.13083107616E+03  0.41800000000E+01 0. -1.
        -11    1    1    2    0    0 -0.74166500042E+02 -0.81340796000E+01  0.10091544882E+02  0.75290585450E+02  0.00000000000E+00 0. -1.
         11    1    1    2    0    0  0.20890150344E+01  0.27408401840E+02 -0.37356373840E+02  0.46379770824E+02  0.00000000000E+00 0.  1.
</event>
<event>
 7    1  0.2556591E-009  0.1071450E+03  0.7561462E-02  0.1265950E+00
          1   -1    0    0  501    0  0.00000000000E+00  0.00000000000E+00  0.91579795160E+02  0.91579795160E+02  0.00000000000E+00 0. -1.
         -1   -1    0    0    0  501 -0.00000000000E+00 -0.00000000000E+00 -0.14050411651E+03  0.14050411651E+03  0.00000000000E+00 0.  1.
         25    2    1    2    0    0 -0.29237798434E+02 -0.16012863084E+02 -0.42252009527E+02  0.13617865044E+03  0.12509249332E+03 0.  0.
          5    1    3    3  502    0  0.17577904522E+02 -0.61465106636E+02 -0.21677378345E+02  0.67633743006E+02  0.41800000000E+01 0. -1.
         -5    1    3    3    0  502 -0.46815702956E+02  0.45452243552E+02 -0.20574631182E+02  0.68544907436E+02  0.41800000000E+01 0. -1.
        -11    1    1    2    0    0  0.27337999884E+02  0.46689751001E+02 -0.25551337277E+02  0.59834521163E+02  0.00000000000E+00 0.  1.
         11    1    1    2    0    0  0.18997985504E+01 -0.30676887916E+02  0.18879025453E+02  0.36070740065E+02  0.00000000000E+00 0. -1.
</event>
<event>
 7    1  0.2556591E-009  0.1148799E+03  0.7561462E-02  0.1251791E+00
         -2   -1    0    0    0  501 -0.00000000000E+00  0.00000000000E+00  0.18675389384E+02  0.18675389384E+02  0.00000000000E+00 0.  1.
          2   -1    0    0  501    0  0.00000000000E+00 -0.00000000000E+00 -0.10860377520E+04  0.10860377520E+04  0.00000000000E+00 0. -1.
         25    2    1    2    0    0  0.76344162076E+02  0.39338582374E+02 -0.75609699989E+03  0.77117212190E+03  0.12509121953E+03 0.  0.
          5    1    3    3  502    0  0.43161840134E+02 -0.19298013880E+02 -0.58965466395E+03  0.59156187580E+03  0.41800000000E+01 0. -1.
         -5    1    3    3    0  502  0.33182321942E+02  0.58636596254E+02 -0.16644233594E+03  0.17961024610E+03  0.41800000000E+01 0. -1.
        -11    1    1    2    0    0 -0.77040034447E+02 -0.57803271878E+02 -0.28889015094E+03  0.30452242028E+03  0.00000000000E+00 0. -1.
         11    1    1    2    0    0  0.69587237147E+00  0.18464689505E+02 -0.22375211772E+02  0.29018599186E+02  0.00000000000E+00 0.  1.
</event>
<event>
 7    1  0.2556591E-009  0.1748092E+03  0.7561462E-02  0.1172923E+00
         -1   -1    0    0    0  501 -0.00000000000E+00  0.00000000000E+00  0.22249858056E+03  0.22249858056E+03  0.00000000000E+00 0.  1.
          1   -1    0    0  501    0  0.00000000000E+00 -0.00000000000E+00 -0.22391015315E+03  0.22391015315E+03  0.00000000000E+00 0. -1.
         25    2    1    2    0    0 -0.13708049793E+03 -0.63897670820E+02 -0.12315983434E+03  0.23171021746E+03  0.12508918750E+03 0.  0.
          5    1    3    3  502    0 -0.48244674684E+02 -0.81613728178E+02 -0.10053239572E+03  0.13824827034E+03  0.41800000000E+01 0. -1.
         -5    1    3    3    0  502 -0.88835823248E+02  0.17716057358E+02 -0.22627438623E+02  0.93461947118E+02  0.41800000000E+01 0. -1.
        -11    1    1    2    0    0  0.58573206794E+02 -0.60566793965E+01  0.73944953396E+01  0.59347977900E+02  0.00000000000E+00 0. -1.
         11    1    1    2    0    0  0.78507291137E+02  0.69954350217E+02  0.11435376641E+03  0.15535053836E+03  0.00000000000E+00 0.  1.
</event>
<event>
 7    1  0.2556591E-009  0.8737566E+02  0.7561462E-02  0.1309334E+00
          1   -1    0    0  501    0  0.00000000000E+00  0.00000000000E+00  0.41186094855E+03  0.41186094855E+03  0.00000000000E+00 0. -1.
         -1   -1    0    0    0  501 -0.00000000000E+00 -0.00000000000E+00 -0.32898350201E+02  0.32898350201E+02  0.00000000000E+00 0.  1.
         25    2    1    2    0    0  0.34245343325E+02 -0.69636969364E+01  0.16575184129E+03  0.21057666793E+03  0.12509046154E+03 0.  0.
          5    1    3    3  502    0  0.63307965485E+02  0.13253245219E+02  0.32246448953E+02  0.72393735038E+02  0.41800000000E+01 0. -1.
         -5    1    3    3    0  502 -0.29062622160E+02 -0.20216942156E+02  0.13350539234E+03  0.13818293289E+03  0.41800000000E+01 0. -1.
        -11    1    1    2    0    0  0.19440002110E+02 -0.30447320369E+01  0.70345253342E+01  0.20896617475E+02  0.00000000000E+00 0.  1.
         11    1    1    2    0    0 -0.53685345435E+02  0.10008428973E+02  0.20617623172E+03  0.21328601335E+03  0.00000000000E+00 0. -1.
</event>
<event>
 7    1  0.2556591E-009  0.1417012E+03  0.7561462E-02  0.1211058E+00
         -2   -1    0    0    0  501 -0.00000000000E+00  0.00000000000E+00  0.72768912136E+02  0.72768912136E+02  0.00000000000E+00 0. -1.
          2   -1    0    0  501    0  0.00000000000E+00 -0.00000000000E+00 -0.44729110598E+03  0.44729110598E+03  0.00000000000E+00 0.  1.
         25    2    1    2    0    0  0.34542677059E+02  0.10164590043E+03 -0.33442592694E+03  0.37284695578E+03  0.12509622780E+03 0.  0.
          5    1    3    3  502    0  0.21239522157E+02 -0.26323155663E+02 -0.96325198923E+02  0.10217652457E+03  0.41800000000E+01 0.  1.
         -5    1    3    3    0  502  0.13303154902E+02  0.12796905609E+03 -0.23810072802E+03  0.27067043121E+03  0.41800000000E+01 0.  1.
        -11    1    1    2    0    0  0.15095165607E+02 -0.27436201174E+02  0.22166497116E+02  0.38366166787E+02  0.00000000000E+00 0. -1.
         11    1    1    2    0    0 -0.49637842666E+02 -0.74209699256E+02 -0.62262764022E+02  0.10884689555E+03  0.00000000000E+00 0.  1.
</event>
<event>
 7    1  0.2556591E-009  0.1058002E+03  0.7561462E-02  0.1268551E+00
          3   -1    0    0  501    0  0.00000000000E+00  0.00000000000E+00  0.37416039635E+03  0.37416039635E+03  0.00000000000E+00 0. -1.
         -3   -1    0    0    0  501 -0.00000000000E+00 -0.00000000000E+00 -0.38565046617E+02  0.38565046617E+02  0.00000000000E+00 0.  1.
         25    2    1    2    0    0  0.38024524034E+02  0.25953387104E+02  0.21544954430E+03  0.25335005910E+03  0.12509317959E+03 0.  0.
          5    1    3    3  502    0 -0.12591841816E+02  0.49693421127E+02  0.29850875273E+02  0.59468796340E+02  0.41800000000E+01 0.  1.
         -5    1    3    3    0  502  0.50616365849E+02 -0.23740034023E+02  0.18559866902E+03  0.19388126276E+03  0.41800000000E+01 0.  1.
        -11    1    1    2    0    0 -0.47879735000E+02 -0.55299109091E+02  0.92015229805E+02  0.11754685451E+03  0.00000000000E+00 0.  1.
         11    1    1    2    0    0  0.98552109667E+01  0.29345721987E+02  0.28130575630E+02  0.41828529348E+02  0.00000000000E+00 0. -1.
</event>
<event>
 7    1  0.2556591E-009  0.1122373E+03  0.7561462E-02  0.1256482E+00
         -2   -1    0    0    0  501 -0.00000000000E+00  0.00000000000E+00  0.88708504579E+02  0.88708504579E+02  0.00000000000E+00 0.  1.
          2   -1    0    0  501    0  0.00000000000E+00 -0.00000000000E+00 -0.20243973966E+03  0.20243973966E+03  0.00000000000E+00 0. -1.
         25    2    1    2    0    0 -0.16265069863E+02  0.69726477646E+02 -0.97285078548E+02  0.17389229780E+03  0.12509120890E+03 0.  0.
          5    1    3    3  502    0 -0.22866030185E+02 -0.33246899775E+02 -0.32539563358E+02  0.52004877316E+02  0.41800000000E+01 0. -1.
         -5    1    3    3    0  502  0.66009603224E+01  0.10297337742E+03 -0.64745515190E+02  0.12188742048E+03  0.41800000000E+01 0. -1.
        -11    1    1    2    0    0 -0.11729428209E+02 -0.28354847471E+02  0.34317975809E+02  0.46035859119E+02  0.00000000000E+00 0.  1.
         11    1    1    2    0    0  0.27994498072E+02 -0.41371630175E+02 -0.50764132341E+02  0.71220087321E+02  0.00000000000E+00 0. -1.
</event>
<event>
 7    1  0.2556591E-009  0.9314362E+02  0.7561462E-02  0.1295413E+00
         -2   -1    0    0    0  501 -0.00000000000E+00  0.00000000000E+00  0.46934226910E+02  0.46934226910E+02  0.00000000000E+00 0.  1.
          2   -1    0    0  501    0  0.00000000000E+00 -0.00000000000E+00 -0.40935531834E+03  0.40935531834E+03  0.00000000000E+00 0. -1.
         25    2    1    2    0    0 -0.77635583384E+02 -0.10195547330E+01 -0.25705313999E+03  0.29623099877E+03  0.12509262391E+03 0.  0.
          5    1    3    3  502    0  0.90211946157E+01 -0.13295335593E+02  0.70017200983E+01  0.18017890697E+02  0.41800000000E+01 0. -1.
         -5    1    3    3    0  502 -0.86656778000E+02  0.12275780860E+02 -0.26405486009E+03  0.27821310807E+03  0.41800000000E+01 0. -1.
        -11    1    1    2    0    0  0.30535206690E+02 -0.12601590177E+02 -0.10599601426E+03  0.11102411433E+03  0.00000000000E+00 0. -1.
         11    1    1    2    0    0  0.47100376694E+02  0.13621144910E+02  0.62806282286E+00  0.49034432150E+02  0.00000000000E+00 0.  1.
</event>
<event>
 7    1  0.2556591E-009  0.1055786E+03  0.7561462E-02  0.1268984E+00
          1   -1    0    0  501    0  0.00000000000E+00  0.00000000000E+00  0.23011675617E+03  0.23011675617E+03  0.00000000000E+00 0. -1.
         -1   -1    0    0    0  501 -0.00000000000E+00 -0.00000000000E+00 -0.12893945847E+03  0.12893945847E+03  0.00000000000E+00 0.  1.
         25    2    1    2    0    0 -0.53510362892E+02  0.54681685805E+02  0.16979762359E+03  0.22434798728E+03  0.12508933097E+03 0.  0.
          5    1    3    3  502    0 -0.29945505368E+02  0.77926032660E+02  0.44518411890E+02  0.94702488115E+02  0.41800000000E+01 0. -1.
         -5    1    3    3    0  502 -0.23564857524E+02 -0.23244346855E+02  0.12527921170E+03  0.12964549917E+03  0.41800000000E+01 0. -1.
        -11    1    1    2    0    0 -0.10720373301E+02 -0.15903051779E+02 -0.55266833190E+02  0.58500053935E+02  0.00000000000E+00 0.  1.
         11    1    1    2    0    0  0.64230736193E+02 -0.38778634026E+02 -0.13353492693E+02  0.76208173420E+02  0.00000000000E+00 0. -1.
</event>
<event>
 7    1  0.2556591E-009  0.1489677E+03  0.7561462E-02  0.1201747E+00
         -1   -1    0    0    0  501 -0.00000000000E+00  0.00000000000E+00  0.20375088857E+02  0.20375088857E+02  0.00000000000E+00 0.  1.
          1   -1    0    0  501    0  0.00000000000E+00 -0.00000000000E+00 -0.13163096123E+04  0.13163096123E+04  0.00000000000E+00 0. -1.
         25    2    1    2    0    0 -0.11409231561E+03 -0.13997599902E+01 -0.86972481550E+03  0.88604985526E+03  0.12507627868E+03 0.  0.
          5    1    3    3  502    0 -0.73689660830E+02 -0.49364655871E+02 -0.68919544771E+03  0.69489198651E+03  0.41800000000E+01 0.  1.
         -5    1    3    3    0  502 -0.40402654780E+02  0.47964895881E+02 -0.18052936779E+03  0.19115786875E+03  0.41800000000E+01 0.  1.
        -11    1    1    2    0    0  0.65649031767E+02 -0.44694453898E+02 -0.22506254948E+03  0.23866407513E+03  0.00000000000E+00 0. -1.
         11    1    1    2    0    0  0.48443283842E+02  0.46094213888E+02 -0.20114715849E+03  0.21197077079E+03  0.00000000000E+00 0.  1.
</event>
<event>
 7    1  0.2556591E-009  0.8349947E+02  0.7561462E-02  0.1319404E+00
         -1   -1    0    0    0  501 -0.00000000000E+00  0.00000000000E+00  0.11413883945E+03  0.11413883945E+03  0.00000000000E+00 0.  1.
          1   -1    0    0  501    0  0.00000000000E+00 -0.00000000000E+00 -0.14249328841E+03  0.14249328841E+03  0.00000000000E+00 0. -1.
         25    2    1    2    0    0  0.66290063941E+01  0.58413473555E+02  0.17242923174E+02  0.13928705738E+03  0.12508992100E+03 0.  0.
          5    1    3    3  502    0  0.18839040598E+02  0.68258793558E+02  0.60408074737E+02  0.93170704849E+02  0.41800000000E+01 0. -1.
         -5    1    3    3    0  502 -0.12210034204E+02 -0.98453200031E+01 -0.43165151563E+02  0.46116352530E+02  0.41800000000E+01 0. -1.
        -11    1    1    2    0    0  0.63668750756E+01 -0.64966679611E+02  0.42501663274E+01  0.65416133115E+02  0.00000000000E+00 0.  1.
         11    1    1    2    0    0 -0.12995881470E+02  0.65532060565E+01 -0.49847538460E+02  0.51928937359E+02  0.00000000000E+00 0. -1.
</event>
<event>
 7    1  0.2556591E-009  0.1359143E+03  0.7561462E-02  0.1218935E+00
         -1   -1    0    0    0  501 -0.00000000000E+00  0.00000000000E+00  0.43181727274E+02  0.43181727274E+02  0.00000000000E+00 0.  1.
          1   -1    0    0  501    0  0.00000000000E+00 -0.00000000000E+00 -0.68709598519E+03  0.68709598519E+03  0.00000000000E+00 0. -1.
         25    2    1    2    0    0 -0.88222394633E+02 -0.61695522452E+02 -0.51574381524E+03  0.54150664220E+03  0.12509289419E+03 0.  0.
          5    1    3    3  502    0  0.25003443704E+02 -0.41320684478E+02 -0.18731305190E+03  0.19348442566E+03  0.41800000000E+01 0. -1.
         -5    1    3    3    0  502 -0.11322583834E+03 -0.20374837974E+02 -0.32843076335E+03  0.34802221654E+03  0.41800000000E+01 0. -1.
        -11    1    1    2    0    0  0.37816069920E+02  0.19794836262E+02 -0.11397330970E+03  0.12170376334E+03  0.00000000000E+00 0.  1.
         11    1    1    2    0    0  0.50406324713E+02  0.41900686190E+02 -0.14197132977E+02  0.67067306931E+02  0.00000000000E+00 0. -1.
</event>
<event>
 7    1  0.2556591E-009  0.1170962E+03  0.7561462E-02  0.1247966E+00
          1   -1    0    0  501    0  0.00000000000E+00  0.00000000000E+00  0.31300782730E+03  0.31300782730E+03  0.00000000000E+00 0. -1.
         -1   -1    0    0    0  501 -0.00000000000E+00 -0.00000000000E+00 -0.62823799572E+02  0.62823799572E+02  0.00000000000E+00 0.  1.
         25    2    1    2    0    0  0.14273624051E+02  0.87025558855E+02  0.15617411974E+03  0.21865891785E+03  0.12507670623E+03 0.  0.
          5    1    3    3  502    0  0.24281285040E+01  0.94286269851E+02  0.41598519090E+02  0.10316833662E+03  0.41800000000E+01 0.  1.
         -5    1    3    3    0  502  0.11845495547E+02 -0.72607109959E+01  0.11457560065E+03  0.11549058123E+03  0.41800000000E+01 0.  1.
        -11    1    1    2    0    0  0.37693623170E+02 -0.30481686052E+02  0.28521043972E+02  0.56244042898E+02  0.00000000000E+00 0.  1.
         11    1    1    2    0    0 -0.51967247221E+02 -0.56543872804E+02  0.65488864016E+02  0.10092866612E+03  0.00000000000E+00 0. -1.
</event>
<event>
 7    1  0.2556591E-009  0.1991042E+03  0.7561462E-02  0.1150497E+00
         -2   -1    0    0    0  501 -0.00000000000E+00  0.00000000000E+00  0.11305333587E+04  0.11305333587E+04  0.00000000000E+00 0. -1.
          2   -1    0    0  501    0  0.00000000000E+00 -0.00000000000E+00 -0.46056623301E+02  0.46056623301E+02  0.00000000000E+00 0.  1.
         25    2    1    2    0    0 -0.77551783105E+02  0.18011222549E+03  0.46555076465E+03  0.52042570588E+03  0.12510278988E+03 0.  0.
          5    1    3    3  502    0 -0.28615899671E+02  0.59535939389E+02  0.31276267257E+03  0.31968947362E+03  0.41800000000E+01 0.  1.
         -5    1    3    3    0  502 -0.48935883434E+02  0.12057628610E+03  0.15278809209E+03  0.20073623226E+03  0.41800000000E+01 0.  1.
        -11    1    1    2    0    0  0.17488346452E+02 -0.10095974965E+03  0.43722029310E+03  0.44906602856E+03  0.00000000000E+00 0. -1.
         11    1    1    2    0    0  0.60063436653E+02 -0.79152475837E+02  0.18170567765E+03  0.20709824756E+03  0.00000000000E+00 0.  1.
</event>
<event>
 7    1  0.2556591E-009  0.1185121E+03  0.7561462E-02  0.1245572E+00
          1   -1    0    0  501    0  0.00000000000E+00  0.00000000000E+00  0.27506707702E+03  0.27506707702E+03  0.00000000000E+00 0. -1.
         -1   -1    0    0    0  501 -0.00000000000E+00 -0.00000000000E+00 -0.79003567425E+02  0.79003567425E+02  0.00000000000E+00 0.  1.
         25    2    1    2    0    0  0.59912902419E+02  0.64232739424E+02  0.16161883281E+03  0.22245003517E+03  0.12509184761E+03 0.  0.
          5    1    3    3  502    0 -0.21283418508E+02 -0.17852665007E+02  0.68580185515E+02  0.74110834542E+02  0.41800000000E+01 0. -1.
         -5    1    3    3    0  502  0.81196320927E+02  0.82085404431E+02  0.93038647291E+02  0.14833920063E+03  0.41800000000E+01 0. -1.
        -11    1    1    2    0    0 -0.50089841405E+02 -0.31380724695E+02  0.63444973752E+02  0.86712206688E+02  0.00000000000E+00 0. -1.
         11    1    1    2    0    0 -0.98230610138E+01 -0.32852014729E+02 -0.29000296961E+02  0.44908402591E+02  0.00000000000E+00 0.  1.
</event>
<event>
 7    1  0.2556591E-009  0.8652223E+02  0.7561462E-02  0.1311499E+00
         -1   -1    0    0    0  501 -0.00000000000E+00  0.00000000000E+00  0.48145782020E+03  0.48145782020E+03  0.00000000000E+00 0.  1.
          1   -1    0    0  501    0  0.00000000000E+00 -0.00000000000E+00 -0.29280183038E+02  0.29280183038E+02  0.00000000000E+00 0. -1.
         25    2    1    2    0    0  0.44260281804E+02 -0.15857249198E+01  0.29800926357E+03  0.32621844521E+03  0.12508983073E+03 0.  0.
          5    1    3    3  502    0  0.63102890728E+02 -0.90036625111E+01  0.61056431904E+02  0.88365157352E+02  0.41800000000E+01 0. -1.
         -5    1    3    3    0  502 -0.18842608925E+02  0.74179375913E+01  0.23695283167E+03  0.23785328786E+03  0.41800000000E+01 0. -1.
        -11    1    1    2    0    0 -0.46319362275E+01  0.35821455259E+02  0.11075504871E+03  0.11649597549E+03  0.00000000000E+00 0.  1.
         11    1    1    2    0    0 -0.39628345576E+02 -0.34235730339E+02  0.43413324884E+02  0.68023582547E+02  0.00000000000E+00 0. -1.
</event>
<event>
 7    1  0.2556591E-009  0.1245128E+03  0.7561462E-02  0.1235833E+00
         -2   -1    0    0    0  501 -0.00000000000E+00  0.00000000000E+00  0.20020645266E+03  0.20020645266E+03  0.00000000000E+00 0.  1.
          2   -1    0    0  501    0  0.00000000000E+00 -0.00000000000E+00 -0.23088483618E+03  0.23088483618E+03  0.00000000000E+00 0. -1.
         25    2    1    2    0    0  0.77590704508E+02  0.28563588120E+02  0.14716030100E+03  0.21009411747E+03  0.12508872057E+03 0.  0.
          5    1    3    3  502    0  0.39166621985E+02  0.58356738136E+02  0.18951971827E+02  0.72912158106E+02  0.41800000000E+01 0. -1.
         -5    1    3    3    0  502  0.38424082523E+02 -0.29793150016E+02  0.12820832917E+03  0.13718195936E+03  0.41800000000E+01 0. -1.
        -11    1    1    2    0    0  0.23107479172E+02  0.50607171689E+01 -0.21159382983E+02  0.31737768355E+02  0.00000000000E+00 0.  1.
         11    1    1    2    0    0 -0.10069818368E+03 -0.33624305289E+02 -0.15667930154E+03  0.18925940302E+03  0.00000000000E+00 0. -1.
</event>
<event>
 7    1  0.2556591E-009  0.8140008E+02  0.7561462E-02  0.1325125E+00
          2   -1    0    0  501    0  0.00000000000E+00  0.00000000000E+00  0.34817340290E+03  0.34817340290E+03  0.00000000000E+00 0. -1.
         -2   -1    0    0    0  501 -0.00000000000E+00 -0.00000000000E+00 -0.39649007346E+02  0.39649007346E+02  0.00000000000E+00 0.  1.
         25    2    1    2    0    0  0.73028828463E+01  0.42156569307E+02  0.14598724017E+03  0.19695285467E+03  0.12509054416E+03 0.  0.
          5    1    3    3  502    0  0.21056679145E+02  0.29341757387E+01  0.15305889432E+03  0.15458489788E+03  0.41800000000E+01 0. -1.
         -5    1    3    3    0  502 -0.13753796299E+02  0.39222393569E+02 -0.70716541504E+01  0.42367956787E+02  0.41800000000E+01 0. -1.
        -11    1    1    2    0    0  0.39613052763E+02 -0.33001279802E+02  0.95598771898E+02  0.10861585338E+03  0.00000000000E+00 0. -1.
         11    1    1    2    0    0 -0.46915935609E+02 -0.91552895051E+01  0.66938383484E+02  0.82253702187E+02  0.00000000000E+00 0.  1.
</event>
<event>
 7    1  0.2556591E-009  0.1529576E+03  0.7561462E-02  0.1196885E+00
          2   -1    0    0  501    0  0.00000000000E+00  0.00000000000E+00  0.46811751857E+03  0.46811751857E+03  0.00000000000E+00 0. -1.
         -2   -1    0    0    0  501 -0.00000000000E+00 -0.00000000000E+00 -0.59447965837E+02  0.59447965837E+02  0.00000000000E+00 0.  1.
         25    2    1    2    0    0  0.90646703728E+02 -0.88247114160E+02  0.24134405100E+03  0.29983146059E+03  0.12509027039E+03 0.  0.
          5    1    3    3  502    0  0.10709536766E+02 -0.80006975661E+02  0.57638984491E+02  0.99275048553E+02  0.41800000000E+01 0.  1.
         -5    1    3    3    0  502  0.79937166962E+02 -0.82401384992E+01  0.18370506651E+03  0.20055641203E+03  0.41800000000E+01 0.  1.
        -11    1    1    2    0    0 -0.44557773217E+02 -0.56152862562E+00  0.18161049565E+02  0.48119997815E+02  0.00000000000E+00 0.  1.
         11    1    1    2    0    0 -0.46088930511E+02  0.88808642785E+02  0.14916445217E+03  0.17961402601E+03  0.00000000000E+00 0. -1.
</event>
<event>
 7    1  0.2556591E-009  0.1141286E+03  0.7561462E-02  0.1253110E+00
         -2   -1    0    0    0  501 -0.00000000000E+00  0.00000000000E+00  0.29464426834E+03  0.29464426834E+03  0.00000000000E+00 0.  1.
          2   -1    0    0  501    0  0.00000000000E+00 -0.00000000000E+00 -0.13173846856E+03  0.13173846856E+03  0.00000000000E+00 0. -1.
         25    2    1    2    0    0  0.10007229608E+03 -0.47621442147E+01 -0.54288763321E+02  0.16920598875E+03  0.12508498849E+03 0.  0.
          5    1    3    3  502    0  0.10561738274E+03  0.14092148263E+02  0.48516684060E+01  0.10674563816E+03  0.41800000000E+01 0.  1.
         -5    1    3    3    0  502 -0.55450866589E+01 -0.18854292478E+02 -0.59140431727E+02  0.62460350589E+02  0.41800000000E+01 0.  1.
        -11    1    1    2    0    0 -0.34523405910E+02 -0.61841150553E+01  0.17494737948E+03  0.17842840138E+03  0.00000000000E+00 0.  1.
         11    1    1    2    0    0 -0.65548890174E+02  0.10946259270E+02  0.42247183620E+02  0.78748346769E+02  0.00000000000E+00 0. -1.
</event>
<event>
 7    1  0.2556591E-009  0.8670593E+02  0.7561462E-02  0.1311031E+00
         -1   -1    0    0    0  501 -0.00000000000E+00  0.00000000000E+00  0.85277999007E+02  0.85277999007E+02  0.00000000000E+00 0.  1.
          1   -1    0    0  501    0  0.00000000000E+00 -0.00000000000E+00 -0.24923834354E+03  0.24923834354E+03  0.00000000000E+00 0. -1.
         25    2    1    2    0    0  0.60721285931E+02 -0.16959621499E+02 -0.90418018391E+01  0.14036315810E+03  0.12508140807E+03 0.  0.
          5    1    3    3  502    0  0.53033617153E+01 -0.97376190356E+00  0.54223181134E+02  0.54650705668E+02  0.41800000000E+01 0. -1.
         -5    1    3    3    0  502  0.55417924216E+02 -0.15985859595E+02 -0.63264982973E+02  0.85712452433E+02  0.41800000000E+01 0. -1.
        -11    1    1    2    0    0 -0.69718122735E+02 -0.18537972254E+02 -0.65159009185E+02  0.97210953760E+02  0.00000000000E+00 0.  1.
         11    1    1    2    0    0  0.89968368036E+01  0.35497593752E+02 -0.89759533506E+02  0.96942230683E+02  0.00000000000E+00 0. -1.
</event>
<event>
 7    1  0.2556591E-009  0.1067354E+03  0.7561462E-02  0.1266738E+00
         -1   -1    0    0    0  501 -0.00000000000E+00  0.00000000000E+00  0.10877453381E+03  0.10877453381E+03  0.00000000000E+00 0.  1.
          1   -1    0    0  501    0  0.00000000000E+00 -0.00000000000E+00 -0.13914058703E+03  0.13914058703E+03  0.00000000000E+00 0. -1.
         25    2    1    2    0    0  0.49728864907E+02  0.30173439109E+01 -0.46033841884E+02  0.14229745269E+03  0.12508951224E+03 0.  0.
          5    1    3    3  502    0  0.51119841722E+02 -0.42402119085E+02 -0.64866191960E+02  0.92931551046E+02  0.41800000000E+01 0.  1.
         -5    1    3    3    0  502 -0.13909768145E+01  0.45419462996E+02  0.18832350076E+02  0.49365901640E+02  0.41800000000E+01 0.  1.
        -11    1    1    2    0    0 -0.75419460190E+02 -0.45273445022E+01  0.12889649630E+00  0.75555333617E+02  0.00000000000E+00 0. -1.
         11    1    1    2    0    0  0.25690595283E+02  0.15100005913E+01  0.15538892166E+02  0.30062334532E+02  0.00000000000E+00 0.  1.
</event>
<event>
 7    1  0.2556591E-009  0.1201552E+03  0.7561462E-02  0.1242841E+00
         -2   -1    0    0    0  501 -0.00000000000E+00  0.00000000000E+00  0.69026150297E+02  0.69026150297E+02  0.00000000000E+00 0.  1.
          2   -1    0    0  501    0  0.00000000000E+00 -0.00000000000E+00 -0.28579927131E+03  0.28579927131E+03  0.00000000000E+00 0. -1.
         25    2    1    2    0    0  0.65653286437E+02 -0.26730874896E+02 -0.19137383750E+03  0.23936698079E+03  0.12509081549E+03 0.  0.
          5    1    3    3  502    0  0.88111172784E+02  0.20200746293E+02 -0.13515981442E+03  0.16265699110E+03  0.41800000000E+01 0.  1.
         -5    1    3    3    0  502 -0.22457886348E+02 -0.46931621189E+02 -0.56214023083E+02  0.76709989688E+02  0.41800000000E+01 0.  1.
        -11    1    1    2    0    0 -0.39757626909E+02 -0.19765239068E+02  0.16867294867E+02  0.47495675687E+02  0.00000000000E+00 0.  1.
         11    1    1    2    0    0 -0.25895659527E+02  0.46496113964E+02 -0.42266578371E+02  0.67962765124E+02  0.00000000000E+00 0. -1.
</event>
<event>
 7    1  0.2556591E-009  0.3149181E+03  0.7561462E-02  0.1078012E+00
          2   -1    0    0  501    0  0.00000000000E+00  0.00000000000E+00  0.38511969758E+03  0.38511969758E+03  0.00000000000E+00 0. -1.
         -2   -1    0    0    0  501 -0.00000000000E+00 -0.00000000000E+00 -0.26814973148E+03  0.26814973148E+03  0.00000000000E+00 0.  1.
         25    2    1    2    0    0  0.21195162617E+03 -0.20822379226E+03  0.11357095829E+03  0.34179803335E+03  0.12508754348E+03 0.  0.
          5    1    3    3  502    0  0.48371054413E+02 -0.12689567935E+03  0.74447913872E+02  0.15492655235E+03  0.41800000000E+01 0.  1.
         -5    1    3    3    0  502  0.16358057176E+03 -0.81328112913E+02  0.39123044416E+02  0.18687148100E+03  0.41800000000E+01 0.  1.
        -11    1    1    2    0    0 -0.19771336741E+02 -0.85516229105E+01 -0.26952350254E+01  0.21709451922E+02  0.00000000000E+00 0. -1.
         11    1    1    2    0    0 -0.19218028943E+03  0.21677541517E+03  0.60942428376E+01  0.28976194378E+03  0.00000000000E+00 0.  1.
</event>
<event>
 7    1  0.2556591E-009  0.1015287E+03  0.7561462E-02  0.1277114E+00
          2   -1    0    0  501    0  0.00000000000E+00  0.00000000000E+00  0.25730334351E+03  0.25730334351E+03  0.00000000000E+00 0. -1.
         -2   -1    0    0    0  501 -0.00000000000E+00 -0.00000000000E+00 -0.70352932384E+02  0.70352932384E+02  0.00000000000E+00 0.  1.
         25    2    1    2    0    0 -0.17245318405E+02  0.66040343482E+02  0.15012107981E+03  0.20698334895E+03  0.12508812961E+03 0.  0.
          5    1    3    3  502    0  0.22587809955E+02 -0.22788906850E+02  0.81826564196E+02  0.87992058972E+02  0.41800000000E+01 0. -1.
         -5    1    3    3    0  502 -0.39833128360E+02  0.88829250332E+02  0.68294515610E+02  0.11899128998E+03  0.41800000000E+01 0. -1.
        -11    1    1    2    0    0  0.23464627727E+02 -0.39021008017E+02 -0.25691009834E+02  0.52280549034E+02  0.00000000000E+00 0.  1.
         11    1    1    2    0    0 -0.62193093220E+01 -0.27019335465E+02  0.62520341153E+02  0.68392377904E+02  0.00000000000E+00 0. -1.
</event>
<event>
 7    1  0.2556591E-009  0.8895372E+02  0.7561462E-02  0.1305405E+00
          2   -1    0    0  501    0  0.00000000000E+00  0.00000000000E+00  0.39218111110E+03  0.39218111110E+03  0.00000000000E+00 0. -1.
         -2   -1    0    0    0  501 -0.00000000000E+00 -0.00000000000E+00 -0.48243261638E+02  0.48243261638E+02  0.00000000000E+00 0.  1.
         25    2    1    2    0    0  0.66894302644E+02 -0.13913210499E+02  0.10848421245E+03  0.17911761376E+03  0.12508345236E+03 0.  0.
          5    1    3    3  502    0  0.54185453961E+02 -0.23929359119E+01 -0.13348030247E+02  0.56012783137E+02  0.41800000000E+01 0. -1.
         -5    1    3    3    0  502  0.12708848683E+02 -0.11520274588E+02  0.12183224270E+03  0.12310483062E+03  0.41800000000E+01 0. -1.
        -11    1    1    2    0    0 -0.36687478733E+02 -0.33469680725E+02  0.15797035724E+03  0.16559234400E+03  0.00000000000E+00 0.  1.
         11    1    1    2    0    0 -0.30206823911E+02  0.47382891224E+02  0.77483279774E+02  0.95714414986E+02  0.00000000000E+00 0. -1.
</event>
<event>
 7    1  0.2556591E-009  0.1219107E+03  0.7561462E-02  0.1239978E+00
          1   -1    0    0  501    0  0.00000000000E+00  0.00000000000E+00  0.15897996957E+03  0.15897996957E+03  0.00000000000E+00 0. -1.
         -1   -1    0    0    0  501 -0.00000000000E+00 -0.00000000000E+00 -0.11008160987E+03  0.11008160987E+03  0.00000000000E+00 0.  1.
         25    2    1    2    0    0  0.58812356666E+01  0.73209660154E+02  0.49300623443E+02  0.15320890151E+03  0.12509265669E+03 0.  0.
          5    1    3    3  502    0  0.38905891412E+02 -0.18080403904E+02  0.33873530778E+02  0.54822056504E+02  0.41800000000E+01 0. -1.
         -5    1    3    3    0  502 -0.33024655746E+02  0.91290064058E+02  0.15427092665E+02  0.98386845009E+02  0.41800000000E+01 0. -1.
        -11    1    1    2    0    0 -0.15182885041E+02 -0.86223587121E+02  0.20120265628E+02  0.89832355324E+02  0.00000000000E+00 0.  1.
         11    1    1    2    0    0  0.93016493742E+01  0.13013926967E+02 -0.20522529374E+02  0.26020322598E+02  0.00000000000E+00 0. -1.
</event>
<event>
 7    1  0.2556591E-009  0.1274510E+03  0.7561462E-02  0.1231288E+00
          2   -1    0    0  501    0  0.00000000000E+00  0.00000000000E+00  0.43289420604E+03  0.43289420604E+03  0.00000000000E+00 0. -1.
         -2   -1    0    0    0  501 -0.00000000000E+00 -0.00000000000E+00 -0.69734008069E+02  0.69734008069E+02  0.00000000000E+00 0.  1.
         25    2    1    2    0    0  0.10922109006E+03 -0.32800917748E+01  0.76191508838E+02  0.18273758830E+03  0.12509146510E+03 0.  0.
          5    1    3    3  502    0  0.43286070714E+02 -0.46766781578E+02 -0.11234685779E+02  0.64842164843E+02  0.41800000000E+01 0. -1.
         -5    1    3    3    0  502  0.65935019342E+02  0.43486689804E+02  0.87426194617E+02  0.11789542345E+03  0.41800000000E+01 0. -1.
        -11    1    1    2    0    0 -0.66528073533E+02 -0.99086203955E+01  0.25803435072E+03  0.26665687967E+03  0.00000000000E+00 0.  1.
         11    1    1    2    0    0 -0.42693016522E+02  0.13188712170E+02  0.28934338411E+02  0.53233746137E+02  0.00000000000E+00 0. -1.
</event>
<event>
 7    1  0.2556591E-009  0.1325691E+03  0.7561462E-02  0.1223693E+00
          2   -1    0    0  501    0  0.00000000000E+00  0.00000000000E+00  0.55252633381E+02  0.55252633381E+02  0.00000000000E+00 0. -1.
         -2   -1    0    0    0  501 -0.00000000000E+00 -0.00000000000E+00 -0.58527577438E+03  0.58527577438E+03  0.00000000000E+00 0.  1.
         25    2    1    2    0    0 -0.31738638713E+02 -0.94862017577E+02 -0.46165524571E+03  0.48865031692E+03  0.12508965894E+03 0.  0.
          5    1    3    3  502    0  0.17883780039E+02 -0.80694232678E+02 -0.13825047579E+03  0.16112745027E+03  0.41800000000E+01 0.  1.
         -5    1    3    3    0  502 -0.49622418751E+02 -0.14167784899E+02 -0.32340476992E+03  0.32752286665E+03  0.41800000000E+01 0.  1.
        -11    1    1    2    0    0 -0.24780801646E+02  0.58150138512E+02 -0.53615778371E+02  0.82886539495E+02  0.00000000000E+00 0.  1.
         11    1    1    2    0    0  0.56519440359E+02  0.36711879064E+02 -0.14752116920E+02  0.68991551341E+02  0.00000000000E+00 0. -1.
</event>
<event>
 7    1  0.3357262E-009  0.1323657E+03  0.7561462E-02  0.1223987E+00
         -1   -1    0    0    0  501 -0.00000000000E+00  0.00000000000E+00  0.75168870851E+02  0.75168870851E+02  0.00000000000E+00 0.  1.
          1   -1    0    0  501    0  0.00000000000E+00 -0.00000000000E+00 -0.26961496900E+03  0.26961496900E+03  0.00000000000E+00 0. -1.
         25    2    1    2    0    0  0.76468106802E+02 -0.49490097343E+02 -0.12176568058E+03  0.19690299160E+03  0.12508903246E+03 0.  0.
          5    1    3    3  502    0  0.27338526389E+02 -0.87860676445E+02 -0.76779629493E+02  0.11991445866E+03  0.41800000000E+01 0. -1.
         -5    1    3    3    0  502  0.49129580413E+02  0.38370579103E+02 -0.44986051089E+02  0.76988532944E+02  0.41800000000E+01 0. -1.
        -11    1    1    2    0    0 -0.51197234951E+01  0.37434823368E+02  0.89166866186E+01  0.38821190985E+02  0.00000000000E+00 0.  1.
         11    1    1    2    0    0 -0.71348383307E+02  0.12055273975E+02 -0.81597104188E+02  0.10905965727E+03  0.00000000000E+00 0. -1.
</event>
<event>
 7    1  0.2556591E-009  0.9678009E+02  0.7561462E-02  0.1287216E+00
          1   -1    0    0  501    0  0.00000000000E+00  0.00000000000E+00  0.19804815938E+03  0.19804815938E+03  0.00000000000E+00 0. -1.
         -1   -1    0    0    0  501 -0.00000000000E+00 -0.00000000000E+00 -0.13893484536E+03  0.13893484536E+03  0.00000000000E+00 0.  1.
         25    2    1    2    0    0  0.13274301776E+02  0.56137277508E+02 -0.81777079981E+02  0.16020030456E+03  0.12509614605E+03 0.  0.
          5    1    3    3  502    0 -0.26809401819E+02  0.36319358929E+01  0.23343955372E+02  0.35977043190E+02  0.41800000000E+01 0. -1.
         -5    1    3    3    0  502  0.40083703595E+02  0.52505341615E+02 -0.10512103535E+03  0.12422326137E+03  0.41800000000E+01 0. -1.
        -11    1    1    2    0    0 -0.43175673644E+02 -0.88896208240E+01  0.93948108999E+02  0.10377577433E+03  0.00000000000E+00 0. -1.
         11    1    1    2    0    0  0.29901371868E+02 -0.47247656684E+02  0.46942284998E+02  0.73006925853E+02  0.00000000000E+00 0.  1.
</event>
<event>
 7    1  0.2556591E-009  0.1068639E+03  0.7561462E-02  0.1266490E+00
          2   -1    0    0  501    0  0.00000000000E+00  0.00000000000E+00  0.14965002296E+04  0.14965002296E+04  0.00000000000E+00 0.  1.
         -2   -1    0    0    0  501 -0.00000000000E+00 -0.00000000000E+00 -0.12382426173E+02  0.12382426173E+02  0.00000000000E+00 0. -1.
         25    2    1    2    0    0 -0.27864901454E+02  0.63251859943E+02  0.10675188920E+04  0.10770429738E+04  0.12509089472E+03 0.  0.
          5    1    3    3  502    0  0.77695943422E+01 -0.15748867740E+02  0.66651918713E+03  0.66676359577E+03  0.41800000000E+01 0.  1.
         -5    1    3    3    0  502 -0.35634495796E+02  0.79000727683E+02  0.40099970490E+03  0.41027937798E+03  0.41800000000E+01 0.  1.
        -11    1    1    2    0    0  0.20511272679E+02 -0.84224039152E+02  0.37254702559E+03  0.38249926451E+03  0.00000000000E+00 0.  1.
         11    1    1    2    0    0  0.73536287746E+01  0.20972179209E+02  0.44051885817E+02  0.49340417519E+02  0.00000000000E+00 0. -1.
</event>
<event>
 7    1  0.2556591E-009  0.1241192E+03  0.7561462E-02  0.1236452E+00
         -2   -1    0    0    0  501 -0.00000000000E+00  0.00000000000E+00  0.10021174165E+03  0.10021174165E+03  0.00000000000E+00 0. -1.
          2   -1    0    0  501    0  0.00000000000E+00 -0.00000000000E+00 -0.28145979301E+03  0.28145979301E+03  0.00000000000E+00 0.  1.
         25    2    1    2    0    0 -0.29652027834E+01  0.90910142161E+02  0.55081033202E+01  0.15476327180E+03  0.12509150538E+03 0.  0.
          5    1    3    3  502    0 -0.32678891967E+02 -0.20803481967E+02  0.26730084951E+01  0.39055245698E+02  0.41800000000E+01 0.  1.
         -5    1    3    3    0  502  0.29713689183E+02  0.11171362413E+03  0.28350948251E+01  0.11570802610E+03  0.41800000000E+01 0.  1.
        -11    1    1    2    0    0 -0.95749334189E+01 -0.33752134715E+02 -0.15773500658E+03  0.16158966009E+03  0.00000000000E+00 0.  1.
         11    1    1    2    0    0  0.12540136202E+02 -0.57158007446E+02 -0.29021148103E+02  0.65318602775E+02  0.00000000000E+00 0. -1.
</event>
<event>
 7    1  0.2556591E-009  0.1077667E+03  0.7561462E-02  0.1264762E+00
         -2   -1    0    0    0  501 -0.00000000000E+00  0.00000000000E+00  0.14737401299E+02  0.14737401299E+02  0.00000000000E+00 0.  1.
          2   -1    0    0  501    0  0.00000000000E+00 -0.00000000000E+00 -0.90483498762E+03  0.90483498762E+03  0.00000000000E+00 0. -1.
         25    2    1    2    0    0  0.27579881983E+02  0.20029235543E+02 -0.59644795413E+03  0.61037767656E+03  0.12509566693E+03 0.  0.
          5    1    3    3  502    0  0.21495903511E+02  0.72962515289E+02 -0.34373318395E+03  0.35207325467E+03  0.41800000000E+01 0.  1.
         -5    1    3    3    0  502  0.60839784720E+01 -0.52933279746E+02 -0.25271477018E+03  0.25830442189E+03  0.41800000000E+01 0.  1.
        -11    1    1    2    0    0 -0.30407622503E+02 -0.48529936043E+02 -0.25342599047E+03  0.25981630212E+03  0.00000000000E+00 0. -1.
         11    1    1    2    0    0  0.28277405199E+01  0.28500700500E+02 -0.40223641716E+02  0.49378410245E+02  0.00000000000E+00 0.  1.
</event>
<event>
 7    1  0.2556591E-009  0.1420188E+03  0.7561462E-02  0.1210638E+00
         -1   -1    0    0    0  501 -0.00000000000E+00  0.00000000000E+00  0.16601905185E+03  0.16601905185E+03  0.00000000000E+00 0.  1.
          1   -1    0    0  501    0  0.00000000000E+00 -0.00000000000E+00 -0.20658834719E+03  0.20658834719E+03  0.00000000000E+00 0. -1.
         25    2    1    2    0    0 -0.77214536475E+00  0.12429493585E+03 -0.84766726292E+02  0.19565934869E+03  0.12508939026E+03 0.  0.
          5    1    3    3  502    0  0.19601227026E+02  0.11193882647E+03 -0.66841042140E+01  0.11391513781E+03  0.41800000000E+01 0.  1.
         -5    1    3    3    0  502 -0.20373372390E+02  0.12356109379E+02 -0.78082622079E+02  0.81744210879E+02  0.41800000000E+01 0.  1.
        -11    1    1    2    0    0  0.38125395951E+02 -0.76439975047E+02  0.70530790633E+02  0.11077548478E+03  0.00000000000E+00 0.  1.
         11    1    1    2    0    0 -0.37353250587E+02 -0.47854960802E+02 -0.26333359677E+02  0.66172565574E+02  0.00000000000E+00 0. -1.
</event>
<event>
 7    1  0.2556591E-009  0.1128018E+03  0.7561462E-02  0.1255468E+00
          1   -1    0    0  501    0  0.00000000000E+00  0.00000000000E+00  0.65422925856E+03  0.65422925856E+03  0.00000000000E+00 0. -1.
         -1   -1    0    0    0  501 -0.00000000000E+00 -0.00000000000E+00 -0.28241848745E+02  0.28241848745E+02  0.00000000000E+00 0.  1.
         25    2    1    2    0    0  0.22426940278E+02  0.77249980909E+02  0.39240370718E+03  0.41964039315E+03  0.12508742123E+03 0.  0.
          5    1    3    3  502    0  0.64838364824E+02  0.72104317159E+02  0.19744086793E+03  0.22000776085E+03  0.41800000000E+01 0.  1.
         -5    1    3    3    0  502 -0.42411424546E+02  0.51456637504E+01  0.19496283926E+03  0.19963263230E+03  0.41800000000E+01 0.  1.
        -11    1    1    2    0    0 -0.71535034015E+01 -0.66635063928E+02  0.23481369175E+03  0.24419024180E+03  0.00000000000E+00 0. -1.
         11    1    1    2    0    0 -0.15273436877E+02 -0.10614916982E+02 -0.12299891200E+01  0.18640472360E+02  0.00000000000E+00 0.  1.
</event>
<event>
 7    1  0.2556591E-009  0.1086593E+03  0.7561462E-02  0.1263073E+00
          2   -1    0    0  501    0  0.00000000000E+00  0.00000000000E+00  0.95460369876E+03  0.95460369876E+03  0.00000000000E+00 0. -1.
         -2   -1    0    0    0  501 -0.00000000000E+00 -0.00000000000E+00 -0.14067763472E+02  0.14067763472E+02  0.00000000000E+00 0.  1.
         25    2    1    2    0    0  0.46368575949E+00 -0.19470998230E+02  0.68379805979E+03  0.69541614420E+03  0.12507794476E+03 0.  0.
          5    1    3    3  502    0  0.62044057438E+02 -0.17716281513E+01  0.35428493852E+03  0.35970528741E+03  0.41800000000E+01 0. -1.
         -5    1    3    3    0  502 -0.61580371678E+02 -0.17699370079E+02  0.32951312127E+03  0.33571085679E+03  0.41800000000E+01 0. -1.
        -11    1    1    2    0    0 -0.24164474302E+01  0.55131810273E+02  0.18598698745E+03  0.19400132789E+03  0.00000000000E+00 0.  1.
         11    1    1    2    0    0  0.19527616707E+01 -0.35660812043E+02  0.70750888053E+02  0.79253990146E+02  0.00000000000E+00 0. -1.
</event>
<event>
 7    1  0.2556591E-009  0.1558857E+03  0.7561462E-02  0.1193422E+00
         -1   -1    0    0    0  501 -0.00000000000E+00  0.00000000000E+00  0.11239114768E+04  0.11239114768E+04  0.00000000000E+00 0.  1.
          1   -1    0    0  501    0  0.00000000000E+00 -0.00000000000E+00 -0.25861211035E+02  0.25861211035E+02  0.00000000000E+00 0. -1.
         25    2    1    2    0    0  0.98443206987E+02  0.85754691579E+02  0.56819288978E+03  0.59626863204E+03  0.12509272335E+03 0.  0.
          5    1    3    3  502    0  0.10387869136E+03  0.14794238608E+02  0.40077555686E+03  0.41430444288E+03  0.41800000000E+01 0.  1.
         -5    1    3    3    0  502 -0.54354843711E+01  0.70960452971E+02  0.16741733292E+03  0.18196418916E+03  0.41800000000E+01 0.  1.
        -11    1    1    2    0    0 -0.58312174364E+02 -0.26856031557E+02  0.10777900628E+03  0.12545066881E+03  0.00000000000E+00 0. -1.
         11    1    1    2    0    0 -0.40131032623E+02 -0.58898660022E+02  0.42207836972E+03  0.42805338699E+03  0.00000000000E+00 0.  1.
</event>
<event>
 7    1  0.2556591E-009  0.2379666E+03  0.7561462E-02  0.1121155E+00
         -2   -1    0    0    0  501 -0.00000000000E+00  0.00000000000E+00  0.51133377029E+02  0.51133377029E+02  0.00000000000E+00 0. -1.
          2   -1    0    0  501    0  0.00000000000E+00 -0.00000000000E+00 -0.12993311499E+04  0.12993311499E+04  0.00000000000E+00 0.  1.
         25    2    1    2    0    0  0.59746217724E+02 -0.21882583726E+03 -0.49306392015E+03  0.55696848946E+03  0.12509001285E+03 0.  0.
          5    1    3    3  502    0  0.18472302235E+02  0.89813631002E+00 -0.42395424269E+01  0.19428811561E+02  0.41800000000E+01 0. -1.
         -5    1    3    3    0  502  0.41273915489E+02 -0.21972397357E+03 -0.48882437772E+03  0.53753967790E+03  0.41800000000E+01 0. -1.
        -11    1    1    2    0    0  0.89803776375E+00  0.99595662674E+02 -0.44027170726E+03  0.45139703001E+03  0.00000000000E+00 0.  1.
         11    1    1    2    0    0 -0.60644255488E+02  0.11923017459E+03 -0.31486214549E+03  0.34209900748E+03  0.00000000000E+00 0. -1.
</event>
<event>
 7    1  0.2556591E-009  0.8693697E+02  0.7561462E-02  0.1310443E+00
          1   -1    0    0  501    0  0.00000000000E+00  0.00000000000E+00  0.33527182491E+03  0.33527182491E+03  0.00000000000E+00 0. -1.
         -1   -1    0    0    0  501 -0.00000000000E+00 -0.00000000000E+00 -0.35344817613E+02  0.35344817613E+02  0.00000000000E+00 0.  1.
         25    2    1    2    0    0  0.23287197433E+01 -0.17182987924E+02  0.15785544994E+03  0.20215265789E+03  0.12508667398E+03 0.  0.
          5    1    3    3  502    0  0.16934092245E+02 -0.49874776346E+02  0.15747371064E+03  0.16610147121E+03  0.41800000000E+01 0. -1.
         -5    1    3    3    0  502 -0.14605372502E+02  0.32691788422E+02  0.38173929705E+00  0.36051186680E+02  0.41800000000E+01 0. -1.
        -11    1    1    2    0    0 -0.42448130295E+02  0.14189789774E+02  0.10335375755E+03  0.11262856254E+03  0.00000000000E+00 0. -1.
         11    1    1    2    0    0  0.40119410552E+02  0.29931981493E+01  0.38717799803E+02  0.55835422088E+02  0.00000000000E+00 0.  1.
</event>
<event>
 7    1  0.2556591E-009  0.1801301E+03  0.7561462E-02  0.1167677E+00
          2   -1    0    0  501    0  0.00000000000E+00  0.00000000000E+00  0.16720668862E+03  0.16720668862E+03  0.00000000000E+00 0. -1.
         -2   -1    0    0    0  501 -0.00000000000E+00 -0.00000000000E+00 -0.20911950579E+03  0.20911950579E+03  0.00000000000E+00 0.  1.
         25    2    1    2    0    0 -0.13958549095E+03  0.53263591446E+02  0.89948193176E+01  0.19506371324E+03  0.12509127064E+03 0.  0.
          5    1    3    3  502    0  0.49693182785E+01  0.42346143727E+02 -0.19817340188E+02  0.47202641714E+02  0.41800000000E+01 0.  1.
         -5    1    3    3    0  502 -0.14455480923E+03  0.10917447719E+02  0.28812159506E+02  0.14786107152E+03  0.41800000000E+01 0.  1.
        -11    1    1    2    0    0  0.15151586851E+03 -0.45665350336E+02 -0.53163244974E+02  0.16693925017E+03  0.00000000000E+00 0. -1.
         11    1    1    2    0    0 -0.11930377558E+02 -0.75982411102E+01  0.22556084923E+01  0.14323231001E+02  0.00000000000E+00 0.  1.
</event>
<event>
 7    1  0.2556591E-009  0.1045586E+03  0.7561462E-02  0.1270992E+00
         -4   -1    0    0    0  501 -0.00000000000E+00  0.00000000000E+00  0.32090238103E+03  0.32090238103E+03  0.00000000000E+00 0.  1.
          4   -1    0    0  501    0  0.00000000000E+00 -0.00000000000E+00 -0.44426397377E+02  0.44426397377E+02  0.00000000000E+00 0. -1.
         25    2    1    2    0    0  0.27546687088E+02 -0.31010893993E+02  0.11901549740E+03  0.17757544759E+03  0.12509138840E+03 0.  0.
          5    1    3    3  502    0  0.62630249855E+02 -0.51855110760E+02  0.45191329952E+02  0.93119436273E+02  0.41800000000E+01 0. -1.
         -5    1    3    3    0  502 -0.35083562767E+02  0.20844216768E+02  0.73824167443E+02  0.84456011318E+02  0.41800000000E+01 0. -1.
        -11    1    1    2    0    0  0.80112113120E+01 -0.21678531776E+02  0.65804205693E+01  0.24029985050E+02  0.00000000000E+00 0. -1.
         11    1    1    2    0    0 -0.35557898400E+02  0.52689425768E+02  0.15088006569E+03  0.16372334576E+03  0.00000000000E+00 0.  1.
</event>
<event>
 7    1  0.2724191E-009  0.1480983E+03  0.7561462E-02  0.1202829E+00
          1   -1    0    0  501    0  0.00000000000E+00  0.00000000000E+00  0.24642454372E+03  0.24642454372E+03  0.00000000000E+00 0. -1.
         -1   -1    0    0    0  501 -0.00000000000E+00 -0.00000000000E+00 -0.11311115598E+03  0.11311115598E+03  0.00000000000E+00 0.  1.
         25    2    1    2    0    0  0.11690508896E+03  0.46015104873E+02  0.56788060937E+02  0.18616172566E+03  0.12508842686E+03 0.  0.
          5    1    3    3  502    0  0.99666352950E+02  0.87702877151E+01 -0.17051160147E+02  0.10158008820E+03  0.41800000000E+01 0.  1.
         -5    1    3    3    0  502  0.17238736014E+02  0.37244817158E+02  0.73839221084E+02  0.84581637457E+02  0.41800000000E+01 0.  1.
        -11    1    1    2    0    0 -0.64649003909E+02  0.22663249017E+02  0.25370052803E+02  0.73053104942E+02  0.00000000000E+00 0.  1.
         11    1    1    2    0    0 -0.52256085055E+02 -0.68678353891E+02  0.51155273997E+02  0.10032086910E+03  0.00000000000E+00 0. -1.
</event>
<event>
 7    1  0.2803886E-009  0.9269258E+02  0.7561462E-02  0.1296459E+00
          1   -1    0    0  501    0  0.00000000000E+00  0.00000000000E+00  0.43609255141E+03  0.43609255141E+03  0.00000000000E+00 0. -1.
         -1   -1    0    0    0  501 -0.00000000000E+00 -0.00000000000E+00 -0.32857596230E+02  0.32857596230E+02  0.00000000000E+00 0.  1.
         25    2    1    2    0    0  0.17007775226E+02 -0.20892882168E+02  0.31117848803E+03  0.33646116707E+03  0.12509311968E+03 0.  0.
          5    1    3    3  502    0  0.28974184920E+02  0.31355053584E+02  0.25544811592E+03  0.25902481562E+03  0.41800000000E+01 0. -1.
         -5    1    3    3    0  502 -0.11966409694E+02 -0.52247935752E+02  0.55730372110E+02  0.77436351456E+02  0.41800000000E+01 0. -1.
        -11    1    1    2    0    0 -0.30901691888E+02 -0.25645320818E+02  0.18187435398E+02  0.44083782140E+02  0.00000000000E+00 0.  1.
         11    1    1    2    0    0  0.13893916662E+02  0.46538202986E+02  0.73869031745E+02  0.88405198424E+02  0.00000000000E+00 0. -1.
</event>
<event>
 7    1  0.2556591E-009  0.1266132E+03  0.7561462E-02  0.1232569E+00
          3   -1    0    0  501    0  0.00000000000E+00  0.00000000000E+00  0.20818051003E+03  0.20818051003E+03  0.00000000000E+00 0. -1.
         -3   -1    0    0    0  501 -0.00000000000E+00 -0.00000000000E+00 -0.10926788625E+03  0.10926788625E+03  0.00000000000E+00 0.  1.
         25    2    1    2    0    0 -0.93466699065E+02  0.47742232889E+02  0.34768543441E+02  0.16694746756E+03  0.12508901101E+03 0.  0.
          5    1    3    3  502    0 -0.94198957919E+02  0.59889686420E+02 -0.17546445259E+02  0.11307328753E+03  0.41800000000E+01 0.  1.
         -5    1    3    3    0  502  0.73225885356E+00 -0.12147453531E+02  0.52314988700E+02  0.53874180022E+02  0.41800000000E+01 0.  1.
        -11    1    1    2    0    0  0.70217733428E+02 -0.68052995008E+02  0.68406833273E+02  0.11933664590E+03  0.00000000000E+00 0. -1.
         11    1    1    2    0    0  0.23248965637E+02  0.20310762119E+02 -0.42627529277E+01  0.31164282818E+02  0.00000000000E+00 0.  1.
</event>
<event>
 7    1  0.2556591E-009  0.1128151E+03  0.7561462E-02  0.1255444E+00
          2   -1    0    0  501    0  0.00000000000E+00  0.00000000000E+00  0.79187396568E+03  0.79187396568E+03  0.00000000000E+00 0.  1.
         -2   -1    0    0    0  501 -0.00000000000E+00 -0.00000000000E+00 -0.16788115790E+02  0.16788115790E+02  0.00000000000E+00 0. -1.
         25    2    1    2    0    0  0.14627825958E+02 -0.34775917560E+02  0.42416395929E+03  0.44383070225E+03  0.12508912887E+03 0.  0.
          5    1    3    3  502    0  0.45954666576E+02  0.31314568234E+02  0.21866892472E+03  0.22566790779E+03  0.41800000000E+01 0. -1.
         -5    1    3    3    0  502 -0.31326840619E+02 -0.66090485794E+02  0.20549503457E+03  0.21816279446E+03  0.41800000000E+01 0. -1.
        -11    1    1    2    0    0  0.36506458420E+02  0.35219701564E+01  0.91488374865E+02  0.98565960227E+02  0.00000000000E+00 0. -1.
         11    1    1    2    0    0 -0.51134284378E+02  0.31253947403E+02  0.25943351573E+03  0.26626541899E+03  0.00000000000E+00 0.  1.
</event>
<event>
 7    1  0.2556591E-009  0.2424368E+03  0.7561462E-02  0.1118180E+00
         -1   -1    0    0    0  501 -0.00000000000E+00  0.00000000000E+00  0.40990064709E+03  0.40990064709E+03  0.00000000000E+00 0.  1.
          1   -1    0    0  501    0  0.00000000000E+00 -0.00000000000E+00 -0.31736354249E+03  0.31736354249E+03  0.00000000000E+00 0. -1.
         25    2    1    2    0    0 -0.12841038762E+03 -0.18261044103E+03 -0.21255605535E+03  0.33265836407E+03  0.12508281137E+03 0.  0.
          5    1    3    3  502    0 -0.38641738373E+01 -0.11269241870E+03 -0.87842264469E+02  0.14299737375E+03  0.41800000000E+01 0. -1.
         -5    1    3    3    0  502 -0.12454621378E+03 -0.69918022327E+02 -0.12471379088E+03  0.18966099032E+03  0.41800000000E+01 0. -1.
        -11    1    1    2    0    0  0.53334808664E+02  0.12025918125E+03  0.92912242986E+02  0.16105762133E+03  0.00000000000E+00 0. -1.
         11    1    1    2    0    0  0.75075578958E+02  0.62351259774E+02  0.21218091696E+03  0.23354820418E+03  0.00000000000E+00 0.  1.
</event>
<event>
 7    1  0.2556591E-009  0.8334337E+02  0.7561462E-02  0.1319823E+00
         -2   -1    0    0    0  501 -0.00000000000E+00  0.00000000000E+00  0.13399660612E+03  0.13399660612E+03  0.00000000000E+00 0. -1.
          2   -1    0    0  501    0  0.00000000000E+00 -0.00000000000E+00 -0.99876309907E+02  0.99876309907E+02  0.00000000000E+00 0.  1.
         25    2    1    2    0    0  0.21256823920E+02 -0.24561986553E+02 -0.95506272556E+01  0.12958286229E+03  0.12508141337E+03 0.  0.
          5    1    3    3  502    0  0.51163568666E+02 -0.44776232228E+02  0.31251364930E+02  0.74944926054E+02  0.41800000000E+01 0.  1.
         -5    1    3    3    0  502 -0.29906744746E+02  0.20214245675E+02 -0.40801992185E+02  0.54637936233E+02  0.41800000000E+01 0.  1.
        -11    1    1    2    0    0 -0.16311879290E+02 -0.15119541787E+02 -0.19464732939E+02  0.29555943196E+02  0.00000000000E+00 0.  1.
         11    1    1    2    0    0 -0.49449446297E+01  0.39681528340E+02  0.63135656405E+02  0.74734110542E+02  0.00000000000E+00 0. -1.
</event>
<event>
 7    1  0.2556591E-009  0.9198041E+02  0.7561462E-02  0.1298125E+00
         -1   -1    0    0    0  501 -0.00000000000E+00  0.00000000000E+00  0.49028249709E+02  0.49028249709E+02  0.00000000000E+00 0.  1.
          1   -1    0    0  501    0  0.00000000000E+00 -0.00000000000E+00 -0.27328028061E+03  0.27328028061E+03  0.00000000000E+00 0. -1.
         25    2    1    2    0    0  0.28519307916E+02  0.29425406472E+02 -0.12751948870E+03  0.18326455781E+03  0.12508186392E+03 0.  0.
          5    1    3    3  502    0  0.69288483122E+02 -0.28884747272E+01 -0.10616079044E+03  0.12687325568E+03  0.41800000000E+01 0. -1.
         -5    1    3    3    0  502 -0.40769175206E+02  0.32313881200E+02 -0.21358698268E+02  0.56391302138E+02  0.41800000000E+01 0. -1.
        -11    1    1    2    0    0 -0.40903846657E+02 -0.15710045217E+02 -0.34543994512E+01  0.43952964265E+02  0.00000000000E+00 0.  1.
         11    1    1    2    0    0  0.12384538742E+02 -0.13715361255E+02 -0.93278142743E+02  0.95091008238E+02  0.00000000000E+00 0. -1.
</event>
<event>
 7    1  0.2556591E-009  0.1010133E+03  0.7561462E-02  0.1278179E+00
         -2   -1    0    0    0  501 -0.00000000000E+00  0.00000000000E+00  0.45921604050E+02  0.45921604050E+02  0.00000000000E+00 0.  1.
          2   -1    0    0  501    0  0.00000000000E+00 -0.00000000000E+00 -0.47122139721E+03  0.47122139721E+03  0.00000000000E+00 0. -1.
         25    2    1    2    0    0 -0.26979023026E+02  0.49187818982E+02 -0.36618173457E+03  0.39100414511E+03  0.12509144473E+03 0.  0.
          5    1    3    3  502    0 -0.67997480485E+02  0.30741985052E+01 -0.12933314092E+03  0.14621094962E+03  0.41800000000E+01 0.  1.
         -5    1    3    3    0  502  0.41018457459E+02  0.46113620477E+02 -0.23684859365E+03  0.24479319549E+03  0.41800000000E+01 0.  1.
        -11    1    1    2    0    0  0.12422380317E+02 -0.54935804527E+02  0.82973300276E+01  0.56930693280E+02  0.00000000000E+00 0.  1.
         11    1    1    2    0    0  0.14556642709E+02  0.57479855441E+01 -0.67415388616E+02  0.69208162864E+02  0.00000000000E+00 0. -1.
</event>
<event>
 7    1  0.2556591E-009  0.8743823E+02  0.7561462E-02  0.1309177E+00
         -1   -1    0    0    0  501 -0.00000000000E+00  0.00000000000E+00  0.60918037239E+02  0.60918037239E+02  0.00000000000E+00 0.  1.
          1   -1    0    0  501    0  0.00000000000E+00 -0.00000000000E+00 -0.20854447438E+03  0.20854447438E+03  0.00000000000E+00 0. -1.
         25    2    1    2    0    0 -0.24781313143E+02 -0.20871399069E+02 -0.82537550842E+02  0.15332861877E+03  0.12508992468E+03 0.  0.
          5    1    3    3  502    0  0.51410488646E+01  0.43311445044E+02  0.88278808786E+00  0.43824232680E+02  0.41800000000E+01 0. -1.
         -5    1    3    3    0  502 -0.29922362008E+02 -0.64182844113E+02 -0.83420338930E+02  0.10950438609E+03  0.41800000000E+01 0. -1.
        -11    1    1    2    0    0  0.39517263008E+02  0.74964384874E+01  0.74574514440E+01  0.40907508451E+02  0.00000000000E+00 0.  1.
         11    1    1    2    0    0 -0.14735949865E+02  0.13374960582E+02 -0.72546337738E+02  0.75226384389E+02  0.00000000000E+00 0. -1.
</event>
<event>
 7    1  0.2556591E-009  0.1855401E+03  0.7561462E-02  0.1162546E+00
          1   -1    0    0  501    0  0.00000000000E+00  0.00000000000E+00  0.52360001274E+03  0.52360001274E+03  0.00000000000E+00 0.  1.
         -1   -1    0    0    0  501 -0.00000000000E+00 -0.00000000000E+00 -0.75377518013E+02  0.75377518013E+02  0.00000000000E+00 0. -1.
         25    2    1    2    0    0 -0.91577510698E+02 -0.13236265936E+03  0.30033161181E+03  0.36298036163E+03  0.12509736935E+03 0.  0.
          5    1    3    3  502    0 -0.11748990213E+03 -0.13119669403E+03  0.24535133447E+03  0.30204502869E+03  0.41800000000E+01 0.  1.
         -5    1    3    3    0  502  0.25912391427E+02 -0.11659653258E+01  0.54980277342E+02  0.60935332946E+02  0.41800000000E+01 0.  1.
        -11    1    1    2    0    0  0.29453728069E+02  0.86631745505E+02  0.12616936870E+03  0.15585663612E+03  0.00000000000E+00 0.  1.
         11    1    1    2    0    0  0.62123782629E+02  0.45730913851E+02  0.21721514220E+02  0.80140533002E+02  0.00000000000E+00 0. -1.
</event>
<event>
 7    1  0.2556591E-009  0.1549959E+03  0.7561462E-02  0.1194465E+00
         -3   -1    0    0    0  501 -0.00000000000E+00  0.00000000000E+00  0.37175503142E+02  0.37175503142E+02  0.00000000000E+00 0.  1.
          3   -1    0    0  501    0  0.00000000000E+00 -0.00000000000E+00 -0.97659065985E+03  0.97659065985E+03  0.00000000000E+00 0. -1.
         25    2    1    2    0    0  0.14024063663E+03 -0.41417480471E+02 -0.64306077242E+03  0.67123562000E+03  0.12508899505E+03 0.  0.
          5    1    3    3  502    0  0.14167478778E+03 -0.52976194002E+02 -0.64109015327E+03  0.65870500199E+03  0.41800000000E+01 0. -1.
         -5    1    3    3    0  502 -0.14341511568E+01  0.11558713531E+02 -0.19706191542E+01  0.12530618017E+02  0.41800000000E+01 0. -1.
        -11    1    1    2    0    0 -0.95844663143E+02  0.26024839613E+02 -0.27208560453E+03  0.28964472708E+03  0.00000000000E+00 0. -1.
         11    1    1    2    0    0 -0.44395973484E+02  0.15392640858E+02 -0.24268779757E+02  0.52885815916E+02  0.00000000000E+00 0.  1.
</event>
<event>
 7    1  0.2556591E-009  0.1249477E+03  0.7561462E-02  0.1235151E+00
          2   -1    0    0  501    0  0.00000000000E+00  0.00000000000E+00  0.33068752677E+03  0.33068752677E+03  0.00000000000E+00 0. -1.
         -2   -1    0    0    0  501 -0.00000000000E+00 -0.00000000000E+00 -0.94003219707E+02  0.94003219707E+02  0.00000000000E+00 0.  1.
         25    2    1    2    0    0  0.60687616432E+02  0.64301326179E+02 -0.33511886705E+01  0.15322115866E+03  0.12509134926E+03 0.  0.
          5    1    3    3  502    0  0.80054943209E+02  0.65104434740E+02  0.35828385535E+02  0.10930931783E+03  0.41800000000E+01 0.  1.
         -5    1    3    3    0  502 -0.19367326777E+02 -0.80310856178E+00 -0.39179574206E+02  0.43911840827E+02  0.41800000000E+01 0.  1.
        -11    1    1    2    0    0  0.12654019937E+02  0.14432194177E+02  0.35338299203E+02  0.40214522748E+02  0.00000000000E+00 0.  1.
         11    1    1    2    0    0 -0.73341636369E+02 -0.78733520356E+02  0.20469719653E+03  0.23125506507E+03  0.00000000000E+00 0. -1.
</event>
<event>
 7    1  0.2556591E-009  0.1604057E+03  0.7561462E-02  0.1188239E+00
          1   -1    0    0  501    0  0.00000000000E+00  0.00000000000E+00  0.15130983583E+03  0.15130983583E+03  0.00000000000E+00 0. -1.
         -1   -1    0    0    0  501 -0.00000000000E+00 -0.00000000000E+00 -0.18317429005E+03  0.18317429005E+03  0.00000000000E+00 0.  1.
         25    2    1    2    0    0  0.44623544440E+02  0.11240731106E+03  0.19771362780E+02  0.17511503145E+03  0.12509077966E+03 0.  0.
          5    1    3    3  502    0 -0.39929046425E+02  0.53883780956E+02 -0.10103469862E+02  0.67951034589E+02  0.41800000000E+01 0.  1.
         -5    1    3    3    0  502  0.84552590865E+02  0.58523530102E+02  0.29874832642E+02  0.10716399686E+03  0.41800000000E+01 0.  1.
        -11    1    1    2    0    0 -0.62868680033E+02 -0.36638951114E+02 -0.22470849632E+02  0.76156567353E+02  0.00000000000E+00 0.  1.
         11    1    1    2    0    0  0.18245135593E+02 -0.75768359944E+02 -0.29164967372E+02  0.83212527081E+02  0.00000000000E+00 0. -1.
</event>
<event>
 7    1  0.2556591E-009  0.1039590E+03  0.7561462E-02  0.1272184E+00
         -2   -1    0    0    0  501 -0.00000000000E+00  0.00000000000E+00  0.27432764009E+02  0.27432764009E+02  0.00000000000E+00 0.  1.
          2   -1    0    0  501    0  0.00000000000E+00 -0.00000000000E+00 -0.50536462304E+03  0.50536462304E+03  0.00000000000E+00 0. -1.
         25    2    1    2    0    0  0.17059866683E+02 -0.21436413591E+02 -0.35477547890E+03  0.37717973679E+03  0.12509338328E+03 0.  0.
          5    1    3    3  502    0  0.64500223236E+02 -0.10198051198E+02 -0.11366805648E+03  0.13115707571E+03  0.41800000000E+01 0.  1.
         -5    1    3    3    0  502 -0.47440356553E+02 -0.11238362393E+02 -0.24110742242E+03  0.24602266108E+03  0.41800000000E+01 0.  1.
        -11    1    1    2    0    0  0.13220939789E+02  0.50124143900E+02 -0.53993603329E+02  0.74850065137E+02  0.00000000000E+00 0.  1.
         11    1    1    2    0    0 -0.30280806472E+02 -0.28687730308E+02 -0.69162776806E+02  0.80767585121E+02  0.00000000000E+00 0. -1.
</event>
<event>
 7    1  0.2556591E-009  0.1413494E+03  0.7561462E-02  0.1211525E+00
         -2   -1    0    0    0  501 -0.00000000000E+00  0.00000000000E+00  0.26282170616E+02  0.26282170616E+02  0.00000000000E+00 0.  1.
          2   -1    0    0  501    0  0.00000000000E+00 -0.00000000000E+00 -0.10581897983E+04  0.10581897983E+04  0.00000000000E+00 0. -1.
         25    2    1    2    0    0 -0.52549718933E+02 -0.11079919189E+03 -0.44532040955E+03  0.47853563321E+03  0.12509257056E+03 0.  0.
          5    1    3    3  502    0  0.28917129335E+02 -0.25106098774E+02 -0.36974761645E+02  0.53395898376E+02  0.41800000000E+01 0. -1.
         -5    1    3    3    0  502 -0.81466848269E+02 -0.85693093115E+02 -0.40834564791E+03  0.42513973484E+03  0.41800000000E+01 0. -1.
        -11    1    1    2    0    0  0.20812743287E+01  0.33400854468E+02 -0.42676541490E+02  0.54233163061E+02  0.00000000000E+00 0.  1.
         11    1    1    2    0    0  0.50468444605E+02  0.77398337421E+02 -0.54391067660E+03  0.55170317260E+03  0.00000000000E+00 0. -1.
</event>
<event>
 7    1  0.2556591E-009  0.1184512E+03  0.7561462E-02  0.1245674E+00
          1   -1    0    0  501    0  0.00000000000E+00  0.00000000000E+00  0.26885384383E+03  0.26885384383E+03  0.00000000000E+00 0. -1.
         -1   -1    0    0    0  501 -0.00000000000E+00 -0.00000000000E+00 -0.73696652726E+02  0.73696652726E+02  0.00000000000E+00 0.  1.
         25    2    1    2    0    0 -0.85584453196E+02 -0.28565795098E+02  0.10098401125E+03  0.18435264875E+03  0.12508966901E+03 0.  0.
          5    1    3    3  502    0 -0.34132649486E+02 -0.61237302931E+02  0.10129444956E+03  0.12326022450E+03  0.41800000000E+01 0.  1.
         -5    1    3    3    0  502 -0.51451803710E+02  0.32671507833E+02 -0.31043830951E+00  0.61092424252E+02  0.41800000000E+01 0.  1.
        -11    1    1    2    0    0  0.78697560969E+02  0.42932630407E+02  0.33879916717E+02  0.95835095935E+02  0.00000000000E+00 0.  1.
         11    1    1    2    0    0  0.68868922264E+01 -0.14366835309E+02  0.60293263141E+02  0.62362751876E+02  0.00000000000E+00 0. -1.
</event>
<event>
 7    1  0.2556591E-009  0.1915197E+03  0.7561462E-02  0.1157098E+00
         -1   -1    0    0    0  501 -0.00000000000E+00  0.00000000000E+00  0.56207212969E+02  0.56207212969E+02  0.00000000000E+00 0.  1.
          1   -1    0    0  501    0  0.00000000000E+00 -0.00000000000E+00 -0.80260478661E+03  0.80260478661E+03  0.00000000000E+00 0. -1.
         25    2    1    2    0    0 -0.19415356811E+02 -0.17742574135E+03 -0.31444749801E+03  0.38259774060E+03  0.12508777851E+03 0.  0.
          5    1    3    3  502    0 -0.29991303851E+02 -0.94056169085E+02 -0.62370547033E+02  0.11684861483E+03  0.41800000000E+01 0. -1.
         -5    1    3    3    0  502  0.10575947040E+02 -0.83369572262E+02 -0.25207695098E+03  0.26574912577E+03  0.41800000000E+01 0. -1.
        -11    1    1    2    0    0 -0.33404556528E+02  0.35955819161E+02 -0.11950671964E+03  0.12919187810E+03  0.00000000000E+00 0.  1.
         11    1    1    2    0    0  0.52819913339E+02  0.14146992219E+03 -0.31244335600E+03  0.34702238089E+03  0.00000000000E+00 0. -1.
</event>
<event>
 7    1  0.2556591E-009  0.1905251E+03  0.7561462E-02  0.1157989E+00
          1   -1    0    0  501    0  0.00000000000E+00  0.00000000000E+00  0.41992602148E+03  0.41992602148E+03  0.00000000000E+00 0. -1.
         -1   -1    0    0    0  501 -0.00000000000E+00 -0.00000000000E+00 -0.13784282771E+03  0.13784282771E+03  0.00000000000E+00 0.  1.
         25    2    1    2    0    0  0.17002379354E+03 -0.30208871455E+02 -0.27501432929E+01  0.21324791180E+03  0.12508573985E+03 0.  0.
          5    1    3    3  502    0  0.84646168632E+02 -0.66206900079E+02  0.35018753533E+02  0.11310222359E+03  0.41800000000E+01 0. -1.
         -5    1    3    3    0  502  0.85377624908E+02  0.35998028623E+02 -0.37768896826E+02  0.10014568821E+03  0.41800000000E+01 0. -1.
        -11    1    1    2    0    0 -0.85515995667E+02  0.42267300411E+02  0.87206187437E+02  0.12924561627E+03  0.00000000000E+00 0.  1.
         11    1    1    2    0    0 -0.84507797873E+02 -0.12058428956E+02  0.19762714963E+03  0.21527532111E+03  0.00000000000E+00 0. -1.
</event>
<event>
 7    1  0.2556591E-009  0.1429102E+03  0.7561462E-02  0.1209466E+00
         -2   -1    0    0    0  501 -0.00000000000E+00  0.00000000000E+00  0.69643519691E+02  0.69643519691E+02  0.00000000000E+00 0.  1.
          2   -1    0    0  501    0  0.00000000000E+00 -0.00000000000E+00 -0.37890199945E+03  0.37890199945E+03  0.00000000000E+00 0. -1.
         25    2    1    2    0    0 -0.16782729722E+02  0.94233424666E+02 -0.26640474628E+03  0.30948534242E+03  0.12509232586E+03 0.  0.
          5    1    3    3  502    0 -0.18545023202E+02 -0.26723714855E+02 -0.87834766169E+02  0.93757630992E+02  0.41800000000E+01 0.  1.
         -5    1    3    3    0  502  0.17622934803E+01  0.12095713952E+03 -0.17856998011E+03  0.21572771143E+03  0.41800000000E+01 0.  1.
        -11    1    1    2    0    0 -0.32004422626E+02 -0.81343564381E+01 -0.14894064910E+02  0.36225460547E+02  0.00000000000E+00 0. -1.
         11    1    1    2    0    0  0.48787152348E+02 -0.86099068228E+02 -0.27959668563E+02  0.10283471617E+03  0.00000000000E+00 0.  1.
</event>
<event>
 7    1  0.2556591E-009  0.1997347E+03  0.7561462E-02  0.1149963E+00
         -3   -1    0    0    0  501 -0.00000000000E+00  0.00000000000E+00  0.26736670593E+02  0.26736670593E+02  0.00000000000E+00 0.  1.
          3   -1    0    0  501    0  0.00000000000E+00 -0.00000000000E+00 -0.19447698102E+04  0.19447698102E+04  0.00000000000E+00 0. -1.
         25    2    1    2    0    0 -0.13138771383E+03  0.13636197947E+03 -0.12730753198E+04  0.12931446651E+04  0.12508011133E+03 0.  0.
          5    1    3    3  502    0 -0.72550730987E+01  0.51776233491E+02 -0.12918355137E+03  0.13942480692E+03  0.41800000000E+01 0. -1.
         -5    1    3    3    0  502 -0.12413264073E+03  0.84585745978E+02 -0.11438917685E+04  0.11537198582E+04  0.41800000000E+01 0. -1.
        -11    1    1    2    0    0  0.11883317801E+03 -0.14004385211E+03 -0.63722063563E+03  0.66316192833E+03  0.00000000000E+00 0.  1.
         11    1    1    2    0    0  0.12554535823E+02  0.36818726417E+01 -0.77371841425E+01  0.15199887313E+02  0.00000000000E+00 0. -1.
</event>
<event>
 7    1  0.2556591E-009  0.9809509E+02  0.7561462E-02  0.1284353E+00
         -2   -1    0    0    0  501 -0.00000000000E+00  0.00000000000E+00  0.31064034986E+03  0.31064034986E+03  0.00000000000E+00 0.  1.
          2   -1    0    0  501    0  0.00000000000E+00 -0.00000000000E+00 -0.42015167520E+02  0.42015167520E+02  0.00000000000E+00 0. -1.
         25    2    1    2    0    0  0.66653141922E+01 -0.25565809491E+02  0.11554595339E+03  0.17232712405E+03  0.12509090019E+03 0.  0.
          5    1    3    3  502    0  0.42243293843E+02 -0.58953129566E+02  0.41829714930E+02  0.83828186259E+02  0.41800000000E+01 0.  1.
         -5    1    3    3    0  502 -0.35577979650E+02  0.33387320075E+02  0.73716238460E+02  0.88498937793E+02  0.41800000000E+01 0.  1.
        -11    1    1    2    0    0 -0.18091063399E+01  0.49813242406E+02  0.38152738124E+02  0.62771517515E+02  0.00000000000E+00 0. -1.
         11    1    1    2    0    0 -0.48562078523E+01 -0.24247432915E+02  0.11492649082E+03  0.11755687581E+03  0.00000000000E+00 0.  1.
</event>
<event>
 7    1  0.2556591E-009  0.9366135E+02  0.7561462E-02  0.1294220E+00
         -2   -1    0    0    0  501 -0.00000000000E+00  0.00000000000E+00  0.32469869195E+02  0.32469869195E+02  0.00000000000E+00 0.  1.
          2   -1    0    0  501    0  0.00000000000E+00 -0.00000000000E+00 -0.42481562142E+03  0.42481562142E+03  0.00000000000E+00 0. -1.
         25    2    1    2    0    0 -0.11116508366E+02  0.22839811753E+02 -0.29074953837E+03  0.31753333961E+03  0.12508754510E+03 0.  0.
          5    1    3    3  502    0 -0.65468901824E+02  0.25944498527E+02 -0.19416249382E+03  0.20658131696E+03  0.41800000000E+01 0.  1.
         -5    1    3    3    0  502  0.54352393459E+02 -0.31046867737E+01 -0.96587044551E+02  0.11095202265E+03  0.41800000000E+01 0.  1.
        -11    1    1    2    0    0  0.27825817413E+01 -0.41576097714E+02 -0.10997177259E+03  0.11760146865E+03  0.00000000000E+00 0. -1.
         11    1    1    2    0    0  0.83339266243E+01  0.18736285961E+02  0.83755587394E+01  0.22150682355E+02  0.00000000000E+00 0.  1.
</event>
<event>
 7    1  0.2556591E-009  0.9868953E+02  0.7561462E-02  0.1283076E+00
          2   -1    0    0  501    0  0.00000000000E+00  0.00000000000E+00  0.46357862930E+02  0.46357862930E+02  0.00000000000E+00 0. -1.
         -2   -1    0    0    0  501 -0.00000000000E+00 -0.00000000000E+00 -0.39720256099E+03  0.39720256099E+03  0.00000000000E+00 0.  1.
         25    2    1    2    0    0 -0.10641912805E+02  0.78886639791E+02 -0.22112968665E+03  0.26623703612E+03  0.12508984307E+03 0.  0.
          5    1    3    3  502    0 -0.20429593278E+02  0.95649011730E+02 -0.22556452680E+03  0.24589211023E+03  0.41800000000E+01 0.  1.
         -5    1    3    3    0  502  0.97876804734E+01 -0.16762371939E+02  0.44348401482E+01  0.20344925884E+02  0.41800000000E+01 0.  1.
        -11    1    1    2    0    0  0.45948524720E+01 -0.26784282522E+02  0.93153132416E+01  0.28727783072E+02  0.00000000000E+00 0. -1.
         11    1    1    2    0    0  0.60470603326E+01 -0.52102357269E+02 -0.13903032466E+03  0.14859560473E+03  0.00000000000E+00 0.  1.
</event>
<event>
 7    1  0.2556591E-009  0.8998439E+02  0.7561462E-02  0.1302890E+00
          2   -1    0    0  501    0  0.00000000000E+00  0.00000000000E+00  0.31609896191E+03  0.31609896191E+03  0.00000000000E+00 0. -1.
         -2   -1    0    0    0  501 -0.00000000000E+00 -0.00000000000E+00 -0.39930270627E+02  0.39930270627E+02  0.00000000000E+00 0.  1.
         25    2    1    2    0    0  0.39006793640E+01  0.28533079004E+02  0.13881638750E+03  0.18906831161E+03  0.12508990815E+03 0.  0.
          5    1    3    3  502    0 -0.39445241568E+02 -0.23053857818E+02  0.10275229782E+03  0.11252961632E+03  0.41800000000E+01 0.  1.
         -5    1    3    3    0  502  0.43345920932E+02  0.51586936822E+02  0.36064089678E+02  0.76538695288E+02  0.41800000000E+01 0.  1.
        -11    1    1    2    0    0 -0.21413397927E+02  0.10462448225E+02  0.11738509586E+03  0.11978003658E+03  0.00000000000E+00 0. -1.
         11    1    1    2    0    0  0.17512718563E+02 -0.38995527229E+02  0.19967207928E+02  0.47180884347E+02  0.00000000000E+00 0.  1.
</event>
<event>
 7    1  0.2556591E-009  0.1730201E+03  0.7561462E-02  0.1174735E+00
          1   -1    0    0  501    0  0.00000000000E+00  0.00000000000E+00  0.49973717576E+03  0.49973717576E+03  0.00000000000E+00 0. -1.
         -1   -1    0    0    0  501 -0.00000000000E+00 -0.00000000000E+00 -0.10513765090E+03  0.10513765090E+03  0.00000000000E+00 0.  1.
         25    2    1    2    0    0 -0.62162102170E+02  0.13846831453E+03  0.27771429005E+02  0.19863662109E+03  0.12509058275E+03 0.  0.
          5    1    3    3  502    0 -0.26374727670E+02  0.15291913013E+03  0.35046586638E+02  0.15914025969E+03  0.41800000000E+01 0. -1.
         -5    1    3    3    0  502 -0.35787374499E+02 -0.14450815600E+02 -0.72751576334E+01  0.39496361398E+02  0.41800000000E+01 0. -1.
        -11    1    1    2    0    0  0.33262803864E+02 -0.83561696881E+02  0.11033749653E+03  0.14234933947E+03  0.00000000000E+00 0.  1.
         11    1    1    2    0    0  0.28899298306E+02 -0.54906617654E+02  0.25649059933E+03  0.26388886610E+03  0.00000000000E+00 0. -1.
</event>
<event>
 7    1  0.2556591E-009  0.1722988E+03  0.7561462E-02  0.1175472E+00
          1   -1    0    0  501    0  0.00000000000E+00  0.00000000000E+00  0.43955959007E+03  0.43955959007E+03  0.00000000000E+00 0. -1.
         -1   -1    0    0    0  501 -0.00000000000E+00 -0.00000000000E+00 -0.81146478427E+02  0.81146478427E+02  0.00000000000E+00 0.  1.
         25    2    1    2    0    0 -0.93425608939E+02  0.11087240090E+03  0.26061969874E+03  0.32340442941E+03  0.12508702531E+03 0.  0.
          5    1    3    3  502    0 -0.19318090411E+02  0.10516128624E+03  0.10038145179E+03  0.14671739162E+03  0.41800000000E+01 0.  1.
         -5    1    3    3    0  502 -0.74107518528E+02  0.57111146522E+01  0.16023824696E+03  0.17668703778E+03  0.41800000000E+01 0.  1.
        -11    1    1    2    0    0 -0.13131172263E+02 -0.11996920424E+02  0.34379061746E+02  0.38707540237E+02  0.00000000000E+00 0. -1.
         11    1    1    2    0    0  0.10655678120E+03 -0.98875480472E+02  0.63414351153E+02  0.15859409885E+03  0.00000000000E+00 0.  1.
</event>
<event>
 7    1  0.2556591E-009  0.1036661E+03  0.7561462E-02  0.1272770E+00
         -1   -1    0    0    0  501 -0.00000000000E+00  0.00000000000E+00  0.29783897318E+02  0.29783897318E+02  0.00000000000E+00 0.  1.
          1   -1    0    0  501    0  0.00000000000E+00 -0.00000000000E+00 -0.44778331809E+03  0.44778331809E+03  0.00000000000E+00 0. -1.
         25    2    1    2    0    0 -0.30766120837E+02 -0.24214661158E+02 -0.22267604162E+03  0.25839104198E+03  0.12509359321E+03 0.  0.
          5    1    3    3  502    0  0.46004912639E+02  0.83845131678E+01 -0.68395376290E+02  0.82958736405E+02  0.41800000000E+01 0.  1.
         -5    1    3    3    0  502 -0.76771033476E+02 -0.32599174326E+02 -0.15428066533E+03  0.17543230558E+03  0.41800000000E+01 0.  1.
        -11    1    1    2    0    0  0.16389220851E+02 -0.22590383658E+02 -0.14960752093E+03  0.15218850913E+03  0.00000000000E+00 0. -1.
         11    1    1    2    0    0  0.14376899987E+02  0.46805044816E+02 -0.45715858224E+02  0.66987664287E+02  0.00000000000E+00 0.  1.
</event>
<event>
 7    1  0.2556591E-009  0.1430172E+03  0.7561462E-02  0.1209326E+00
          2   -1    0    0  501    0  0.00000000000E+00  0.00000000000E+00  0.38439104496E+03  0.38439104496E+03  0.00000000000E+00 0. -1.
         -2   -1    0    0    0  501 -0.00000000000E+00 -0.00000000000E+00 -0.76145995752E+02  0.76145995752E+02  0.00000000000E+00 0.  1.
         25    2    1    2    0    0  0.56716468966E+02  0.94445321838E+02  0.65704407420E+02  0.17916662306E+03  0.12508770121E+03 0.  0.
          5    1    3    3  502    0  0.46936818274E+02 -0.76708269785E+01 -0.13366558653E+02  0.49578662613E+02  0.41800000000E+01 0.  1.
         -5    1    3    3    0  502  0.97796506916E+01  0.10211614882E+03  0.79070966073E+02  0.12958796045E+03  0.41800000000E+01 0.  1.
        -11    1    1    2    0    0  0.20242847509E+02 -0.22597173270E+02  0.23621603366E+02  0.38449775821E+02  0.00000000000E+00 0.  1.
         11    1    1    2    0    0 -0.76959316475E+02 -0.71848148567E+02  0.21891903842E+03  0.24292064183E+03  0.00000000000E+00 0. -1.
</event>
<event>
 7    1  0.2556591E-009  0.1238059E+03  0.7561462E-02  0.1236947E+00
         -2   -1    0    0    0  501 -0.00000000000E+00  0.00000000000E+00  0.49675282956E+02  0.49675282956E+02  0.00000000000E+00 0. -1.
          2   -1    0    0  501    0  0.00000000000E+00 -0.00000000000E+00 -0.46089204199E+03  0.46089204199E+03  0.00000000000E+00 0.  1.
         25    2    1    2    0    0  0.27141294877E+01  0.10451750402E+03 -0.23565801291E+03  0.28654921621E+03  0.12507789221E+03 0.  0.
          5    1    3    3  502    0 -0.12523687372E+02  0.46511812094E+02 -0.21884636827E+03  0.22412361927E+03  0.41800000000E+01 0. -1.
         -5    1    3    3    0  502  0.15237816860E+02  0.58005691922E+02 -0.16811644635E+02  0.62425596940E+02  0.41800000000E+01 0. -1.
        -11    1    1    2    0    0 -0.45709131197E+02 -0.71801199108E+02 -0.10616555252E+03  0.13607300029E+03  0.00000000000E+00 0. -1.
         11    1    1    2    0    0  0.42995001709E+02 -0.32716304908E+02 -0.69393193608E+02  0.87945108437E+02  0.00000000000E+00 0.  1.
</event>
<event>
 7    1  0.2556591E-009  0.1236797E+03  0.7561462E-02  0.1237147E+00
         -1   -1    0    0    0  501 -0.00000000000E+00  0.00000000000E+00  0.12361207156E+03  0.12361207156E+03  0.00000000000E+00 0.  1.
          1   -1    0    0  501    0  0.00000000000E+00 -0.00000000000E+00 -0.32594562903E+03  0.32594562903E+03  0.00000000000E+00 0. -1.
         25    2    1    2    0    0  0.67960047014E+02 -0.31847145946E+02  0.62613352607E+02  0.15874714465E+03  0.12508962913E+03 0.  0.
          5    1    3    3  502    0  0.54581198334E+02 -0.72620752323E+02  0.11169718925E+02  0.91624865077E+02  0.41800000000E+01 0. -1.
         -5    1    3    3    0  502  0.13378848681E+02  0.40773606377E+02  0.51443633683E+02  0.67122279576E+02  0.41800000000E+01 0. -1.
        -11    1    1    2    0    0  0.20316751826E+02  0.82354697631E+01 -0.21195430348E+02  0.30493271957E+02  0.00000000000E+00 0.  1.
         11    1    1    2    0    0 -0.88276798841E+02  0.23611676183E+02 -0.24375147973E+03  0.26031728398E+03  0.00000000000E+00 0. -1.
</event>
<event>
 7    1  0.2556591E-009  0.9769765E+02  0.7561462E-02  0.1285213E+00
          1   -1    0    0  501    0  0.00000000000E+00  0.00000000000E+00  0.17938827314E+03  0.17938827314E+03  0.00000000000E+00 0. -1.
         -1   -1    0    0    0  501 -0.00000000000E+00 -0.00000000000E+00 -0.97298584065E+02  0.97298584065E+02  0.00000000000E+00 0.  1.
         25    2    1    2    0    0  0.65325641331E+02 -0.36651393824E+02  0.31024942068E+02  0.14907400125E+03  0.12509894777E+03 0.  0.
          5    1    3    3  502    0  0.66433714278E+02 -0.30897770199E+02 -0.35946152914E+02  0.81717249742E+02  0.41800000000E+01 0. -1.
         -5    1    3    3    0  502 -0.11080729473E+01 -0.57536236249E+01  0.66971094982E+02  0.67356751507E+02  0.41800000000E+01 0. -1.
        -11    1    1    2    0    0 -0.68764735950E+02 -0.87149102627E+01  0.42531009828E+02  0.81322969499E+02  0.00000000000E+00 0. -1.
         11    1    1    2    0    0  0.34390946187E+01  0.45366304086E+02  0.85337371823E+01  0.46289886461E+02  0.00000000000E+00 0.  1.
</event>
<event>
 7    1  0.2556591E-009  0.1867883E+03  0.7561462E-02  0.1161390E+00
         -1   -1    0    0    0  501 -0.00000000000E+00  0.00000000000E+00  0.13070739743E+03  0.13070739743E+03  0.00000000000E+00 0.  1.
          1   -1    0    0  501    0  0.00000000000E+00 -0.00000000000E+00 -0.32752490811E+03  0.32752490811E+03  0.00000000000E+00 0. -1.
         25    2    1    2    0    0  0.17468305260E+03 -0.50752778331E+02 -0.75218841555E+02  0.23322864627E+03  0.12509082277E+03 0.  0.
          5    1    3    3  502    0  0.15764278599E+03 -0.53731840076E+02 -0.10614935760E+03  0.19754370942E+03  0.41800000000E+01 0.  1.
         -5    1    3    3    0  502  0.17040266610E+02  0.29790617449E+01  0.30930516047E+02  0.35684936849E+02  0.41800000000E+01 0.  1.
        -11    1    1    2    0    0 -0.10523677434E+03  0.37148950851E+01 -0.71916548762E+02  0.12751693654E+03  0.00000000000E+00 0. -1.
         11    1    1    2    0    0 -0.69446278259E+02  0.47037883246E+02 -0.49682120363E+02  0.97486722727E+02  0.00000000000E+00 0.  1.
</event>
<event>
 7    1  0.2556591E-009  0.6637085E+02  0.7561462E-02  0.1372888E+00
         -4   -1    0    0    0  501 -0.00000000000E+00  0.00000000000E+00  0.64310968180E+02  0.64310968180E+02  0.00000000000E+00 0.  1.
          4   -1    0    0  501    0  0.00000000000E+00 -0.00000000000E+00 -0.25456077070E+03  0.25456077070E+03  0.00000000000E+00 0. -1.
         25    2    1    2    0    0 -0.87813149676E+01 -0.10270236159E+02 -0.24725612475E+02  0.12822020858E+03  0.12508587743E+03 0.  0.
          5    1    3    3  502    0 -0.20928334956E+02  0.22705003163E+02 -0.66519320901E+02  0.73456142193E+02  0.41800000000E+01 0. -1.
         -5    1    3    3    0  502  0.12147019989E+02 -0.32975239322E+02  0.41793708427E+02  0.54764066385E+02  0.41800000000E+01 0. -1.
        -11    1    1    2    0    0  0.16549164284E+02  0.35835710788E+02 -0.23083822329E+02  0.45726752121E+02  0.00000000000E+00 0.  1.
         11    1    1    2    0    0 -0.77678493167E+01 -0.25565474629E+02 -0.14244036772E+03  0.14492477818E+03  0.00000000000E+00 0. -1.
</event>
<event>
 7    1  0.2556591E-009  0.1139046E+03  0.7561462E-02  0.1253505E+00
          1   -1    0    0  501    0  0.00000000000E+00  0.00000000000E+00  0.82897061596E+03  0.82897061596E+03  0.00000000000E+00 0. -1.
         -1   -1    0    0    0  501 -0.00000000000E+00 -0.00000000000E+00 -0.18081645774E+02  0.18081645774E+02  0.00000000000E+00 0.  1.
         25    2    1    2    0    0  0.40354507267E+02 -0.31894828919E+02  0.36396822052E+03  0.38828634029E+03  0.12509056775E+03 0.  0.
          5    1    3    3  502    0 -0.39479142348E+02 -0.35141863861E+01  0.55248640824E+02  0.68123688240E+02  0.41800000000E+01 0.  1.
         -5    1    3    3    0  502  0.79833649615E+02 -0.28380642533E+02  0.30871957969E+03  0.32016265205E+03  0.41800000000E+01 0.  1.
        -11    1    1    2    0    0 -0.57636595630E+02 -0.93625312334E+01  0.23155529005E+03  0.23880428492E+03  0.00000000000E+00 0.  1.
         11    1    1    2    0    0  0.17282088363E+02  0.41257360153E+02  0.21536545962E+03  0.21996163652E+03  0.00000000000E+00 0. -1.
</event>
<event>
 7    1  0.2556591E-009  0.6889574E+02  0.7561462E-02  0.1363889E+00
         -2   -1    0    0    0  501 -0.00000000000E+00  0.00000000000E+00  0.15227348041E+02  0.15227348041E+02  0.00000000000E+00 0. -1.
          2   -1    0    0  501    0  0.00000000000E+00 -0.00000000000E+00 -0.86201362209E+03  0.86201362209E+03  0.00000000000E+00 0.  1.
         25    2    1    2    0    0  0.32892766342E+02 -0.14403925270E+02 -0.43839155880E+03  0.45730081011E+03  0.12508982757E+03 0.  0.
          5    1    3    3  502    0  0.33643192866E+02 -0.13501007033E+02 -0.44656089796E+03  0.44804938299E+03  0.41800000000E+01 0. -1.
         -5    1    3    3    0  502 -0.75042652359E+00 -0.90291823714E+00  0.81693391613E+01  0.92514271139E+01  0.41800000000E+01 0. -1.
        -11    1    1    2    0    0  0.10962563908E+02  0.43150507285E+02 -0.21509455745E+03  0.21965384752E+03  0.00000000000E+00 0.  1.
         11    1    1    2    0    0 -0.43855330250E+02 -0.28746582015E+02 -0.19330015781E+03  0.20028631251E+03  0.00000000000E+00 0. -1.
</event>
<event>
 7    1  0.2556591E-009  0.2553460E+03  0.7561462E-02  0.1109972E+00
         -4   -1    0    0    0  501 -0.00000000000E+00  0.00000000000E+00  0.63834486698E+03  0.63834486698E+03  0.00000000000E+00 0.  1.
          4   -1    0    0  501    0  0.00000000000E+00 -0.00000000000E+00 -0.10375788085E+03  0.10375788085E+03  0.00000000000E+00 0. -1.
         25    2    1    2    0    0 -0.12648031342E+03 -0.19348932709E+03  0.23102753857E+03  0.34993819083E+03  0.12509046503E+03 0.  0.
          5    1    3    3  502    0 -0.10134140690E+03 -0.20942067492E+03  0.20749611342E+03  0.31176787731E+03  0.41800000000E+01 0. -1.
         -5    1    3    3    0  502 -0.25138906516E+02  0.15931347831E+02  0.23531425147E+02  0.38170313516E+02  0.41800000000E+01 0. -1.
        -11    1    1    2    0    0  0.90130819456E+02  0.19137500780E+03  0.25146977150E+03  0.32861071833E+03  0.00000000000E+00 0.  1.
         11    1    1    2    0    0  0.36349493963E+02  0.21143192929E+01  0.52089676063E+02  0.63553838671E+02  0.00000000000E+00 0. -1.
</event>
<event>
 7    1  0.2556591E-009  0.9606435E+02  0.7561462E-02  0.1288797E+00
          1   -1    0    0  501    0  0.00000000000E+00  0.00000000000E+00  0.29127486828E+03  0.29127486828E+03  0.00000000000E+00 0. -1.
         -1   -1    0    0    0  501 -0.00000000000E+00 -0.00000000000E+00 -0.60238923724E+02  0.60238923724E+02  0.00000000000E+00 0.  1.
         25    2    1    2    0    0 -0.57612492043E+02 -0.98788840722E+01  0.11981437527E+03  0.18281215503E+03  0.12509199781E+03 0.  0.
          5    1    3    3  502    0  0.76709014940E+01 -0.43781904720E+02  0.30560211692E+01  0.44749408667E+02  0.41800000000E+01 0.  1.
         -5    1    3    3    0  502 -0.65283393537E+02  0.33903020648E+02  0.11675835410E+03  0.13806274636E+03  0.41800000000E+01 0.  1.
        -11    1    1    2    0    0  0.40064436882E+02  0.27766274909E+02 -0.57433704094E+01  0.49082699892E+02  0.00000000000E+00 0.  1.
         11    1    1    2    0    0  0.17548055160E+02 -0.17887390837E+02  0.11696493970E+03  0.11961893708E+03  0.00000000000E+00 0. -1.
</event>
<event>
 7    1  0.2556591E-009  0.1801336E+03  0.7561462E-02  0.1167674E+00
          3   -1    0    0  501    0  0.00000000000E+00  0.00000000000E+00  0.44800762406E+03  0.44800762406E+03  0.00000000000E+00 0. -1.
         -3   -1    0    0    0  501 -0.00000000000E+00 -0.00000000000E+00 -0.74100778284E+02  0.74100778284E+02  0.00000000000E+00 0.  1.
         25    2    1    2    0    0  0.12071514876E+03  0.80172535259E+02  0.18034487833E+03  0.26300804453E+03  0.12509665783E+03 0.  0.
          5    1    3    3  502    0 -0.25629291453E+02  0.21416510933E+02  0.33338642741E+02  0.47375785173E+02  0.41800000000E+01 0.  1.
         -5    1    3    3    0  502  0.14634444021E+03  0.58756024326E+02  0.14700623559E+03  0.21563225936E+03  0.41800000000E+01 0.  1.
        -11    1    1    2    0    0 -0.13463533039E+03 -0.73915299333E+02  0.18821242075E+03  0.24292809427E+03  0.00000000000E+00 0. -1.
         11    1    1    2    0    0  0.13920181627E+02 -0.62572359259E+01  0.53495467008E+01  0.16172263535E+02  0.00000000000E+00 0.  1.
</event>
<event>
 7    1  0.2556591E-009  0.8761138E+02  0.7561462E-02  0.1308741E+00
         -1   -1    0    0    0  501 -0.00000000000E+00  0.00000000000E+00  0.38744676073E+02  0.38744676073E+02  0.00000000000E+00 0.  1.
          1   -1    0    0  501    0  0.00000000000E+00 -0.00000000000E+00 -0.46086329914E+03  0.46086329914E+03  0.00000000000E+00 0. -1.
         25    2    1    2    0    0  0.78238948672E+01  0.19013373039E+02 -0.37924791577E+03  0.39987442339E+03  0.12509137131E+03 0.  0.
          5    1    3    3  502    0 -0.11315641937E+02 -0.33804102365E+02 -0.30276133944E+03  0.30488139029E+03  0.41800000000E+01 0.  1.
         -5    1    3    3    0  502  0.19139536804E+02  0.52817475404E+02 -0.76486576332E+02  0.94993033092E+02  0.41800000000E+01 0.  1.
        -11    1    1    2    0    0  0.12073564727E+02 -0.47074132077E+02 -0.54471848475E+01  0.48902113438E+02  0.00000000000E+00 0. -1.
         11    1    1    2    0    0 -0.19897459594E+02  0.28060759038E+02 -0.37423522447E+02  0.50831438386E+02  0.00000000000E+00 0.  1.
</event>
<event>
 7    1  0.2556591E-009  0.1219836E+03  0.7561462E-02  0.1239860E+00
         -1   -1    0    0    0  501 -0.00000000000E+00  0.00000000000E+00  0.14495315604E+02  0.14495315604E+02  0.00000000000E+00 0.  1.
          1   -1    0    0  501    0  0.00000000000E+00 -0.00000000000E+00 -0.10602145348E+04  0.10602145348E+04  0.00000000000E+00 0. -1.
         25    2    1    2    0    0 -0.14758036387E+02 -0.56251868976E+02 -0.56269183674E+03  0.57935421584E+03  0.12508849616E+03 0.  0.
          5    1    3    3  502    0 -0.49919366184E+02 -0.77921447539E+02 -0.32003578250E+03  0.33317273236E+03  0.41800000000E+01 0.  1.
         -5    1    3    3    0  502  0.35161329797E+02  0.21669578563E+02 -0.24265605424E+03  0.24618148348E+03  0.41800000000E+01 0.  1.
        -11    1    1    2    0    0  0.42534626014E+02  0.67555445008E+02 -0.35358060910E+03  0.36248059216E+03  0.00000000000E+00 0.  1.
         11    1    1    2    0    0 -0.27776589628E+02 -0.11303576031E+02 -0.12944677331E+03  0.13287504237E+03  0.00000000000E+00 0. -1.
</event>
<event>
 7    1  0.2556591E-009  0.2231225E+03  0.7561462E-02  0.1131576E+00
          2   -1    0    0  501    0  0.00000000000E+00  0.00000000000E+00  0.10452068958E+04  0.10452068958E+04  0.00000000000E+00 0. -1.
         -2   -1    0    0    0  501 -0.00000000000E+00 -0.00000000000E+00 -0.54336181766E+02  0.54336181766E+02  0.00000000000E+00 0.  1.
         25    2    1    2    0    0 -0.55505315820E+02  0.19544887056E+03  0.65041137870E+03  0.69279428437E+03  0.12509139790E+03 0.  0.
          5    1    3    3  502    0 -0.26188979079E+02  0.20525540419E+03  0.57858099401E+03  0.61448277649E+03  0.41800000000E+01 0.  1.
         -5    1    3    3    0  502 -0.29316336741E+02 -0.98065336306E+01  0.71830384685E+02  0.78311507876E+02  0.41800000000E+01 0.  1.
        -11    1    1    2    0    0  0.45924340017E+02 -0.80009803159E+02  0.81637635734E+02  0.12318813732E+03  0.00000000000E+00 0.  1.
         11    1    1    2    0    0  0.95809758030E+01 -0.11543906740E+03  0.25882169960E+03  0.28356065588E+03  0.00000000000E+00 0. -1.
</event>
<event>
 7    1  0.2556591E-009  0.8471970E+02  0.7561462E-02  0.1316167E+00
         -2   -1    0    0    0  501 -0.00000000000E+00  0.00000000000E+00  0.88866388583E+02  0.88866388583E+02  0.00000000000E+00 0.  1.
          2   -1    0    0  501    0  0.00000000000E+00 -0.00000000000E+00 -0.13868377357E+03  0.13868377357E+03  0.00000000000E+00 0. -1.
         25    2    1    2    0    0  0.13157188702E+02  0.16245297188E+02 -0.16445736092E+02  0.12788658956E+03  0.12508995266E+03 0.  0.
          5    1    3    3  502    0  0.36133217144E+02 -0.43791006313E+02 -0.26317176900E+02  0.62716248414E+02  0.41800000000E+01 0. -1.
         -5    1    3    3    0  502 -0.22976028442E+02  0.60036303501E+02  0.98714408078E+01  0.65170341142E+02  0.41800000000E+01 0. -1.
        -11    1    1    2    0    0  0.71843546376E+01 -0.24952972550E+02  0.25730155025E+02  0.36555528560E+02  0.00000000000E+00 0.  1.
         11    1    1    2    0    0 -0.20341543340E+02  0.87076753627E+01 -0.59101803915E+02  0.63108044033E+02  0.00000000000E+00 0. -1.
</event>
<event>
 7    1  0.2556591E-009  0.1104652E+03  0.7561462E-02  0.1259711E+00
         -2   -1    0    0    0  501 -0.00000000000E+00  0.00000000000E+00  0.16677801013E+03  0.16677801013E+03  0.00000000000E+00 0.  1.
          2   -1    0    0  501    0  0.00000000000E+00 -0.00000000000E+00 -0.12999364080E+03  0.12999364080E+03  0.00000000000E+00 0. -1.
         25    2    1    2    0    0  0.35711872837E+02  0.35382237453E+01 -0.67890972226E+02  0.14679174259E+03  0.12510305630E+03 0.  0.
          5    1    3    3  502    0  0.14995512637E+02  0.61351426816E+02 -0.13654910697E+02  0.64751771851E+02  0.41800000000E+01 0. -1.
         -5    1    3    3    0  502  0.20716360199E+02 -0.57813203071E+02 -0.54236061529E+02  0.82039970743E+02  0.41800000000E+01 0. -1.
        -11    1    1    2    0    0  0.22605498416E+02  0.22785550244E+02  0.64264945696E+01  0.32733617139E+02  0.00000000000E+00 0. -1.
         11    1    1    2    0    0 -0.58317371253E+02 -0.26323773989E+02  0.98248846980E+02  0.11724629120E+03  0.00000000000E+00 0.  1.
</event>
<event>
 7    1  0.2556591E-009  0.9385208E+02  0.7561462E-02  0.1293783E+00
          1   -1    0    0  501    0  0.00000000000E+00  0.00000000000E+00  0.21545359996E+04  0.21545359996E+04  0.00000000000E+00 0. -1.
         -1   -1    0    0    0  501 -0.00000000000E+00 -0.00000000000E+00 -0.15999744787E+02  0.15999744787E+02  0.00000000000E+00 0.  1.
         25    2    1    2    0    0  0.48530480117E+01  0.91444225343E+00  0.19875229806E+04  0.19914616814E+04  0.12509053348E+03 0.  0.
          5    1    3    3  502    0 -0.57615577868E+02 -0.14030726035E+02  0.11021390151E+04  0.11037410463E+04  0.41800000000E+01 0.  1.
         -5    1    3    3    0  502  0.62468625880E+02  0.14945168289E+02  0.88538396549E+03  0.88772063512E+03  0.41800000000E+01 0.  1.
        -11    1    1    2    0    0  0.17748374124E+02 -0.25130260793E+02  0.73366717531E+01  0.31628492597E+02  0.00000000000E+00 0.  1.
         11    1    1    2    0    0 -0.22601422136E+02  0.24215818540E+02  0.14367660247E+03  0.14744557046E+03  0.00000000000E+00 0. -1.
</event>
<event>
 7    1  0.2556591E-009  0.8979054E+02  0.7561462E-02  0.1303360E+00
          1   -1    0    0  501    0  0.00000000000E+00  0.00000000000E+00  0.64670092911E+03  0.64670092911E+03  0.00000000000E+00 0. -1.
         -1   -1    0    0    0  501 -0.00000000000E+00 -0.00000000000E+00 -0.25553983759E+02  0.25553983759E+02  0.00000000000E+00 0.  1.
         25    2    1    2    0    0  0.15064159390E+02 -0.22538106885E+02  0.53086453667E+03  0.54607737467E+03  0.12509375555E+03 0.  0.
          5    1    3    3  502    0 -0.18399847389E+02 -0.48771310727E+02  0.46258731633E+03  0.46553377188E+03  0.41800000000E+01 0. -1.
         -5    1    3    3    0  502  0.33464006779E+02  0.26233203842E+02  0.68277220340E+02  0.80543602792E+02  0.41800000000E+01 0. -1.
        -11    1    1    2    0    0  0.19625001940E+02 -0.21099599178E+02  0.48869909132E+02  0.56732722525E+02  0.00000000000E+00 0.  1.
         11    1    1    2    0    0 -0.34689161329E+02  0.43637706063E+02  0.41412499549E+02  0.69444815667E+02  0.00000000000E+00 0. -1.
</event>
<event>
 7    1  0.2854443E-009  0.8987543E+02  0.7561462E-02  0.1303154E+00
         -1   -1    0    0    0  501 -0.00000000000E+00  0.00000000000E+00  0.21449315436E+02  0.21449315436E+02  0.00000000000E+00 0.  1.
          1   -1    0    0  501    0  0.00000000000E+00 -0.00000000000E+00 -0.10027752332E+04  0.10027752332E+04  0.00000000000E+00 0. -1.
         25    2    1    2    0    0  0.21723216612E+02 -0.37961665489E+02 -0.83880639890E+03  0.84920973899E+03  0.12509204519E+03 0.  0.
          5    1    3    3  502    0 -0.17860637257E+02 -0.70798323364E+02 -0.62501169766E+03  0.62927617114E+03  0.41800000000E+01 0.  1.
         -5    1    3    3    0  502  0.39583853869E+02  0.32836657875E+02 -0.21379470124E+03  0.21993356784E+03  0.41800000000E+01 0.  1.
        -11    1    1    2    0    0  0.85697015086E+01  0.13894800836E+02  0.89946576057E+01  0.18638914659E+02  0.00000000000E+00 0.  1.
         11    1    1    2    0    0 -0.30292918121E+02  0.24066864653E+02 -0.15151417648E+03  0.15637589500E+03  0.00000000000E+00 0. -1.
</event>
<event>
 7    1  0.2556591E-009  0.1052482E+03  0.7561462E-02  0.1269631E+00
          2   -1    0    0  501    0  0.00000000000E+00  0.00000000000E+00  0.10756759372E+03  0.10756759372E+03  0.00000000000E+00 0. -1.
         -2   -1    0    0    0  501 -0.00000000000E+00 -0.00000000000E+00 -0.17388824872E+03  0.17388824872E+03  0.00000000000E+00 0.  1.
         25    2    1    2    0    0  0.70250480563E+02 -0.16349018355E+02 -0.74130279493E+02  0.16231154261E+03  0.12508924056E+03 0.  0.
          5    1    3    3  502    0  0.76187233099E+02 -0.25030886260E+02 -0.10340567822E+03  0.13092458303E+03  0.41800000000E+01 0.  1.
         -5    1    3    3    0  502 -0.59367525361E+01  0.86818679050E+01  0.29275398724E+02  0.31386959576E+02  0.41800000000E+01 0.  1.
        -11    1    1    2    0    0 -0.23567517392E+02 -0.39554847311E+02  0.21941343107E+01  0.46095857159E+02  0.00000000000E+00 0. -1.
         11    1    1    2    0    0 -0.46682963171E+02  0.55903865667E+02  0.56154901862E+01  0.73048442673E+02  0.00000000000E+00 0.  1.
</event>
<event>
 7    1  0.2556591E-009  0.7513113E+02  0.7561462E-02  0.1343465E+00
         -2   -1    0    0    0  501 -0.00000000000E+00  0.00000000000E+00  0.29215881250E+02  0.29215881250E+02  0.00000000000E+00 0.  1.
          2   -1    0    0  501    0  0.00000000000E+00 -0.00000000000E+00 -0.60844558123E+03  0.60844558123E+03  0.00000000000E+00 0. -1.
         25    2    1    2    0    0 -0.15922745212E+02  0.35920206317E+02 -0.15609821062E+03  0.20385967051E+03  0.12509324068E+03 0.  0.
          5    1    3    3  502    0  0.13750440442E+01  0.39347319388E+02 -0.17396326275E+03  0.17841185912E+03  0.41800000000E+01 0.  1.
         -5    1    3    3    0  502 -0.17297789256E+02 -0.34271130711E+01  0.17865052124E+02  0.25447811390E+02  0.41800000000E+01 0.  1.
        -11    1    1    2    0    0 -0.53782505001E+01  0.26267445804E+02 -0.78374734275E+02  0.82834191371E+02  0.00000000000E+00 0.  1.
         11    1    1    2    0    0  0.21300995712E+02 -0.62187652121E+02 -0.34475675509E+03  0.35096760060E+03  0.00000000000E+00 0. -1.
</event>
<event>
 7    1  0.2556591E-009  0.6381484E+02  0.7561462E-02  0.1382486E+00
          2   -1    0    0  501    0  0.00000000000E+00  0.00000000000E+00  0.23851152419E+02  0.23851152419E+02  0.00000000000E+00 0. -1.
         -2   -1    0    0    0  501 -0.00000000000E+00 -0.00000000000E+00 -0.51923277048E+03  0.51923277048E+03  0.00000000000E+00 0.  1.
         25    2    1    2    0    0 -0.97731030149E+01 -0.22168194724E+02 -0.28716709410E+03  0.31416413448E+03  0.12508885265E+03 0.  0.
          5    1    3    3  502    0 -0.16690684219E+02 -0.62087227215E+01  0.69023811069E+01  0.19551021520E+02  0.41800000000E+01 0.  1.
         -5    1    3    3    0  502  0.69175812038E+01 -0.15959472003E+02 -0.29406947521E+03  0.29461311296E+03  0.41800000000E+01 0.  1.
        -11    1    1    2    0    0 -0.39112841519E+02  0.40876615768E+01 -0.59371912118E+02  0.71214796899E+02  0.00000000000E+00 0. -1.
         11    1    1    2    0    0  0.48885944534E+02  0.18080533147E+02 -0.14884261184E+03  0.15770499152E+03  0.00000000000E+00 0.  1.
</event>
<event>
 7    1  0.2556591E-009  0.1014166E+03  0.7561462E-02  0.1277345E+00
          2   -1    0    0  501    0  0.00000000000E+00  0.00000000000E+00  0.14462519666E+03  0.14462519666E+03  0.00000000000E+00 0. -1.
         -2   -1    0    0    0  501 -0.00000000000E+00 -0.00000000000E+00 -0.10639417512E+03  0.10639417512E+03  0.00000000000E+00 0.  1.
         25    2    1    2    0    0 -0.69866792548E+02  0.15156018995E+02  0.37110409539E+02  0.14878026259E+03  0.12508920988E+03 0.  0.
          5    1    3    3  502    0 -0.83076940341E+02 -0.26586918524E+02  0.52840291495E+02  0.10206963828E+03  0.41800000000E+01 0. -1.
         -5    1    3    3    0  502  0.13210147793E+02  0.41742937520E+02 -0.15729881956E+02  0.46710624314E+02  0.41800000000E+01 0. -1.
        -11    1    1    2    0    0  0.20179235462E+02 -0.33975021472E+01 -0.34409011539E+02  0.40034043510E+02  0.00000000000E+00 0.  1.
         11    1    1    2    0    0  0.49687557085E+02 -0.11758516848E+02  0.35529623535E+02  0.62205065679E+02  0.00000000000E+00 0. -1.
</event>
<event>
 7    1  0.2556591E-009  0.7027896E+02  0.7561462E-02  0.1359147E+00
         -1   -1    0    0    0  501 -0.00000000000E+00  0.00000000000E+00  0.44204648352E+02  0.44204648352E+02  0.00000000000E+00 0.  1.
          1   -1    0    0  501    0  0.00000000000E+00 -0.00000000000E+00 -0.26329982523E+03  0.26329982523E+03  0.00000000000E+00 0. -1.
         25    2    1    2    0    0  0.44990995174E+01 -0.13288486126E+02 -0.13524096323E+03  0.18475363575E+03  0.12508781727E+03 0.  0.
          5    1    3    3  502    0  0.39836754317E+02 -0.16416535720E+02 -0.14195335791E+03  0.14840720287E+03  0.41800000000E+01 0.  1.
         -5    1    3    3    0  502 -0.35337654800E+02  0.31280495941E+01  0.67123946882E+01  0.36346432885E+02  0.41800000000E+01 0.  1.
        -11    1    1    2    0    0  0.27552670011E+02  0.22339979840E+01 -0.84431345079E+02  0.88841389023E+02  0.00000000000E+00 0.  1.
         11    1    1    2    0    0 -0.32051769528E+02  0.11054488142E+02  0.57713142372E+00  0.33909448811E+02  0.00000000000E+00 0. -1.
</event>
<event>
 7    1  0.2556591E-009  0.1816854E+03  0.7561462E-02  0.1166182E+00
          2   -1    0    0  501    0  0.00000000000E+00  0.00000000000E+00  0.17836076110E+03  0.17836076110E+03  0.00000000000E+00 0. -1.
         -2   -1    0    0    0  501 -0.00000000000E+00 -0.00000000000E+00 -0.23062742044E+03  0.23062742044E+03  0.00000000000E+00 0.  1.
         25    2    1    2    0    0  0.14946610706E+03 -0.50285344763E+02  0.39797195257E+02  0.20518302624E+03  0.12509006534E+03 0.  0.
          5    1    3    3  502    0  0.17180987973E+03 -0.43021530505E+02  0.38406013117E+02  0.18127873870E+03  0.41800000000E+01 0. -1.
         -5    1    3    3    0  502 -0.22343772674E+02 -0.72638142579E+01  0.13911821399E+01  0.23904287536E+02  0.41800000000E+01 0. -1.
        -11    1    1    2    0    0 -0.45537615553E+02 -0.28357477440E+01  0.12276740447E+02  0.47248642854E+02  0.00000000000E+00 0. -1.
         11    1    1    2    0    0 -0.10392849151E+03  0.53121092507E+02 -0.10434059505E+03  0.15655651245E+03  0.00000000000E+00 0.  1.
</event>
<event>
 7    1  0.2556591E-009  0.1064620E+03  0.7561462E-02  0.1267266E+00
          2   -1    0    0  501    0  0.00000000000E+00  0.00000000000E+00  0.31110018750E+03  0.31110018750E+03  0.00000000000E+00 0. -1.
         -2   -1    0    0    0  501 -0.00000000000E+00 -0.00000000000E+00 -0.59923070716E+02  0.59923070716E+02  0.00000000000E+00 0.  1.
         25    2    1    2    0    0 -0.35519147202E+02  0.14395115925E+02  0.38147846403E+02  0.13628726272E+03  0.12510048207E+03 0.  0.
          5    1    3    3  502    0  0.32942561248E+02 -0.30984307273E+02  0.28165236470E+02  0.53441487481E+02  0.41800000000E+01 0. -1.
         -5    1    3    3    0  502 -0.68461708450E+02  0.45379423198E+02  0.99826099328E+01  0.82845775238E+02  0.41800000000E+01 0. -1.
        -11    1    1    2    0    0 -0.10583057299E+01 -0.40381919612E+02  0.43475834196E+02  0.59346167540E+02  0.00000000000E+00 0.  1.
         11    1    1    2    0    0  0.36577452932E+02  0.25986803687E+02  0.16955343619E+03  0.17538982796E+03  0.00000000000E+00 0. -1.
</event>
<event>
 7    1  0.2556591E-009  0.9921137E+02  0.7561462E-02  0.1281963E+00
         -2   -1    0    0    0  501 -0.00000000000E+00  0.00000000000E+00  0.56349456410E+02  0.56349456410E+02  0.00000000000E+00 0.  1.
          2   -1    0    0  501    0  0.00000000000E+00 -0.00000000000E+00 -0.39439883466E+03  0.39439883466E+03  0.00000000000E+00 0. -1.
         25    2    1    2    0    0  0.53043702390E+02 -0.28968285377E+01 -0.31514719206E+03  0.34319756320E+03  0.12507912993E+03 0.  0.
          5    1    3    3  502    0  0.35529200900E+02 -0.44564085072E+02 -0.55671134052E+02  0.79781134120E+02  0.41800000000E+01 0. -1.
         -5    1    3    3    0  502  0.17514501490E+02  0.41667256534E+02 -0.25947605801E+03  0.26341642908E+03  0.41800000000E+01 0. -1.
        -11    1    1    2    0    0 -0.11963801154E+01  0.34922889086E+02 -0.30185737431E+02  0.46175948845E+02  0.00000000000E+00 0. -1.
         11    1    1    2    0    0 -0.51847322275E+02 -0.32026060549E+02  0.72835512433E+01  0.61374779022E+02  0.00000000000E+00 0.  1.
</event>
<event>
 7    1  0.2556591E-009  0.1350213E+03  0.7561462E-02  0.1220190E+00
         -2   -1    0    0    0  501 -0.00000000000E+00  0.00000000000E+00  0.29679255122E+02  0.29679255122E+02  0.00000000000E+00 0.  1.
          2   -1    0    0  501    0  0.00000000000E+00 -0.00000000000E+00 -0.88331892505E+03  0.88331892505E+03  0.00000000000E+00 0. -1.
         25    2    1    2    0    0  0.84409486784E+02 -0.66202649985E+02 -0.30614049767E+03  0.34767436107E+03  0.12509078588E+03 0.  0.
          5    1    3    3  502    0 -0.59487586921E+01 -0.33792909511E+02 -0.94820396279E+01  0.35843129588E+02  0.41800000000E+01 0. -1.
         -5    1    3    3    0  502  0.90358245476E+02 -0.32409740474E+02 -0.29665845804E+03  0.31183123149E+03  0.41800000000E+01 0. -1.
        -11    1    1    2    0    0 -0.48599644964E+02  0.85770994725E+02 -0.34801447249E+03  0.36170797902E+03  0.00000000000E+00 0. -1.
         11    1    1    2    0    0 -0.35809841820E+02 -0.19568344740E+02 -0.19948469977E+03  0.20361584007E+03  0.00000000000E+00 0.  1.
</event>
<event>
 7    1  0.2556591E-009  0.1021135E+03  0.7561462E-02  0.1275913E+00
          1   -1    0    0  501    0  0.00000000000E+00  0.00000000000E+00  0.85928794641E+02  0.85928794641E+02  0.00000000000E+00 0. -1.
         -1   -1    0    0    0  501 -0.00000000000E+00 -0.00000000000E+00 -0.13876633602E+03  0.13876633602E+03  0.00000000000E+00 0.  1.
         25    2    1    2    0    0 -0.15836074952E+02 -0.33682197231E+02 -0.14867840712E+02  0.13134128236E+03  0.12507680874E+03 0.  0.
          5    1    3    3  502    0 -0.35346789303E+02 -0.75091717013E+02 -0.18822965158E+02  0.85205269176E+02  0.41800000000E+01 0. -1.
         -5    1    3    3    0  502  0.19510714352E+02  0.41409519782E+02  0.39551244460E+01  0.46136013184E+02  0.41800000000E+01 0. -1.
        -11    1    1    2    0    0  0.31609966936E+02 -0.62536179542E+01 -0.38764707872E+02  0.50408335854E+02  0.00000000000E+00 0.  1.
         11    1    1    2    0    0 -0.15773891984E+02  0.39935815185E+02  0.79500720485E+00  0.42945512447E+02  0.00000000000E+00 0. -1.
</event>
<event>
 7    1  0.2556591E-009  0.1092930E+03  0.7561462E-02  0.1261885E+00
         -2   -1    0    0    0  501 -0.00000000000E+00  0.00000000000E+00  0.11423735302E+02  0.11423735302E+02  0.00000000000E+00 0.  1.
          2   -1    0    0  501    0  0.00000000000E+00 -0.00000000000E+00 -0.10820759047E+04  0.10820759047E+04  0.00000000000E+00 0. -1.
         25    2    1    2    0    0 -0.97710003768E+01 -0.17936607818E+02 -0.65109730240E+03  0.66331960807E+03  0.12509200973E+03 0.  0.
          5    1    3    3  502    0  0.45534439962E+02  0.26192323725E+02 -0.20701113357E+03  0.21361297916E+03  0.41800000000E+01 0. -1.
         -5    1    3    3    0  502 -0.55305440338E+02 -0.44128931543E+02 -0.44408616884E+03  0.44970662891E+03  0.41800000000E+01 0. -1.
        -11    1    1    2    0    0  0.65867600804E+01  0.56216372516E+02 -0.25228324785E+03  0.25855464238E+03  0.00000000000E+00 0.  1.
         11    1    1    2    0    0  0.31842402964E+01 -0.38279764698E+02 -0.16727161918E+03  0.17162538960E+03  0.00000000000E+00 0. -1.
</event>
<event>
 7    1  0.2556591E-009  0.1180749E+03  0.7561462E-02  0.1246307E+00
          4   -1    0    0  501    0  0.00000000000E+00  0.00000000000E+00  0.10358252680E+04  0.10358252680E+04  0.00000000000E+00 0. -1.
         -4   -1    0    0    0  501 -0.00000000000E+00 -0.00000000000E+00 -0.19429465342E+02  0.19429465342E+02  0.00000000000E+00 0.  1.
         25    2    1    2    0    0 -0.90491719867E+01  0.87889026069E+02  0.63727795153E+03  0.65542020306E+03  0.12508431821E+03 0.  0.
          5    1    3    3  502    0  0.22444536597E+02 -0.17398480398E+01  0.38714255590E+03  0.38781904966E+03  0.41800000000E+01 0.  1.
         -5    1    3    3    0  502 -0.31493708584E+02  0.89628874108E+02  0.25013539563E+03  0.26760115340E+03  0.41800000000E+01 0.  1.
        -11    1    1    2    0    0 -0.25126521527E+02 -0.78925465942E+02  0.18740504592E+03  0.20489319778E+03  0.00000000000E+00 0.  1.
         11    1    1    2    0    0  0.34175693514E+02 -0.89635601266E+01  0.19171280524E+03  0.19494133253E+03  0.00000000000E+00 0. -1.
</event>
<event>
 7    1  0.2556591E-009  0.1119499E+03  0.7561462E-02  0.1257001E+00
          2   -1    0    0  501    0  0.00000000000E+00  0.00000000000E+00  0.24112459372E+03  0.24112459372E+03  0.00000000000E+00 0. -1.
         -2   -1    0    0    0  501 -0.00000000000E+00 -0.00000000000E+00 -0.84263740148E+02  0.84263740148E+02  0.00000000000E+00 0.  1.
         25    2    1    2    0    0  0.91997932141E+02 -0.51820907284E+01  0.64968432245E+02  0.16840276532E+03  0.12509244819E+03 0.  0.
          5    1    3    3  502    0  0.90416366797E+02  0.11516667676E+02 -0.97024325905E+01  0.91757084834E+02  0.41800000000E+01 0. -1.
         -5    1    3    3    0  502  0.15815653442E+01 -0.16698758405E+02  0.74670864836E+02  0.76645680482E+02  0.41800000000E+01 0. -1.
        -11    1    1    2    0    0 -0.32046961052E+02  0.35804469787E+02  0.68721078080E+01  0.48540639006E+02  0.00000000000E+00 0.  1.
         11    1    1    2    0    0 -0.59950971089E+02 -0.30622379059E+02  0.85020313523E+02  0.10844492955E+03  0.00000000000E+00 0. -1.
</event>
<event>
 7    1  0.2556591E-009  0.1619255E+03  0.7561462E-02  0.1186540E+00
          2   -1    0    0  501    0  0.00000000000E+00  0.00000000000E+00  0.43775160871E+03  0.43775160871E+03  0.00000000000E+00 0. -1.
         -2   -1    0    0    0  501 -0.00000000000E+00 -0.00000000000E+00 -0.92509468506E+02  0.92509468506E+02  0.00000000000E+00 0.  1.
         25    2    1    2    0    0 -0.13764514813E+03  0.13592065112E+00  0.30905737920E+03  0.36070773542E+03  0.12508957380E+03 0.  0.
          5    1    3    3  502    0 -0.85772961635E+02  0.46949657276E+02  0.98650203055E+02  0.13896260730E+03  0.41800000000E+01 0. -1.
         -5    1    3    3    0  502 -0.51872186499E+02 -0.46813736625E+02  0.21040717615E+03  0.22174512812E+03  0.41800000000E+01 0. -1.
        -11    1    1    2    0    0  0.15167056520E+02  0.26599544491E+02  0.31754956045E+02  0.44112952792E+02  0.00000000000E+00 0. -1.
         11    1    1    2    0    0  0.12247809161E+03 -0.26735465142E+02  0.44298049567E+01  0.12544038900E+03  0.00000000000E+00 0.  1.
</event>
<event>
 7    1  0.2556591E-009  0.1109597E+03  0.7561462E-02  0.1258803E+00
          2   -1    0    0  501    0  0.00000000000E+00  0.00000000000E+00  0.44319462956E+03  0.44319462956E+03  0.00000000000E+00 0. -1.
         -2   -1    0    0    0  501 -0.00000000000E+00 -0.00000000000E+00 -0.60752075455E+02  0.60752075455E+02  0.00000000000E+00 0.  1.
         25    2    1    2    0    0  0.44454223891E+02 -0.61338056389E+01  0.29124597368E+02  0.13605031557E+03  0.12509054561E+03 0.  0.
          5    1    3    3  502    0 -0.79314042742E+01 -0.51258893092E+02 -0.14712117766E+02  0.54076798204E+02  0.41800000000E+01 0. -1.
         -5    1    3    3    0  502  0.52385628165E+02  0.45125087453E+02  0.43836715134E+02  0.81973517368E+02  0.41800000000E+01 0. -1.
        -11    1    1    2    0    0 -0.78454830412E+01 -0.40542548144E+02  0.11127350507E+03  0.11868884844E+03  0.00000000000E+00 0. -1.
         11    1    1    2    0    0 -0.36608740850E+02  0.46676353783E+02  0.24204445166E+03  0.24920754100E+03  0.00000000000E+00 0.  1.
</event>
<event>
 7    1  0.2556591E-009  0.1062326E+03  0.7561462E-02  0.1267710E+00
          2   -1    0    0  501    0  0.00000000000E+00  0.00000000000E+00  0.37543508153E+03  0.37543508153E+03  0.00000000000E+00 0. -1.
         -2   -1    0    0    0  501 -0.00000000000E+00 -0.00000000000E+00 -0.56646511931E+02  0.56646511931E+02  0.00000000000E+00 0.  1.
         25    2    1    2    0    0  0.44637681236E+02  0.81023665324E+02  0.13692264021E+03  0.20725078651E+03  0.12509085570E+03 0.  0.
          5    1    3    3  502    0 -0.51504102859E+01  0.19465224406E+02  0.12547114404E+03  0.12714520075E+03  0.41800000000E+01 0.  1.
         -5    1    3    3    0  502  0.49788091522E+02  0.61558440918E+02  0.11451496168E+02  0.80105585761E+02  0.41800000000E+01 0.  1.
        -11    1    1    2    0    0  0.12525767307E+02 -0.40908669972E+02  0.17462112185E+02  0.46209733688E+02  0.00000000000E+00 0.  1.
         11    1    1    2    0    0 -0.57163448542E+02 -0.40114995351E+02  0.16440381721E+03  0.17862107326E+03  0.00000000000E+00 0. -1.
</event>
<event>
 7    1  0.2556591E-009  0.1376633E+03  0.7561462E-02  0.1216508E+00
          2   -1    0    0  501    0  0.00000000000E+00  0.00000000000E+00  0.60914258403E+03  0.60914258403E+03  0.00000000000E+00 0. -1.
         -2   -1    0    0    0  501 -0.00000000000E+00 -0.00000000000E+00 -0.62041101880E+02  0.62041101880E+02  0.00000000000E+00 0.  1.
         25    2    1    2    0    0 -0.10799816898E+03 -0.50865926636E+02  0.47260689072E+03  0.50324510457E+03  0.12508962839E+03 0.  0.
          5    1    3    3  502    0 -0.77693241464E+02 -0.56849308568E+02  0.45938954484E+03  0.46938716425E+03  0.41800000000E+01 0. -1.
         -5    1    3    3    0  502 -0.30304927518E+02  0.59833819326E+01  0.13217345880E+02  0.33857940329E+02  0.41800000000E+01 0. -1.
        -11    1    1    2    0    0  0.32643183924E+01 -0.20692245595E+02  0.22424815893E+00  0.20949345803E+02  0.00000000000E+00 0.  1.
         11    1    1    2    0    0  0.10473385059E+03  0.71558172231E+02  0.74270343275E+02  0.14698923553E+03  0.00000000000E+00 0. -1.
</event>
<event>
 7    1  0.2556591E-009  0.1051861E+03  0.7561462E-02  0.1269753E+00
         -2   -1    0    0    0  501 -0.00000000000E+00  0.00000000000E+00  0.27735990201E+02  0.27735990201E+02  0.00000000000E+00 0.  1.
          2   -1    0    0  501    0  0.00000000000E+00 -0.00000000000E+00 -0.45908656657E+03  0.45908656657E+03  0.00000000000E+00 0. -1.
         25    2    1    2    0    0  0.19538768158E+02  0.20796022471E+01 -0.30393467411E+03  0.32925657381E+03  0.12509003583E+03 0.  0.
          5    1    3    3  502    0  0.72023652404E+02  0.18679944144E+01 -0.20241212887E+03  0.21489308556E+03  0.41800000000E+01 0. -1.
         -5    1    3    3    0  502 -0.52484884246E+02  0.21160783272E+00 -0.10152254524E+03  0.11436348825E+03  0.41800000000E+01 0. -1.
        -11    1    1    2    0    0 -0.52168108588E+02 -0.67010918389E+01 -0.46529947069E+02  0.70224298927E+02  0.00000000000E+00 0.  1.
         11    1    1    2    0    0  0.32629340430E+02  0.46214895918E+01 -0.80885955188E+02  0.87341684032E+02  0.00000000000E+00 0. -1.
</event>
<event>
 7    1  0.2556591E-009  0.9214470E+02  0.7561462E-02  0.1297740E+00
          2   -1    0    0  501    0  0.00000000000E+00  0.00000000000E+00  0.27629476201E+03  0.27629476201E+03  0.00000000000E+00 0. -1.
         -2   -1    0    0    0  501 -0.00000000000E+00 -0.00000000000E+00 -0.48640225688E+02  0.48640225688E+02  0.00000000000E+00 0.  1.
         25    2    1    2    0    0  0.50781494822E+01 -0.50779947398E+01  0.95315718950E+02  0.15742887629E+03  0.12508873323E+03 0.  0.
          5    1    3    3  502    0  0.38953589259E+02 -0.41774802771E+02  0.90476286690E+02  0.10707916285E+03  0.41800000000E+01 0. -1.
         -5    1    3    3    0  502 -0.33875439777E+02  0.36696808031E+02  0.48394322597E+01  0.50349713449E+02  0.41800000000E+01 0. -1.
        -11    1    1    2    0    0  0.22945664794E+02  0.31107168517E+02  0.10863555739E+02  0.40151915388E+02  0.00000000000E+00 0.  1.
         11    1    1    2    0    0 -0.28023814276E+02 -0.26029173777E+02  0.12147526163E+03  0.12735419601E+03  0.00000000000E+00 0. -1.
</event>
<event>
 7    1  0.2556591E-009  0.8366874E+02  0.7561462E-02  0.1318951E+00
          1   -1    0    0  501    0  0.00000000000E+00  0.00000000000E+00  0.51641074095E+03  0.51641074095E+03  0.00000000000E+00 0. -1.
         -1   -1    0    0    0  501 -0.00000000000E+00 -0.00000000000E+00 -0.33198722939E+02  0.33198722939E+02  0.00000000000E+00 0.  1.
         25    2    1    2    0    0  0.39577123737E+02  0.51544009819E+02  0.31931347481E+03  0.34904288877E+03  0.12508680718E+03 0.  0.
          5    1    3    3  502    0 -0.26063587305E+01  0.37684817280E+01 -0.10990815979E+02  0.12620023623E+02  0.41800000000E+01 0. -1.
         -5    1    3    3    0  502  0.42183482468E+02  0.47775528091E+02  0.33030429079E+03  0.33642286515E+03  0.41800000000E+01 0. -1.
        -11    1    1    2    0    0  0.13822178507E+02 -0.40421754112E+02  0.12881157169E+03  0.13571069164E+03  0.00000000000E+00 0. -1.
         11    1    1    2    0    0 -0.53399302244E+02 -0.11122255707E+02  0.35086971504E+02  0.64855883476E+02  0.00000000000E+00 0.  1.
</event>
<event>
 7    1  0.2684672E-009  0.1452643E+03  0.7561462E-02  0.1206416E+00
         -1   -1    0    0    0  501 -0.00000000000E+00  0.00000000000E+00  0.13076528289E+03  0.13076528289E+03  0.00000000000E+00 0.  1.
          1   -1    0    0  501    0  0.00000000000E+00 -0.00000000000E+00 -0.29637813151E+03  0.29637813151E+03  0.00000000000E+00 0. -1.
         25    2    1    2    0    0 -0.99188158722E+02  0.10020050900E+03  0.39986246625E+01  0.18852731448E+03  0.12509247168E+03 0.  0.
          5    1    3    3  502    0 -0.50431584089E+02  0.17706618241E+02 -0.54280613328E+02  0.76293685102E+02  0.41800000000E+01 0. -1.
         -5    1    3    3    0  502 -0.48756574634E+02  0.82493890757E+02  0.58279237990E+02  0.11223362938E+03  0.41800000000E+01 0. -1.
        -11    1    1    2    0    0  0.61025447834E+02 -0.62726061080E+02 -0.16262377236E+03  0.18467581152E+03  0.00000000000E+00 0. -1.
         11    1    1    2    0    0  0.38162710889E+02 -0.37474447917E+02 -0.69877009159E+01  0.53940288405E+02  0.00000000000E+00 0.  1.
</event>
<event>
 7    1  0.2556591E-009  0.1359093E+03  0.7561462E-02  0.1218942E+00
         -2   -1    0    0    0  501 -0.00000000000E+00  0.00000000000E+00  0.23149552040E+02  0.23149552040E+02  0.00000000000E+00 0.  1.
          2   -1    0    0  501    0  0.00000000000E+00 -0.00000000000E+00 -0.12147400400E+04  0.12147400400E+04  0.00000000000E+00 0. -1.
         25    2    1    2    0    0  0.80748960477E+02  0.60084125613E+02 -0.93946970001E+03  0.95309053898E+03  0.12509101287E+03 0.  0.
          5    1    3    3  502    0 -0.30978445933E+02  0.12550714106E+01 -0.26979908863E+03  0.27160681129E+03  0.41800000000E+01 0. -1.
         -5    1    3    3    0  502  0.11172740641E+03  0.58829054203E+02 -0.66967061138E+03  0.68148372769E+03  0.41800000000E+01 0. -1.
        -11    1    1    2    0    0 -0.41395606999E+02  0.11442719627E+01 -0.30217946326E+02  0.51264314268E+02  0.00000000000E+00 0.  1.
         11    1    1    2    0    0 -0.39353353478E+02 -0.61228397576E+02 -0.22190284165E+03  0.23353473881E+03  0.00000000000E+00 0. -1.
</event>
<event>
 7    1  0.2556591E-009  0.1540320E+03  0.7561462E-02  0.1195604E+00
          3   -1    0    0  501    0  0.00000000000E+00  0.00000000000E+00  0.10943691332E+03  0.10943691332E+03  0.00000000000E+00 0. -1.
         -3   -1    0    0    0  501 -0.00000000000E+00 -0.00000000000E+00 -0.30633505465E+03  0.30633505465E+03  0.00000000000E+00 0.  1.
         25    2    1    2    0    0  0.10921927331E+03 -0.37971233286E+02  0.32669375761E+00  0.17034936110E+03  0.12509250130E+03 0.  0.
          5    1    3    3  502    0  0.10710263097E+03  0.20750512888E+02  0.13441836112E+02  0.10999869410E+03  0.41800000000E+01 0.  1.
         -5    1    3    3    0  502  0.21166423355E+01 -0.58721746175E+02 -0.13115142354E+02  0.60350667002E+02  0.41800000000E+01 0.  1.
        -11    1    1    2    0    0 -0.63720584731E+02 -0.19539462099E+02 -0.12929442876E+03  0.14546186031E+03  0.00000000000E+00 0. -1.
         11    1    1    2    0    0 -0.45498688577E+02  0.57510695385E+02 -0.67930406328E+02  0.99960746545E+02  0.00000000000E+00 0.  1.
</event>
<event>
 7    1  0.2556591E-009  0.1134930E+03  0.7561462E-02  0.1254235E+00
         -2   -1    0    0    0  501 -0.00000000000E+00  0.00000000000E+00  0.73254617910E+01  0.73254617910E+01  0.00000000000E+00 0.  1.
          2   -1    0    0  501    0  0.00000000000E+00 -0.00000000000E+00 -0.23884116087E+04  0.23884116087E+04  0.00000000000E+00 0. -1.
         25    2    1    2    0    0  0.21770066130E+02 -0.33247777013E+02 -0.19065645772E+04  0.19110772605E+04  0.12509379850E+03 0.  0.
          5    1    3    3  502    0  0.84798474481E+01 -0.80189356517E+02 -0.10395631740E+04  0.10426942533E+04  0.41800000000E+01 0.  1.
         -5    1    3    3    0  502  0.13290218682E+02  0.46941579505E+02 -0.86700140313E+03  0.86838300722E+03  0.41800000000E+01 0.  1.
        -11    1    1    2    0    0 -0.52259808505E+02  0.40284748406E+02 -0.35682339806E+03  0.36287309895E+03  0.00000000000E+00 0.  1.
         11    1    1    2    0    0  0.30489742375E+02 -0.70369713935E+01 -0.11769817164E+03  0.12178671095E+03  0.00000000000E+00 0. -1.
</event>
<event>
 7    1  0.2556591E-009  0.1214041E+03  0.7561462E-02  0.1240798E+00
         -1   -1    0    0    0  501 -0.00000000000E+00  0.00000000000E+00  0.86037505890E+02  0.86037505890E+02  0.00000000000E+00 0.  1.
          1   -1    0    0  501    0  0.00000000000E+00 -0.00000000000E+00 -0.30755124912E+03  0.30755124912E+03  0.00000000000E+00 0. -1.
         25    2    1    2    0    0  0.41306267518E+02 -0.10943279147E+03 -0.79208930256E+02  0.18868809696E+03  0.12508956678E+03 0.  0.
          5    1    3    3  502    0  0.49123307010E+02 -0.90243971967E+02 -0.11048744166E+03  0.15093714232E+03  0.41800000000E+01 0. -1.
         -5    1    3    3    0  502 -0.78170394924E+01 -0.19188819505E+02  0.31278511403E+02  0.37750954637E+02  0.41800000000E+01 0. -1.
        -11    1    1    2    0    0 -0.13394132497E+02  0.13865770524E+02 -0.90767999148E+02  0.92792737037E+02  0.00000000000E+00 0. -1.
         11    1    1    2    0    0 -0.27912135020E+02  0.95567020948E+02 -0.51536813825E+02  0.11210792101E+03  0.00000000000E+00 0.  1.
</event>
<event>
 7    1  0.2556591E-009  0.9147152E+02  0.7561462E-02  0.1299327E+00
          1   -1    0    0  501    0  0.00000000000E+00  0.00000000000E+00  0.22945098873E+03  0.22945098873E+03  0.00000000000E+00 0. -1.
         -1   -1    0    0    0  501 -0.00000000000E+00 -0.00000000000E+00 -0.50526094046E+02  0.50526094046E+02  0.00000000000E+00 0.  1.
         25    2    1    2    0    0 -0.52948331968E+01  0.93474899396E+01  0.10206589259E+03  0.16180241689E+03  0.12508862799E+03 0.  0.
          5    1    3    3  502    0  0.31552138570E+01  0.61273892577E+02  0.20830851296E+02  0.64929516029E+02  0.41800000000E+01 0.  1.
         -5    1    3    3    0  502 -0.84500470538E+01 -0.51926402638E+02  0.81235041295E+02  0.96872900857E+02  0.41800000000E+01 0.  1.
        -11    1    1    2    0    0 -0.16560165422E+01  0.29328317392E+02 -0.26407922471E+01  0.29493497174E+02  0.00000000000E+00 0.  1.
         11    1    1    2    0    0  0.69508497390E+01 -0.38675807332E+02  0.79499794345E+02  0.88681168721E+02  0.00000000000E+00 0. -1.
</event>
<event>
 7    1  0.2556591E-009  0.1087683E+03  0.7561462E-02  0.1262868E+00
         -1   -1    0    0    0  501 -0.00000000000E+00  0.00000000000E+00  0.32268952203E+02  0.32268952203E+02  0.00000000000E+00 0.  1.
          1   -1    0    0  501    0  0.00000000000E+00 -0.00000000000E+00 -0.49438685672E+03  0.49438685672E+03  0.00000000000E+00 0. -1.
         25    2    1    2    0    0  0.66644916405E+01 -0.42782127080E+02 -0.35608116877E+03  0.37988948522E+03  0.12508995314E+03 0.  0.
          5    1    3    3  502    0  0.49274293789E+02 -0.64400642642E+02 -0.18139658003E+03  0.19874000716E+03  0.41800000000E+01 0. -1.
         -5    1    3    3    0  502 -0.42609802148E+02  0.21618515562E+02 -0.17468458875E+03  0.18114947806E+03  0.41800000000E+01 0. -1.
        -11    1    1    2    0    0  0.19586776905E+02 -0.15158361790E+02 -0.20306365799E+01  0.24850377192E+02  0.00000000000E+00 0.  1.
         11    1    1    2    0    0 -0.26251268545E+02  0.57940488870E+02 -0.10400609916E+03  0.12191594651E+03  0.00000000000E+00 0. -1.
</event>
<event>
 7    1  0.2556591E-009  0.1695205E+03  0.7561462E-02  0.1178349E+00
         -2   -1    0    0    0  501 -0.00000000000E+00  0.00000000000E+00  0.28002969586E+02  0.28002969586E+02  0.00000000000E+00 0.  1.
          2   -1    0    0  501    0  0.00000000000E+00 -0.00000000000E+00 -0.14522806842E+04  0.14522806842E+04  0.00000000000E+00 0. -1.
         25    2    1    2    0    0 -0.56974003398E+02  0.13876277772E+03 -0.10262824723E+04  0.10447031226E+04  0.12509099059E+03 0.  0.
          5    1    3    3  502    0  0.85597689463E+01  0.54157040130E+02 -0.11864055665E+03  0.13076432511E+03  0.41800000000E+01 0.  1.
         -5    1    3    3    0  502 -0.65533772345E+02  0.84605737587E+02 -0.90764191561E+03  0.91393879747E+03  0.41800000000E+01 0.  1.
        -11    1    1    2    0    0 -0.25317152864E+02 -0.49157863901E+02 -0.12921877134E+03  0.14055228450E+03  0.00000000000E+00 0.  1.
         11    1    1    2    0    0  0.82291156262E+02 -0.89604913816E+02 -0.26877647100E+03  0.29502824669E+03  0.00000000000E+00 0. -1.
</event>
<event>
 7    1  0.2556591E-009  0.1621430E+03  0.7561462E-02  0.1186298E+00
          1   -1    0    0  501    0  0.00000000000E+00  0.00000000000E+00  0.77963838263E+03  0.77963838263E+03  0.00000000000E+00 0. -1.
         -1   -1    0    0    0  501 -0.00000000000E+00 -0.00000000000E+00 -0.36560618994E+02  0.36560618994E+02  0.00000000000E+00 0.  1.
         25    2    1    2    0    0 -0.10449072793E+03 -0.70713947433E+02  0.32257961994E+03  0.36827289252E+03  0.12509411489E+03 0.  0.
          5    1    3    3  502    0  0.24672530770E+02 -0.77352961213E+01  0.99452170049E+02  0.10284344952E+03  0.41800000000E+01 0.  1.
         -5    1    3    3    0  502 -0.12916325870E+03 -0.62978651312E+02  0.22312744989E+03  0.26542944300E+03  0.41800000000E+01 0.  1.
        -11    1    1    2    0    0  0.40567216174E+02 -0.18496742049E+02  0.12086276357E+03  0.12882405099E+03  0.00000000000E+00 0. -1.
         11    1    1    2    0    0  0.63923511754E+02  0.89210689482E+02  0.29963538012E+03  0.31910205811E+03  0.00000000000E+00 0.  1.
</event>
<event>
 7    1  0.2556591E-009  0.2874250E+03  0.7561462E-02  0.1091701E+00
          2   -1    0    0  501    0  0.00000000000E+00  0.00000000000E+00  0.52659778002E+03  0.52659778002E+03  0.00000000000E+00 0.  1.
         -2   -1    0    0    0  501 -0.00000000000E+00 -0.00000000000E+00 -0.17832804700E+03  0.17832804700E+03  0.00000000000E+00 0. -1.
         25    2    1    2    0    0  0.17939788513E+03  0.21298480261E+03  0.25441465869E+03  0.39739190907E+03  0.12508950199E+03 0.  0.
          5    1    3    3  502    0  0.16321967966E+03  0.21837102241E+03  0.19441092767E+03  0.33487258540E+03  0.41800000000E+01 0.  1.
         -5    1    3    3    0  502  0.16178205471E+02 -0.53862197964E+01  0.60003731024E+02  0.62519323675E+02  0.41800000000E+01 0.  1.
        -11    1    1    2    0    0 -0.13720977560E+03 -0.11904350331E+03  0.94045236346E+02  0.20455411186E+03  0.00000000000E+00 0.  1.
         11    1    1    2    0    0 -0.42188109531E+02 -0.93941299304E+02 -0.19016201596E+00  0.10297980609E+03  0.00000000000E+00 0. -1.
</event>
<event>
 7    1  0.2556591E-009  0.6789083E+02  0.7561462E-02  0.1367416E+00
         -2   -1    0    0    0  501 -0.00000000000E+00  0.00000000000E+00  0.23349323699E+02  0.23349323699E+02  0.00000000000E+00 0.  1.
          2   -1    0    0  501    0  0.00000000000E+00 -0.00000000000E+00 -0.97706959227E+03  0.97706959227E+03  0.00000000000E+00 0. -1.
         25    2    1    2    0    0 -0.61698878755E+02 -0.20454899594E+02 -0.78953644209E+03  0.80202233544E+03  0.12508748376E+03 0.  0.
          5    1    3    3  502    0 -0.25795842387E+02 -0.13586078509E+02 -0.73860318825E+03  0.73919019820E+03  0.41800000000E+01 0. -1.
         -5    1    3    3    0  502 -0.35903036368E+02 -0.68688210846E+01 -0.50933253839E+02  0.62832137240E+02  0.41800000000E+01 0. -1.
        -11    1    1    2    0    0  0.23061902232E+02  0.20564646361E+02 -0.15583356419E+03  0.15886741561E+03  0.00000000000E+00 0. -1.
         11    1    1    2    0    0  0.38636976523E+02 -0.10974676725E+00 -0.83502622921E+01  0.39529164923E+02  0.00000000000E+00 0.  1.
</event>
<event>
 7    1  0.2556591E-009  0.1132528E+03  0.7561462E-02  0.1254662E+00
          1   -1    0    0  501    0  0.00000000000E+00  0.00000000000E+00  0.13101122520E+04  0.13101122520E+04  0.00000000000E+00 0. -1.
         -1   -1    0    0    0  501 -0.00000000000E+00 -0.00000000000E+00 -0.19069002230E+02  0.19069002230E+02  0.00000000000E+00 0.  1.
         25    2    1    2    0    0  0.94435082153E+01 -0.99643119793E+02  0.91641955513E+03  0.93031709088E+03  0.12508859814E+03 0.  0.
          5    1    3    3  502    0  0.23508335648E+01 -0.11124420769E+03  0.44623288867E+03  0.45991527861E+03  0.41800000000E+01 0.  1.
         -5    1    3    3    0  502  0.70926746505E+01  0.11601087893E+02  0.47018666646E+03  0.47040181227E+03  0.41800000000E+01 0.  1.
        -11    1    1    2    0    0  0.31847770135E+01  0.28510398381E+02  0.15622181135E+02  0.32665550108E+02  0.00000000000E+00 0.  1.
         11    1    1    2    0    0 -0.12628285229E+02  0.71132721412E+02  0.35900151346E+03  0.36619861320E+03  0.00000000000E+00 0. -1.
</event>
<event>
 7    1  0.2556591E-009  0.1213630E+03  0.7561462E-02  0.1240865E+00
         -1   -1    0    0    0  501 -0.00000000000E+00  0.00000000000E+00  0.25669153525E+02  0.25669153525E+02  0.00000000000E+00 0.  1.
          1   -1    0    0  501    0  0.00000000000E+00 -0.00000000000E+00 -0.74514048872E+03  0.74514048872E+03  0.00000000000E+00 0. -1.
         25    2    1    2    0    0  0.76526273003E+02  0.17601758195E+02 -0.48751209692E+03  0.50939458941E+03  0.12509480693E+03 0.  0.
          5    1    3    3  502    0  0.50038534574E+01 -0.33631463530E+02 -0.30308290672E+03  0.30501284339E+03  0.41800000000E+01 0. -1.
         -5    1    3    3    0  502  0.71522419546E+02  0.51233221725E+02 -0.18442919020E+03  0.20438174602E+03  0.41800000000E+01 0. -1.
        -11    1    1    2    0    0 -0.73542923409E+02 -0.49308595368E+02 -0.16447932005E+03  0.18679760674E+03  0.00000000000E+00 0.  1.
         11    1    1    2    0    0 -0.29833495938E+01  0.31706837172E+02 -0.67479918231E+02  0.74617446101E+02  0.00000000000E+00 0. -1.
</event>
<event>
 7    1  0.2556591E-009  0.1154819E+03  0.7561462E-02  0.1250742E+00
         -1   -1    0    0    0  501 -0.00000000000E+00  0.00000000000E+00  0.60015747838E+02  0.60015747838E+02  0.00000000000E+00 0.  1.
          1   -1    0    0  501    0  0.00000000000E+00 -0.00000000000E+00 -0.28773633775E+03  0.28773633775E+03  0.00000000000E+00 0. -1.
         25    2    1    2    0    0  0.68630217457E+02  0.35543025192E+02 -0.13903142993E+03  0.20236186073E+03  0.12508865169E+03 0.  0.
          5    1    3    3  502    0  0.32147823603E+02  0.69504113276E+02 -0.13086452381E+03  0.15168157541E+03  0.41800000000E+01 0.  1.
         -5    1    3    3    0  502  0.36482393854E+02 -0.33961088084E+02 -0.81669061154E+01  0.50680285325E+02  0.41800000000E+01 0.  1.
        -11    1    1    2    0    0 -0.74172704525E+02 -0.49542324560E+02 -0.46489182953E+02  0.10058467155E+03  0.00000000000E+00 0.  1.
         11    1    1    2    0    0  0.55424870685E+01  0.13999299368E+02 -0.42199977033E+02  0.44805553309E+02  0.00000000000E+00 0. -1.
</event>
<event>
 7    1  0.2556591E-009  0.9904468E+02  0.7561462E-02  0.1282318E+00
          1   -1    0    0  501    0  0.00000000000E+00  0.00000000000E+00  0.95891953661E+03  0.95891953661E+03  0.00000000000E+00 0. -1.
         -1   -1    0    0    0  501 -0.00000000000E+00 -0.00000000000E+00 -0.17914232706E+02  0.17914232706E+02  0.00000000000E+00 0.  1.
         25    2    1    2    0    0 -0.56477476221E+02 -0.40064049742E+02  0.43653445916E+03  0.45935380138E+03  0.12509495356E+03 0.  0.
          5    1    3    3  502    0 -0.25951085171E+02  0.69175388808E+01  0.37517282935E+03  0.37615613174E+03  0.41800000000E+01 0. -1.
         -5    1    3    3    0  502 -0.30526391050E+02 -0.46981588623E+02  0.61361629811E+02  0.83197669637E+02  0.41800000000E+01 0. -1.
        -11    1    1    2    0    0 -0.22353834162E+02  0.26611252951E+02  0.13002387445E+03  0.13458848618E+03  0.00000000000E+00 0. -1.
         11    1    1    2    0    0  0.78831310383E+02  0.13452796791E+02  0.37444697030E+03  0.38289148176E+03  0.00000000000E+00 0.  1.
</event>
<event>
 7    1  0.2556591E-009  0.1061092E+03  0.7561462E-02  0.1267949E+00
          2   -1    0    0  501    0  0.00000000000E+00  0.00000000000E+00  0.56709910284E+03  0.56709910284E+03  0.00000000000E+00 0. -1.
         -2   -1    0    0    0  501 -0.00000000000E+00 -0.00000000000E+00 -0.27387044933E+02  0.27387044933E+02  0.00000000000E+00 0.  1.
         25    2    1    2    0    0  0.15905912272E+02 -0.54037267477E+02  0.35617290897E+03  0.38168039683E+03  0.12509100655E+03 0.  0.
          5    1    3    3  502    0  0.61372874801E+02 -0.13126751510E+02  0.98927596630E+02  0.11723089670E+03  0.41800000000E+01 0.  1.
         -5    1    3    3    0  502 -0.45466962529E+02 -0.40910515966E+02  0.25724531234E+03  0.26444950013E+03  0.41800000000E+01 0.  1.
        -11    1    1    2    0    0  0.14342430894E+02  0.55896572453E+02  0.51540348266E+02  0.77372731859E+02  0.00000000000E+00 0.  1.
         11    1    1    2    0    0 -0.30248343165E+02 -0.18593049763E+01  0.13199880067E+03  0.13543301908E+03  0.00000000000E+00 0. -1.
</event>
<event>
 7    1  0.2556591E-009  0.9878241E+02  0.7561462E-02  0.1282877E+00
         -2   -1    0    0    0  501 -0.00000000000E+00  0.00000000000E+00  0.10081656401E+03  0.10081656401E+03  0.00000000000E+00 0.  1.
          2   -1    0    0  501    0  0.00000000000E+00 -0.00000000000E+00 -0.14377192097E+03  0.14377192097E+03  0.00000000000E+00 0. -1.
         25    2    1    2    0    0 -0.32340873463E+01  0.13614555402E+02 -0.74682647192E+02  0.14635981132E+03  0.12509149107E+03 0.  0.
          5    1    3    3  502    0 -0.53807707397E+02  0.38896609129E+02 -0.25302808386E+02  0.71175277234E+02  0.41800000000E+01 0.  1.
         -5    1    3    3    0  502  0.50573620051E+02 -0.25282053727E+02 -0.49379838806E+02  0.75184534089E+02  0.41800000000E+01 0.  1.
        -11    1    1    2    0    0 -0.14771038069E+01 -0.43783897881E+02  0.46860661415E+02  0.64149303485E+02  0.00000000000E+00 0.  1.
         11    1    1    2    0    0  0.47111911532E+01  0.30169342479E+02 -0.15133371185E+02  0.34079370169E+02  0.00000000000E+00 0. -1.
</event>
<event>
 7    1  0.2556591E-009  0.8861921E+02  0.7561462E-02  0.1306230E+00
         -4   -1    0    0    0  501 -0.00000000000E+00  0.00000000000E+00  0.15645382338E+04  0.15645382338E+04  0.00000000000E+00 0.  1.
          4   -1    0    0  501    0  0.00000000000E+00 -0.00000000000E+00 -0.10719072669E+02  0.10719072669E+02  0.00000000000E+00 0. -1.
         25    2    1    2    0    0 -0.47586488331E+01  0.58337943181E+02  0.11005901013E+04  0.11092212856E+04  0.12508928403E+03 0.  0.
          5    1    3    3  502    0 -0.12238155224E+02  0.36728134282E+01  0.88842948756E+01  0.16114127256E+02  0.41800000000E+01 0. -1.
         -5    1    3    3    0  502  0.74795063914E+01  0.54665129752E+02  0.10917058064E+04  0.10931071583E+04  0.41800000000E+01 0. -1.
        -11    1    1    2    0    0  0.31386425289E+02  0.11728730342E+02  0.13413676733E+03  0.13825824806E+03  0.00000000000E+00 0.  1.
         11    1    1    2    0    0 -0.26627776456E+02 -0.70066673523E+02  0.31909229256E+03  0.32777777287E+03  0.00000000000E+00 0. -1.
</event>
<event>
 7    1  0.2556591E-009  0.1017712E+03  0.7561462E-02  0.1276615E+00
          2   -1    0    0  501    0  0.00000000000E+00  0.00000000000E+00  0.49321650351E+03  0.49321650351E+03  0.00000000000E+00 0. -1.
         -2   -1    0    0    0  501 -0.00000000000E+00 -0.00000000000E+00 -0.82251504223E+02  0.82251504223E+02  0.00000000000E+00 0.  1.
         25    2    1    2    0    0 -0.26212801436E+02 -0.71409608253E+02  0.43080166536E+03  0.45499947774E+03  0.12509199316E+03 0.  0.
          5    1    3    3  502    0 -0.15029795324E+02  0.16421369210E+02  0.96483337543E+01  0.24619481279E+02  0.41800000000E+01 0.  1.
         -5    1    3    3    0  502 -0.11183006112E+02 -0.87830977462E+02  0.42115333161E+03  0.43037999646E+03  0.41800000000E+01 0.  1.
        -11    1    1    2    0    0  0.41416302630E+02  0.61358101967E+02 -0.47050929843E+02  0.87714974774E+02  0.00000000000E+00 0.  1.
         11    1    1    2    0    0 -0.15203501194E+02  0.10051506285E+02  0.27214263764E+02  0.32753555218E+02  0.00000000000E+00 0. -1.
</event>
<event>
 7    1  0.2556591E-009  0.1378404E+03  0.7561462E-02  0.1216265E+00
         -1   -1    0    0    0  501 -0.00000000000E+00  0.00000000000E+00  0.18787574332E+03  0.18787574332E+03  0.00000000000E+00 0.  1.
          1   -1    0    0  501    0  0.00000000000E+00 -0.00000000000E+00 -0.13454223200E+03  0.13454223200E+03  0.00000000000E+00 0. -1.
         25    2    1    2    0    0  0.46089046447E+02 -0.91638171669E+00  0.29386506822E+02  0.13652072952E+03  0.12509717361E+03 0.  0.
          5    1    3    3  502    0  0.72814916002E+02  0.14366944264E+02 -0.21070675024E+02  0.77264913291E+02  0.41800000000E+01 0. -1.
         -5    1    3    3    0  502 -0.26725869555E+02 -0.15283325981E+02  0.50457181847E+02  0.59255816224E+02  0.41800000000E+01 0. -1.
        -11    1    1    2    0    0 -0.68354612389E+02 -0.68863606447E+02  0.48722273468E+02  0.10857444110E+03  0.00000000000E+00 0.  1.
         11    1    1    2    0    0  0.22265565941E+02  0.69779988164E+02 -0.24775268974E+02  0.77322804706E+02  0.00000000000E+00 0. -1.
</event>
<event>
 7    1  0.2556591E-009  0.1088115E+03  0.7561462E-02  0.1262787E+00
         -1   -1    0    0    0  501 -0.00000000000E+00  0.00000000000E+00  0.33527733165E+03  0.33527733165E+03  0.00000000000E+00 0.  1.
          1   -1    0    0  501    0  0.00000000000E+00 -0.00000000000E+00 -0.45866521391E+02  0.45866521391E+02  0.00000000000E+00 0. -1.
         25    2    1    2    0    0 -0.33829895074E+02  0.31097130050E+02  0.21395725777E+03  0.25206384769E+03  0.12508789654E+03 0.  0.
          5    1    3    3  502    0 -0.36282543528E+01  0.73926371554E+02  0.16196002225E+03  0.17812016688E+03  0.41800000000E+01 0. -1.
         -5    1    3    3    0  502 -0.30201640721E+02 -0.42829241504E+02  0.51997235517E+02  0.73943680808E+02  0.41800000000E+01 0. -1.
        -11    1    1    2    0    0 -0.52969485143E+01 -0.48002333633E+02  0.71489980957E+02  0.86273397261E+02  0.00000000000E+00 0.  1.
         11    1    1    2    0    0  0.39126843588E+02  0.16905203583E+02  0.39635715360E+01  0.42806608096E+02  0.00000000000E+00 0. -1.
</event>
<event>
 7    1  0.2556591E-009  0.1041134E+03  0.7561462E-02  0.1271876E+00
         -3   -1    0    0    0  501 -0.00000000000E+00  0.00000000000E+00  0.13290799047E+03  0.13290799047E+03  0.00000000000E+00 0.  1.
          3   -1    0    0  501    0  0.00000000000E+00 -0.00000000000E+00 -0.11505147431E+03  0.11505147431E+03  0.00000000000E+00 0. -1.
         25    2    1    2    0    0  0.19975966756E+02 -0.92718089976E+01 -0.44578032198E+02  0.13460861489E+03  0.12508905851E+03 0.  0.
          5    1    3    3  502    0  0.61792347835E+02  0.29868999155E+02 -0.16640763175E+02  0.70744885048E+02  0.41800000000E+01 0.  1.
         -5    1    3    3    0  502 -0.41816381079E+02 -0.39140808153E+02 -0.27937269023E+02  0.63863729846E+02  0.41800000000E+01 0.  1.
        -11    1    1    2    0    0 -0.49384324351E+02  0.15920839719E+02  0.99650270662E+01  0.52835465300E+02  0.00000000000E+00 0. -1.
         11    1    1    2    0    0  0.29408357596E+02 -0.66490307209E+01  0.52469521292E+02  0.60515384578E+02  0.00000000000E+00 0.  1.
</event>
<event>
 7    1  0.2556591E-009  0.1044726E+03  0.7561462E-02  0.1271162E+00
          2   -1    0    0  501    0  0.00000000000E+00  0.00000000000E+00  0.56268522537E+02  0.56268522537E+02  0.00000000000E+00 0. -1.
         -2   -1    0    0    0  501 -0.00000000000E+00 -0.00000000000E+00 -0.31128727253E+03  0.31128727253E+03  0.00000000000E+00 0.  1.
         25    2    1    2    0    0  0.46392138484E+01 -0.38304394491E+02 -0.23403777344E+03  0.26816024223E+03  0.12508991636E+03 0.  0.
          5    1    3    3  502    0 -0.35390851251E+02 -0.70264264256E+02 -0.15516636473E+03  0.17402198805E+03  0.41800000000E+01 0. -1.
         -5    1    3    3    0  502  0.40030065100E+02  0.31959869765E+02 -0.78871408716E+02  0.94138254180E+02  0.41800000000E+01 0. -1.
        -11    1    1    2    0    0  0.30393908082E+02  0.57301724480E+01 -0.37660987190E+02  0.48733709902E+02  0.00000000000E+00 0.  1.
         11    1    1    2    0    0 -0.35033121930E+02  0.32574222043E+02  0.16680010641E+02  0.50661842928E+02  0.00000000000E+00 0. -1.
</event>
<event>
 7    1  0.2556591E-009  0.1093969E+03  0.7561462E-02  0.1261691E+00
         -1   -1    0    0    0  501 -0.00000000000E+00  0.00000000000E+00  0.38556988253E+02  0.38556988253E+02  0.00000000000E+00 0. -1.
          1   -1    0    0  501    0  0.00000000000E+00 -0.00000000000E+00 -0.37789811239E+03  0.37789811239E+03  0.00000000000E+00 0.  1.
         25    2    1    2    0    0 -0.49849710143E+02  0.16475215726E+02 -0.17123734724E+03  0.21846304038E+03  0.12508974614E+03 0.  0.
          5    1    3    3  502    0 -0.63473506595E+02 -0.33119654210E+02 -0.52139016711E+02  0.88666493096E+02  0.41800000000E+01 0.  1.
         -5    1    3    3    0  502  0.13623796452E+02  0.49594869936E+02 -0.11909833053E+03  0.12979654729E+03  0.41800000000E+01 0.  1.
        -11    1    1    2    0    0  0.37742004119E+02 -0.48374376293E+02 -0.64976783876E+02  0.89367340788E+02  0.00000000000E+00 0. -1.
         11    1    1    2    0    0  0.12107706024E+02  0.31899160567E+02 -0.10312699302E+03  0.10862471947E+03  0.00000000000E+00 0.  1.
</event>
<event>
 7    1  0.2556591E-009  0.1563430E+03  0.7561462E-02  0.1192888E+00
         -1   -1    0    0    0  501 -0.00000000000E+00  0.00000000000E+00  0.22351805964E+03  0.22351805964E+03  0.00000000000E+00 0.  1.
          1   -1    0    0  501    0  0.00000000000E+00 -0.00000000000E+00 -0.15905040020E+03  0.15905040020E+03  0.00000000000E+00 0. -1.
         25    2    1    2    0    0 -0.46666641977E+02 -0.13371678310E+03  0.93518509179E+02  0.21083844738E+03  0.12509670572E+03 0.  0.
          5    1    3    3  502    0 -0.45823005305E+02 -0.14846163701E+03  0.47800989459E+02  0.16261307596E+03  0.41800000000E+01 0.  1.
         -5    1    3    3    0  502 -0.84363667216E+00  0.14744853915E+02  0.45717519720E+02  0.48225371426E+02  0.41800000000E+01 0.  1.
        -11    1    1    2    0    0  0.10092278756E+02  0.41351141905E+02  0.33645679086E+02  0.54256822138E+02  0.00000000000E+00 0.  1.
         11    1    1    2    0    0  0.36574363221E+02  0.92365641191E+02 -0.62696528829E+02  0.11747319032E+03  0.00000000000E+00 0. -1.
</event>
<event>
 7    1  0.2556591E-009  0.1419940E+03  0.7561462E-02  0.1210671E+00
          1   -1    0    0  501    0  0.00000000000E+00  0.00000000000E+00  0.31171280244E+02  0.31171280244E+02  0.00000000000E+00 0. -1.
         -1   -1    0    0    0  501 -0.00000000000E+00 -0.00000000000E+00 -0.70694113207E+03  0.70694113207E+03  0.00000000000E+00 0.  1.
         25    2    1    2    0    0  0.61076947270E+02  0.68874430640E+02 -0.46507443857E+03  0.49032175906E+03  0.12508842196E+03 0.  0.
          5    1    3    3  502    0  0.88518524927E+02  0.92508658046E+01 -0.28566019452E+03  0.29923289744E+03  0.41800000000E+01 0.  1.
         -5    1    3    3    0  502 -0.27441577656E+02  0.59623564835E+02 -0.17941424405E+03  0.19108886162E+03  0.41800000000E+01 0.  1.
        -11    1    1    2    0    0 -0.14731208449E+00 -0.68187225717E+02 -0.93776468636E+02  0.11594630448E+03  0.00000000000E+00 0.  1.
         11    1    1    2    0    0 -0.60929635186E+02 -0.68720492236E+00 -0.11691894461E+03  0.13184434878E+03  0.00000000000E+00 0. -1.
</event>
<event>
 7    1  0.2556591E-009  0.1106123E+03  0.7561462E-02  0.1259440E+00
         -2   -1    0    0    0  501 -0.00000000000E+00  0.00000000000E+00  0.20459898222E+02  0.20459898222E+02  0.00000000000E+00 0.  1.
          2   -1    0    0  501    0  0.00000000000E+00 -0.00000000000E+00 -0.66201491225E+03  0.66201491225E+03  0.00000000000E+00 0. -1.
         25    2    1    2    0    0  0.35805145616E+02 -0.22171645785E+02 -0.31716030039E+03  0.34352866478E+03  0.12509075528E+03 0.  0.
          5    1    3    3  502    0  0.54528835821E+02 -0.62140176566E+02 -0.15880838864E+03  0.17908761035E+03  0.41800000000E+01 0.  1.
         -5    1    3    3    0  502 -0.18723690206E+02  0.39968530781E+02 -0.15835191175E+03  0.16444105443E+03  0.41800000000E+01 0.  1.
        -11    1    1    2    0    0  0.22900442728E+02  0.26767373284E+02 -0.17200382251E+03  0.17557402287E+03  0.00000000000E+00 0.  1.
         11    1    1    2    0    0 -0.58705588344E+02 -0.45957274990E+01 -0.15239089113E+03  0.16337212282E+03  0.00000000000E+00 0. -1.
</event>
<event>
 7    1  0.2556591E-009  0.1033427E+03  0.7561462E-02  0.1273420E+00
          1   -1    0    0  501    0  0.00000000000E+00  0.00000000000E+00  0.14144036208E+03  0.14144036208E+03  0.00000000000E+00 0. -1.
         -1   -1    0    0    0  501 -0.00000000000E+00 -0.00000000000E+00 -0.98319452961E+02  0.98319452961E+02  0.00000000000E+00 0.  1.
         25    2    1    2    0    0 -0.31554768553E+02 -0.52820020688E+01 -0.93799451793E+01  0.12945508317E+03  0.12508809785E+03 0.  0.
          5    1    3    3  502    0 -0.71865275432E+02 -0.14988277880E+02  0.22600444856E+02  0.76925410590E+02  0.41800000000E+01 0.  1.
         -5    1    3    3    0  502  0.40310506879E+02  0.97062758108E+01 -0.31980390035E+02  0.52529672584E+02  0.41800000000E+01 0.  1.
        -11    1    1    2    0    0 -0.24939800823E+02 -0.17605121779E+02  0.35910502054E+02  0.47132771356E+02  0.00000000000E+00 0.  1.
         11    1    1    2    0    0  0.56494569376E+02  0.22887123848E+02  0.16590352242E+02  0.63171960509E+02  0.00000000000E+00 0. -1.
</event>
<event>
 7    1  0.2556591E-009  0.7552335E+02  0.7561462E-02  0.1342258E+00
          2   -1    0    0  501    0  0.00000000000E+00  0.00000000000E+00  0.52809261521E+03  0.52809261521E+03  0.00000000000E+00 0. -1.
         -2   -1    0    0    0  501 -0.00000000000E+00 -0.00000000000E+00 -0.46821217409E+02  0.46821217409E+02  0.00000000000E+00 0.  1.
         25    2    1    2    0    0 -0.55822425930E+01  0.46140419800E+02  0.68722247340E+02  0.15009900353E+03  0.12508742467E+03 0.  0.
          5    1    3    3  502    0 -0.11244303300E+02  0.36576997140E+02 -0.31152857872E+02  0.49520541496E+02  0.41800000000E+01 0.  1.
         -5    1    3    3    0  502  0.56620607067E+01  0.95634226605E+01  0.99875105213E+02  0.10057846204E+03  0.41800000000E+01 0.  1.
        -11    1    1    2    0    0  0.14343065923E+02  0.25096071867E+02  0.14163140605E+03  0.14455099980E+03  0.00000000000E+00 0.  1.
         11    1    1    2    0    0 -0.87608233297E+01 -0.71236491667E+02  0.27091774442E+03  0.28026382929E+03  0.00000000000E+00 0. -1.
</event>
<event>
 7    1  0.2556591E-009  0.1521271E+03  0.7561462E-02  0.1197883E+00
         -1   -1    0    0    0  501 -0.00000000000E+00  0.00000000000E+00  0.23416203182E+02  0.23416203182E+02  0.00000000000E+00 0.  1.
          1   -1    0    0  501    0  0.00000000000E+00 -0.00000000000E+00 -0.12738547024E+04  0.12738547024E+04  0.00000000000E+00 0. -1.
         25    2    1    2    0    0  0.99558027267E+02  0.85768524493E+02 -0.56411883588E+03  0.59257556374E+03  0.12509075569E+03 0.  0.
          5    1    3    3  502    0  0.10247155894E+03  0.99070729317E+02 -0.34928982807E+03  0.37727481521E+03  0.41800000000E+01 0. -1.
         -5    1    3    3    0  502 -0.29135316776E+01 -0.13302204824E+02 -0.21482900781E+03  0.21530074853E+03  0.41800000000E+01 0. -1.
        -11    1    1    2    0    0 -0.61485985727E+02 -0.90119234454E+02 -0.60551991900E+03  0.61526935172E+03  0.00000000000E+00 0. -1.
         11    1    1    2    0    0 -0.38072041539E+02  0.43507099601E+01 -0.80799744322E+02  0.89425990107E+02  0.00000000000E+00 0.  1.
</event>
<event>
 7    1  0.2556591E-009  0.1044803E+03  0.7561462E-02  0.1271147E+00
         -1   -1    0    0    0  501 -0.00000000000E+00  0.00000000000E+00  0.30840875093E+02  0.30840875093E+02  0.00000000000E+00 0.  1.
          1   -1    0    0  501    0  0.00000000000E+00 -0.00000000000E+00 -0.62074484689E+03  0.62074484689E+03  0.00000000000E+00 0. -1.
         25    2    1    2    0    0 -0.74099697359E+02 -0.13807690875E+01 -0.22106651296E+03  0.26459502559E+03  0.12508977874E+03 0.  0.
          5    1    3    3  502    0 -0.16591675023E+02 -0.24359563017E+02  0.49796888578E+01  0.30181810608E+02  0.41800000000E+01 0.  1.
         -5    1    3    3    0  502 -0.57508022336E+02  0.22978793929E+02 -0.22604620182E+03  0.23441321499E+03  0.41800000000E+01 0.  1.
        -11    1    1    2    0    0  0.90052786040E+02  0.20363492372E+02 -0.28837334349E+03  0.30279260449E+03  0.00000000000E+00 0. -1.
         11    1    1    2    0    0 -0.15953088681E+02 -0.18982723285E+02 -0.80464115340E+02  0.84198091898E+02  0.00000000000E+00 0.  1.
</event>
<event>
 7    1  0.2556591E-009  0.1442251E+03  0.7561462E-02  0.1207754E+00
          2   -1    0    0  501    0  0.00000000000E+00  0.00000000000E+00  0.66683875597E+02  0.66683875597E+02  0.00000000000E+00 0. -1.
         -2   -1    0    0    0  501 -0.00000000000E+00 -0.00000000000E+00 -0.85715161233E+03  0.85715161233E+03  0.00000000000E+00 0.  1.
         25    2    1    2    0    0 -0.99449334750E+02  0.89091185008E+02 -0.72539589507E+03  0.74811292389E+03  0.12508530243E+03 0.  0.
          5    1    3    3  502    0  0.11668639460E+01  0.43742038931E+02 -0.64510530141E+02  0.78062849297E+02  0.41800000000E+01 0. -1.
         -5    1    3    3    0  502 -0.10061619870E+03  0.45349146077E+02 -0.66088536492E+03  0.67005007459E+03  0.41800000000E+01 0. -1.
        -11    1    1    2    0    0  0.18962640581E+02 -0.11082290556E+02 -0.59581903797E+02  0.63501198114E+02  0.00000000000E+00 0.  1.
         11    1    1    2    0    0  0.80486694169E+02 -0.78008894452E+02 -0.54899378687E+01  0.11222136592E+03  0.00000000000E+00 0. -1.
</event>
<event>
 7    1  0.3582164E-009  0.1145134E+03  0.7561462E-02  0.1252433E+00
          2   -1    0    0  501    0  0.00000000000E+00  0.00000000000E+00  0.61781370434E+03  0.61781370434E+03  0.00000000000E+00 0. -1.
         -2   -1    0    0    0  501 -0.00000000000E+00 -0.00000000000E+00 -0.31363163564E+02  0.31363163564E+02  0.00000000000E+00 0.  1.
         25    2    1    2    0    0 -0.65347041466E+02 -0.57637433232E+02  0.30488051032E+03  0.34086973598E+03  0.12509093411E+03 0.  0.
          5    1    3    3  502    0  0.81285667277E+01 -0.31875220596E+02  0.82616905960E+01  0.34173545566E+02  0.41800000000E+01 0.  1.
         -5    1    3    3    0  502 -0.73475608194E+02 -0.25762212636E+02  0.29661881972E+03  0.30669619041E+03  0.41800000000E+01 0.  1.
        -11    1    1    2    0    0  0.33900293563E+02  0.74760308641E+02  0.23887037765E+03  0.25258145413E+03  0.00000000000E+00 0. -1.
         11    1    1    2    0    0  0.31446747903E+02 -0.17122875410E+02  0.42699652803E+02  0.55725677792E+02  0.00000000000E+00 0.  1.
</event>
<event>
 7    1  0.2556591E-009  0.1375681E+03  0.7561462E-02  0.1216639E+00
         -1   -1    0    0    0  501 -0.00000000000E+00  0.00000000000E+00  0.21378432780E+02  0.21378432780E+02  0.00000000000E+00 0.  1.
          1   -1    0    0  501    0  0.00000000000E+00 -0.00000000000E+00 -0.10319461042E+04  0.10319461042E+04  0.00000000000E+00 0. -1.
         25    2    1    2    0    0 -0.45028480332E+02 -0.89895066997E+02 -0.54002264650E+03  0.56336591120E+03  0.12509198238E+03 0.  0.
          5    1    3    3  502    0 -0.32278359931E+02 -0.11405293552E+03 -0.50506756899E+03  0.51880698363E+03  0.41800000000E+01 0. -1.
         -5    1    3    3    0  502 -0.12750120400E+02  0.24157868527E+02 -0.34955077511E+02  0.44558927565E+02  0.41800000000E+01 0. -1.
        -11    1    1    2    0    0  0.21731024694E+02 -0.11688427689E+02 -0.40162270999E+02  0.47136660763E+02  0.00000000000E+00 0.  1.
         11    1    1    2    0    0  0.23297455637E+02  0.10158349469E+03 -0.43038275396E+03  0.44282196506E+03  0.00000000000E+00 0. -1.
</event>
<event>
 7    1  0.2556591E-009  0.9888034E+02  0.7561462E-02  0.1282668E+00
          2   -1    0    0  501    0  0.00000000000E+00  0.00000000000E+00  0.45216040519E+03  0.45216040519E+03  0.00000000000E+00 0. -1.
         -2   -1    0    0    0  501 -0.00000000000E+00 -0.00000000000E+00 -0.30791741334E+02  0.30791741334E+02  0.00000000000E+00 0.  1.
         25    2    1    2    0    0 -0.34103930109E+02 -0.49095271435E+01  0.30728743641E+03  0.33355813152E+03  0.12509307344E+03 0.  0.
          5    1    3    3  502    0 -0.49666276935E+02  0.33227210663E+02  0.27389413421E+03  0.28036807192E+03  0.41800000000E+01 0. -1.
         -5    1    3    3    0  502  0.15562346826E+02 -0.38136737807E+02  0.33393302192E+02  0.53190059603E+02  0.41800000000E+01 0. -1.
        -11    1    1    2    0    0  0.28633854443E+02 -0.41118041802E+02  0.59416688283E+02  0.77723444523E+02  0.00000000000E+00 0.  1.
         11    1    1    2    0    0  0.54700756663E+01  0.46027568946E+02  0.54664539161E+02  0.71670570477E+02  0.00000000000E+00 0. -1.
</event>
<event>
 7    1  0.2556591E-009  0.1076513E+03  0.7561462E-02  0.1264982E+00
          3   -1    0    0  501    0  0.00000000000E+00  0.00000000000E+00  0.25704245380E+02  0.25704245380E+02  0.00000000000E+00 0. -1.
         -3   -1    0    0    0  501 -0.00000000000E+00 -0.00000000000E+00 -0.54328587224E+03  0.54328587224E+03  0.00000000000E+00 0.  1.
         25    2    1    2    0    0 -0.23621341297E+01  0.47538377233E+02 -0.28430116497E+03  0.31423053042E+03  0.12509275302E+03 0.  0.
          5    1    3    3  502    0 -0.42965306040E+02 -0.23886297230E+02 -0.80014052952E+02  0.94001562691E+02  0.41800000000E+01 0. -1.
         -5    1    3    3    0  502  0.40603171910E+02  0.71424674463E+02 -0.20428711202E+03  0.22022896773E+03  0.41800000000E+01 0. -1.
        -11    1    1    2    0    0 -0.30821620224E+02 -0.75414044884E+01 -0.16970169937E+03  0.17264272885E+03  0.00000000000E+00 0.  1.
         11    1    1    2    0    0  0.33183754354E+02 -0.39996972744E+02 -0.63578762523E+02  0.82116858352E+02  0.00000000000E+00 0. -1.
</event>
<event>
 7    1  0.2556591E-009  0.1606453E+03  0.7561462E-02  0.1187970E+00
         -1   -1    0    0    0  501 -0.00000000000E+00  0.00000000000E+00  0.20055246874E+03  0.20055246874E+03  0.00000000000E+00 0.  1.
          1   -1    0    0  501    0  0.00000000000E+00 -0.00000000000E+00 -0.15126931025E+03  0.15126931025E+03  0.00000000000E+00 0. -1.
         25    2    1    2    0    0 -0.35892733269E+02  0.11824532111E+03  0.83399666162E+02  0.19461060103E+03  0.12509011733E+03 0.  0.
          5    1    3    3  502    0 -0.38289092546E+02 -0.10427056570E+02 -0.22455923404E+01  0.39966150699E+02  0.41800000000E+01 0.  1.
         -5    1    3    3    0  502  0.23963592773E+01  0.12867237768E+03  0.85645258502E+02  0.15464445033E+03  0.41800000000E+01 0.  1.
        -11    1    1    2    0    0 -0.23878540135E+02 -0.75380871728E+02 -0.25875020468E+02  0.83198420572E+02  0.00000000000E+00 0. -1.
         11    1    1    2    0    0  0.59771273403E+02 -0.42864449378E+02 -0.82414872013E+01  0.74012757387E+02  0.00000000000E+00 0.  1.
</event>
<event>
 7    1  0.2556591E-009  0.9947707E+02  0.7561462E-02  0.1281399E+00
          1   -1    0    0  501    0  0.00000000000E+00  0.00000000000E+00  0.14112921921E+03  0.14112921921E+03  0.00000000000E+00 0. -1.
         -1   -1    0    0    0  501 -0.00000000000E+00 -0.00000000000E+00 -0.14788819576E+03  0.14788819576E+03  0.00000000000E+00 0.  1.
         25    2    1    2    0    0 -0.38675081512E+01 -0.96273937734E+01  0.88660945221E+02  0.15367502504E+03  0.12509039045E+03 0.  0.
          5    1    3    3  502    0 -0.57776594816E+02 -0.32618304333E+02  0.41893023950E+02  0.78578537411E+02  0.41800000000E+01 0.  1.
         -5    1    3    3    0  502  0.53909086665E+02  0.22990910560E+02  0.46767921271E+02  0.75096487624E+02  0.41800000000E+01 0.  1.
        -11    1    1    2    0    0 -0.60357797736E+01 -0.31163544112E+02 -0.86892688092E+02  0.92509115027E+02  0.00000000000E+00 0.  1.
         11    1    1    2    0    0  0.99032879248E+01  0.40790937886E+02 -0.85272336801E+01  0.42833274910E+02  0.00000000000E+00 0. -1.
</event>
<event>
 7    1  0.2556591E-009  0.1093601E+03  0.7561462E-02  0.1261759E+00
          2   -1    0    0  501    0  0.00000000000E+00  0.00000000000E+00  0.13659327360E+03  0.13659327360E+03  0.00000000000E+00 0. -1.
         -2   -1    0    0    0  501 -0.00000000000E+00 -0.00000000000E+00 -0.10488710267E+03  0.10488710267E+03  0.00000000000E+00 0.  1.
         25    2    1    2    0    0  0.13333726448E+02  0.26000032210E+02  0.60734663919E+02  0.14210762035E+03  0.12510829879E+03 0.  0.
          5    1    3    3  502    0  0.89827847921E+01 -0.48524370909E+02  0.42224622337E+02  0.65082225886E+02  0.41800000000E+01 0.  1.
         -5    1    3    3    0  502  0.43509416564E+01  0.74524403119E+02  0.18510041582E+02  0.77025394468E+02  0.41800000000E+01 0.  1.
        -11    1    1    2    0    0 -0.50691095999E+02 -0.26215095413E+02 -0.11998586542E+02  0.58316245765E+02  0.00000000000E+00 0. -1.
         11    1    1    2    0    0  0.37357369551E+02  0.21506320236E+00 -0.17029906454E+02  0.41056510151E+02  0.00000000000E+00 0.  1.
</event>
<event>
 7    1  0.2556591E-009  0.8575900E+02  0.7561462E-02  0.1313460E+00
          2   -1    0    0  501    0  0.00000000000E+00  0.00000000000E+00  0.30263603952E+03  0.30263603952E+03  0.00000000000E+00 0. -1.
         -2   -1    0    0    0  501 -0.00000000000E+00 -0.00000000000E+00 -0.53043685995E+02  0.53043685995E+02  0.00000000000E+00 0.  1.
         25    2    1    2    0    0  0.41831439313E+02 -0.22683928340E+02  0.73141999768E+02  0.15251631019E+03  0.12508814022E+03 0.  0.
          5    1    3    3  502    0  0.22045706582E+02 -0.40199839591E+02 -0.23887228572E+02  0.51866293204E+02  0.41800000000E+01 0. -1.
         -5    1    3    3    0  502  0.19785732730E+02  0.17515911251E+02  0.97029228341E+02  0.10065001698E+03  0.41800000000E+01 0. -1.
        -11    1    1    2    0    0 -0.13273201787E+02 -0.33317128993E+02  0.45750537642E+02  0.58131924659E+02  0.00000000000E+00 0. -1.
         11    1    1    2    0    0 -0.28558237526E+02  0.56001057333E+02  0.13069981612E+03  0.14503149067E+03  0.00000000000E+00 0.  1.
</event>
<event>
 7    1  0.2556591E-009  0.8508830E+02  0.7561462E-02  0.1315202E+00
          2   -1    0    0  501    0  0.00000000000E+00  0.00000000000E+00  0.45981192839E+03  0.45981192839E+03  0.00000000000E+00 0.  1.
         -2   -1    0    0    0  501 -0.00000000000E+00 -0.00000000000E+00 -0.29751823259E+02  0.29751823259E+02  0.00000000000E+00 0. -1.
         25    2    1    2    0    0  0.15231759880E+02 -0.11347114942E+01  0.19339657171E+03  0.23083063113E+03  0.12508897728E+03 0.  0.
          5    1    3    3  502    0 -0.31846654753E+02  0.16211945098E+02  0.17268025849E+03  0.17638872031E+03  0.41800000000E+01 0. -1.
         -5    1    3    3    0  502  0.47078414634E+02 -0.17346656592E+02  0.20716313222E+02  0.54441910812E+02  0.41800000000E+01 0. -1.
        -11    1    1    2    0    0  0.31394475438E+02 -0.14624291434E+02  0.28565304682E+02  0.44893870624E+02  0.00000000000E+00 0. -1.
         11    1    1    2    0    0 -0.46626235318E+02  0.15759002928E+02  0.20809822874E+03  0.21383924990E+03  0.00000000000E+00 0.  1.
</event>
<event>
 7    1  0.2556591E-009  0.9895851E+02  0.7561462E-02  0.1282501E+00
          2   -1    0    0  501    0  0.00000000000E+00  0.00000000000E+00  0.23798519087E+03  0.23798519087E+03  0.00000000000E+00 0. -1.
         -2   -1    0    0    0  501 -0.00000000000E+00 -0.00000000000E+00 -0.63238371820E+02  0.63238371820E+02  0.00000000000E+00 0.  1.
         25    2    1    2    0    0 -0.22085703295E+02  0.97960023490E+01  0.34268951700E+02  0.13194552768E+03  0.12510604011E+03 0.  0.
          5    1    3    3  502    0  0.24057755589E+02  0.40973411038E+02  0.54613170431E+02  0.72509770380E+02  0.41800000000E+01 0. -1.
         -5    1    3    3    0  502 -0.46143458884E+02 -0.31177408689E+02 -0.20344218731E+02  0.59435757302E+02  0.41800000000E+01 0. -1.
        -11    1    1    2    0    0 -0.10407740890E+02 -0.45162730738E+02  0.65566182063E+02  0.80292699223E+02  0.00000000000E+00 0.  1.
         11    1    1    2    0    0  0.32493444184E+02  0.35366728389E+02  0.74911685283E+02  0.88985335780E+02  0.00000000000E+00 0. -1.
</event>
<event>
 7    1  0.2556591E-009  0.1504056E+03  0.7561462E-02  0.1199975E+00
          1   -1    0    0  501    0  0.00000000000E+00  0.00000000000E+00  0.28086401689E+03  0.28086401689E+03  0.00000000000E+00 0. -1.
         -1   -1    0    0    0  501 -0.00000000000E+00 -0.00000000000E+00 -0.11559929583E+03  0.11559929583E+03  0.00000000000E+00 0.  1.
         25    2    1    2    0    0  0.11503197018E+03  0.69834466278E+02  0.32187441341E+02  0.18652942938E+03  0.12509192540E+03 0.  0.
          5    1    3    3  502    0  0.94247438223E+02  0.93940256385E+02 -0.10008227658E+02  0.13351025579E+03  0.41800000000E+01 0. -1.
         -5    1    3    3    0  502  0.20784531958E+02 -0.24105790108E+02  0.42195668999E+02  0.53019173585E+02  0.41800000000E+01 0. -1.
        -11    1    1    2    0    0 -0.72257854477E+02 -0.52979020358E+02  0.13710149965E+03  0.16378276875E+03  0.00000000000E+00 0. -1.
         11    1    1    2    0    0 -0.42774115704E+02 -0.16855445919E+02 -0.40242199327E+01  0.46151114585E+02  0.00000000000E+00 0.  1.
</event>
<event>
 7    1  0.2556591E-009  0.7749342E+02  0.7561462E-02  0.1336319E+00
          1   -1    0    0  501    0  0.00000000000E+00  0.00000000000E+00  0.22550533996E+03  0.22550533996E+03  0.00000000000E+00 0. -1.
         -1   -1    0    0    0  501 -0.00000000000E+00 -0.00000000000E+00 -0.12352999696E+03  0.12352999696E+03  0.00000000000E+00 0.  1.
         25    2    1    2    0    0  0.41214277216E+02  0.64418323154E+02  0.15684739635E+03  0.21470382369E+03  0.12509312197E+03 0.  0.
          5    1    3    3  502    0  0.10074423765E+02  0.24040475768E+02  0.16120918196E+03  0.16335639332E+03  0.41800000000E+01 0.  1.
         -5    1    3    3    0  502  0.31139853452E+02  0.40377847386E+02 -0.43617856146E+01  0.51347430376E+02  0.41800000000E+01 0.  1.
        -11    1    1    2    0    0 -0.24770630416E+02 -0.27500800315E+02  0.25105286714E+02  0.44723076483E+02  0.00000000000E+00 0. -1.
         11    1    1    2    0    0 -0.16443646801E+02 -0.36917522839E+02 -0.79977340060E+02  0.89608436745E+02  0.00000000000E+00 0.  1.
</event>
<event>
 7    1  0.2556591E-009  0.8390708E+02  0.7561462E-02  0.1318316E+00
          1   -1    0    0  501    0  0.00000000000E+00  0.00000000000E+00  0.41441595238E+03  0.41441595238E+03  0.00000000000E+00 0. -1.
         -1   -1    0    0    0  501 -0.00000000000E+00 -0.00000000000E+00 -0.31331187292E+02  0.31331187292E+02  0.00000000000E+00 0.  1.
         25    2    1    2    0    0  0.11829787656E+02  0.46381046668E+02  0.27511321446E+03  0.30598382634E+03  0.12509067051E+03 0.  0.
          5    1    3    3  502    0  0.11103548231E+02 -0.23849428428E+02  0.53152496387E+01  0.27162626868E+02  0.41800000000E+01 0. -1.
         -5    1    3    3    0  502  0.72623942501E+00  0.70230475096E+02  0.26979796482E+03  0.27882119948E+03  0.41800000000E+01 0. -1.
        -11    1    1    2    0    0 -0.23895194870E+02 -0.10601440239E+01  0.21506192492E+01  0.24015191158E+02  0.00000000000E+00 0.  1.
         11    1    1    2    0    0  0.12065407214E+02 -0.45320902644E+02  0.10582093138E+03  0.11574812217E+03  0.00000000000E+00 0. -1.
</event>
<event>
 7    1  0.2556591E-009  0.1123495E+03  0.7561462E-02  0.1256280E+00
          1   -1    0    0  501    0  0.00000000000E+00  0.00000000000E+00  0.41059276039E+03  0.41059276039E+03  0.00000000000E+00 0. -1.
         -1   -1    0    0    0  501 -0.00000000000E+00 -0.00000000000E+00 -0.92199326142E+02  0.92199326142E+02  0.00000000000E+00 0.  1.
         25    2    1    2    0    0  0.34474616430E+02  0.56672200450E+02  0.35593804655E+03  0.38306543087E+03  0.12508794450E+03 0.  0.
          5    1    3    3  502    0  0.59132686829E+02 -0.18695842156E+02  0.15951900353E+03  0.17120161814E+03  0.41800000000E+01 0.  1.
         -5    1    3    3    0  502 -0.24658070398E+02  0.75368042606E+02  0.19641904302E+03  0.21186381273E+03  0.41800000000E+01 0.  1.
        -11    1    1    2    0    0 -0.47584164254E+02 -0.46570122247E+02  0.11855152108E+02  0.67628201258E+02  0.00000000000E+00 0. -1.
         11    1    1    2    0    0  0.13109547824E+02 -0.10102078203E+02 -0.49399764411E+02  0.52098454411E+02  0.00000000000E+00 0.  1.
</event>
<event>
 7    1  0.2556591E-009  0.1625869E+03  0.7561462E-02  0.1185807E+00
         -3   -1    0    0    0  501 -0.00000000000E+00  0.00000000000E+00  0.64766213779E+02  0.64766213779E+02  0.00000000000E+00 0.  1.
          3   -1    0    0  501    0  0.00000000000E+00 -0.00000000000E+00 -0.53971407426E+03  0.53971407426E+03  0.00000000000E+00 0. -1.
         25    2    1    2    0    0  0.99314248001E+02  0.11439117858E+03 -0.28008523724E+03  0.34211740723E+03  0.12509164087E+03 0.  0.
          5    1    3    3  502    0  0.86654863186E+02  0.10909408606E+03 -0.29194011047E+03  0.32350747353E+03  0.41800000000E+01 0. -1.
         -5    1    3    3    0  502  0.12659384816E+02  0.52970925211E+01  0.11854873228E+02  0.18609933701E+02  0.41800000000E+01 0. -1.
        -11    1    1    2    0    0 -0.10823326971E+03 -0.11944869434E+03 -0.16447505692E+03  0.23029215272E+03  0.00000000000E+00 0.  1.
         11    1    1    2    0    0  0.89190217096E+01  0.50575157635E+01 -0.30387566312E+02  0.32070728092E+02  0.00000000000E+00 0. -1.
</event>
<event>
 7    1  0.2556591E-009  0.2461830E+03  0.7561462E-02  0.1115741E+00
         -2   -1    0    0    0  501 -0.00000000000E+00  0.00000000000E+00  0.16446503000E+03  0.16446503000E+03  0.00000000000E+00 0.  1.
          2   -1    0    0  501    0  0.00000000000E+00 -0.00000000000E+00 -0.55557757623E+03  0.55557757623E+03  0.00000000000E+00 0. -1.
         25    2    1    2    0    0 -0.15221568552E+03 -0.17037803673E+03 -0.39534647997E+03  0.47343991929E+03  0.12509287604E+03 0.  0.
          5    1    3    3  502    0 -0.22321669166E+02  0.18797982128E+02 -0.30601808827E+02  0.42491930409E+02  0.41800000000E+01 0.  1.
         -5    1    3    3    0  502 -0.12989401636E+03 -0.18917601886E+03 -0.36474467114E+03  0.43094798889E+03  0.41800000000E+01 0.  1.
        -11    1    1    2    0    0  0.98838064768E+02  0.14173109770E+03 -0.32408461462E+02  0.17580379825E+03  0.00000000000E+00 0. -1.
         11    1    1    2    0    0  0.53377620753E+02  0.28646939026E+02  0.36642395208E+02  0.70798888688E+02  0.00000000000E+00 0.  1.
</event>
<event>
 7    1  0.2556591E-009  0.6920920E+02  0.7561462E-02  0.1362803E+00
          1   -1    0    0  501    0  0.00000000000E+00  0.00000000000E+00  0.17920673140E+03  0.17920673140E+03  0.00000000000E+00 0. -1.
         -1   -1    0    0    0  501 -0.00000000000E+00 -0.00000000000E+00 -0.86371451105E+02  0.86371451105E+02  0.00000000000E+00 0.  1.
         25    2    1    2    0    0  0.32945270052E+02 -0.40556374653E+02  0.26708493017E+02  0.13816800518E+03  0.12508734433E+03 0.  0.
          5    1    3    3  502    0  0.48779709720E+02 -0.32815030811E+02  0.69840680511E+02  0.91386428871E+02  0.41800000000E+01 0. -1.
         -5    1    3    3    0  502 -0.15834439668E+02 -0.77413438418E+01 -0.43132187494E+02  0.46781576310E+02  0.41800000000E+01 0. -1.
        -11    1    1    2    0    0 -0.98373328903E+01 -0.44318656898E+01 -0.22734087375E+02  0.25164524248E+02  0.00000000000E+00 0.  1.
         11    1    1    2    0    0 -0.23107937162E+02  0.44988240342E+02  0.88860874654E+02  0.10224565308E+03  0.00000000000E+00 0. -1.
</event>
<event>
 7    1  0.2556591E-009  0.2308456E+03  0.7561462E-02  0.1126046E+00
          2   -1    0    0  501    0  0.00000000000E+00  0.00000000000E+00  0.15015089708E+04  0.15015089708E+04  0.00000000000E+00 0. -1.
         -2   -1    0    0    0  501 -0.00000000000E+00 -0.00000000000E+00 -0.38801426980E+02  0.38801426980E+02  0.00000000000E+00 0.  1.
         25    2    1    2    0    0 -0.17671255126E+03  0.12008807981E+03  0.95369401132E+03  0.98530680091E+03  0.12509497196E+03 0.  0.
          5    1    3    3  502    0 -0.14859874213E+03  0.29212889901E+02  0.62495709129E+03  0.64305817579E+03  0.41800000000E+01 0.  1.
         -5    1    3    3    0  502 -0.28113809125E+02  0.90875189909E+02  0.32873692003E+03  0.34224862511E+03  0.41800000000E+01 0.  1.
        -11    1    1    2    0    0  0.11671080956E+03 -0.65379912632E+02  0.37684613695E+03  0.39988618003E+03  0.00000000000E+00 0. -1.
         11    1    1    2    0    0  0.60001741698E+02 -0.54708167178E+02  0.13216739558E+03  0.15511741687E+03  0.00000000000E+00 0.  1.
</event>
<event>
 7    1  0.2556591E-009  0.1328708E+03  0.7561462E-02  0.1223257E+00
         -1   -1    0    0    0  501 -0.00000000000E+00  0.00000000000E+00  0.12954661254E+03  0.12954661254E+03  0.00000000000E+00 0.  1.
          1   -1    0    0  501    0  0.00000000000E+00 -0.00000000000E+00 -0.15289480835E+03  0.15289480835E+03  0.00000000000E+00 0. -1.
         25    2    1    2    0    0 -0.77617847527E+01 -0.88749286896E+02 -0.13855738230E+02  0.15419551415E+03  0.12509034285E+03 0.  0.
          5    1    3    3  502    0 -0.27297607790E+02  0.25188429713E+02  0.20359775884E+01  0.37433060084E+02  0.41800000000E+01 0.  1.
         -5    1    3    3    0  502  0.19535823038E+02 -0.11393771661E+03 -0.15891715818E+02  0.11676245407E+03  0.41800000000E+01 0.  1.
        -11    1    1    2    0    0 -0.25028801832E+02  0.71253967547E+02 -0.34929777415E+02  0.83208522175E+02  0.00000000000E+00 0. -1.
         11    1    1    2    0    0  0.32790586585E+02  0.17495319350E+02  0.25437319839E+02  0.45037384564E+02  0.00000000000E+00 0.  1.
</event>
<event>
 7    1  0.2556591E-009  0.9308857E+02  0.7561462E-02  0.1295540E+00
         -2   -1    0    0    0  501 -0.00000000000E+00  0.00000000000E+00  0.41980856292E+03  0.41980856292E+03  0.00000000000E+00 0.  1.
          2   -1    0    0  501    0  0.00000000000E+00 -0.00000000000E+00 -0.29078805832E+02  0.29078805832E+02  0.00000000000E+00 0. -1.
         25    2    1    2    0    0 -0.12617174126E+02 -0.19208356848E+02  0.21128459023E+03  0.24661175412E+03  0.12509206666E+03 0.  0.
          5    1    3    3  502    0 -0.60062964476E+02 -0.86278944309E+01  0.51998594639E+02  0.80020787976E+02  0.41800000000E+01 0.  1.
         -5    1    3    3    0  502  0.47445790349E+02 -0.10580462417E+02  0.15928599559E+03  0.16659096614E+03  0.41800000000E+01 0.  1.
        -11    1    1    2    0    0  0.34987578603E+02 -0.13020198254E+02  0.14607972275E+03  0.15077447270E+03  0.00000000000E+00 0.  1.
         11    1    1    2    0    0 -0.22370404477E+02  0.32228555102E+02  0.33365444101E+02  0.51501141933E+02  0.00000000000E+00 0. -1.
</event>
<event>
 7    1  0.2556591E-009  0.9963716E+02  0.7561462E-02  0.1281061E+00
          1   -1    0    0  501    0  0.00000000000E+00  0.00000000000E+00  0.25320229726E+03  0.25320229726E+03  0.00000000000E+00 0. -1.
         -1   -1    0    0    0  501 -0.00000000000E+00 -0.00000000000E+00 -0.56370195162E+02  0.56370195162E+02  0.00000000000E+00 0.  1.
         25    2    1    2    0    0  0.10163650118E+02 -0.39762680039E+01  0.52278960514E+02  0.13601356121E+03  0.12508992217E+03 0.  0.
          5    1    3    3  502    0  0.53344786734E+02  0.18499868823E+02  0.64324097208E+02  0.85691150651E+02  0.41800000000E+01 0.  1.
         -5    1    3    3    0  502 -0.43181136616E+02 -0.22476136827E+02 -0.12045136694E+02  0.50322410555E+02  0.41800000000E+01 0.  1.
        -11    1    1    2    0    0  0.37045573139E+02 -0.18618304842E+02  0.82874587017E+02  0.92667216089E+02  0.00000000000E+00 0.  1.
         11    1    1    2    0    0 -0.47209223257E+02  0.22594572846E+02  0.61678554564E+02  0.80891715124E+02  0.00000000000E+00 0. -1.
</event>
<event>
 7    1  0.2556591E-009  0.2059053E+03  0.7561462E-02  0.1144850E+00
          2   -1    0    0  501    0  0.00000000000E+00  0.00000000000E+00  0.12813046598E+04  0.12813046598E+04  0.00000000000E+00 0. -1.
         -2   -1    0    0    0  501 -0.00000000000E+00 -0.00000000000E+00 -0.39736301790E+02  0.39736301790E+02  0.00000000000E+00 0.  1.
         25    2    1    2    0    0  0.19511689184E+03 -0.22464659160E+02  0.60594939378E+03  0.64915086220E+03  0.12508761603E+03 0.  0.
          5    1    3    3  502    0  0.18818633520E+03 -0.21504831900E+02  0.39542618106E+03  0.43846994380E+03  0.41800000000E+01 0. -1.
         -5    1    3    3    0  502  0.69305566390E+01 -0.95982725970E+00  0.21052321272E+03  0.21068091840E+03  0.41800000000E+01 0. -1.
        -11    1    1    2    0    0 -0.22926053012E+02  0.34687380564E+02  0.81322063789E+02  0.91335077248E+02  0.00000000000E+00 0.  1.
         11    1    1    2    0    0 -0.17219083882E+03 -0.12222721404E+02  0.55429690047E+03  0.58055502217E+03  0.00000000000E+00 0. -1.
</event>
<event>
 7    1  0.2556591E-009  0.1046894E+03  0.7561462E-02  0.1270733E+00
          2   -1    0    0  501    0  0.00000000000E+00  0.00000000000E+00  0.51274982367E+03  0.51274982367E+03  0.00000000000E+00 0.  1.
         -2   -1    0    0    0  501 -0.00000000000E+00 -0.00000000000E+00 -0.24912740442E+02  0.24912740442E+02  0.00000000000E+00 0. -1.
         25    2    1    2    0    0  0.11059807221E+02  0.18107950705E+02  0.25258269039E+03  0.28265774059E+03  0.12508863104E+03 0.  0.
          5    1    3    3  502    0  0.63759200015E+02 -0.13390846006E+02  0.12590858170E+03  0.14182733760E+03  0.41800000000E+01 0. -1.
         -5    1    3    3    0  502 -0.52699392793E+02  0.31498796711E+02  0.12667410868E+03  0.14083040299E+03  0.41800000000E+01 0. -1.
        -11    1    1    2    0    0  0.34611073284E+02 -0.45019757947E+01  0.17363451277E+03  0.17710770227E+03  0.00000000000E+00 0.  1.
         11    1    1    2    0    0 -0.45670880506E+02 -0.13605974910E+02  0.61619880068E+02  0.77897121250E+02  0.00000000000E+00 0. -1.
</event>
<event>
 7    1  0.2556591E-009  0.6742873E+02  0.7561462E-02  0.1369062E+00
         -1   -1    0    0    0  501 -0.00000000000E+00  0.00000000000E+00  0.11389584465E+03  0.11389584465E+03  0.00000000000E+00 0.  1.
          1   -1    0    0  501    0  0.00000000000E+00 -0.00000000000E+00 -0.15394045391E+03  0.15394045391E+03  0.00000000000E+00 0. -1.
         25    2    1    2    0    0 -0.36855551101E+02 -0.16549572807E+02 -0.87700449858E+02  0.15802242674E+03  0.12508996139E+03 0.  0.
          5    1    3    3  502    0  0.94389115424E+00 -0.39219600427E+02 -0.10369573504E+03  0.11094749142E+03  0.41800000000E+01 0. -1.
         -5    1    3    3    0  502 -0.37799442255E+02  0.22670027620E+02  0.15995285181E+02  0.47074935317E+02  0.41800000000E+01 0. -1.
        -11    1    1    2    0    0  0.37156065067E+02  0.26747359451E+01 -0.18937759405E+02  0.41789545522E+02  0.00000000000E+00 0. -1.
         11    1    1    2    0    0 -0.30051396690E+00  0.13874836862E+02  0.66593600008E+02  0.68024326300E+02  0.00000000000E+00 0.  1.
</event>
<event>
 7    1  0.2556591E-009  0.9797696E+02  0.7561462E-02  0.1284609E+00
          1   -1    0    0  501    0  0.00000000000E+00  0.00000000000E+00  0.15177025415E+03  0.15177025415E+03  0.00000000000E+00 0. -1.
         -1   -1    0    0    0  501 -0.00000000000E+00 -0.00000000000E+00 -0.25265472472E+03  0.25265472472E+03  0.00000000000E+00 0.  1.
         25    2    1    2    0    0 -0.60367825286E+02 -0.13314662274E+02 -0.20674473170E+03  0.24942419820E+03  0.12508993565E+03 0.  0.
          5    1    3    3  502    0 -0.14806229494E+01 -0.25612419100E+02 -0.18264304410E+03  0.18448344700E+03  0.41800000000E+01 0.  1.
         -5    1    3    3    0  502 -0.58887202336E+02  0.12297756827E+02 -0.24101687597E+02  0.64940751205E+02  0.41800000000E+01 0.  1.
        -11    1    1    2    0    0 -0.24220960100E+02  0.17812853542E+01  0.41511786561E+02  0.48094244034E+02  0.00000000000E+00 0. -1.
         11    1    1    2    0    0  0.84588785386E+02  0.11533376919E+02  0.64348474568E+02  0.10690653664E+03  0.00000000000E+00 0.  1.
</event>
<event>
 7    1  0.2556591E-009  0.1019089E+03  0.7561462E-02  0.1276332E+00
          1   -1    0    0  501    0  0.00000000000E+00  0.00000000000E+00  0.93227448004E+03  0.93227448004E+03  0.00000000000E+00 0. -1.
         -1   -1    0    0    0  501 -0.00000000000E+00 -0.00000000000E+00 -0.13319913572E+02  0.13319913572E+02  0.00000000000E+00 0.  1.
         25    2    1    2    0    0 -0.19522506290E+02  0.12097978010E+02  0.57371359157E+03  0.58764103188E+03  0.12508879994E+03 0.  0.
          5    1    3    3  502    0 -0.69388145445E+02  0.21998613418E+02  0.26990361538E+03  0.27957841068E+03  0.41800000000E+01 0.  1.
         -5    1    3    3    0  502  0.49865639155E+02 -0.99006354083E+01  0.30380997619E+03  0.30806262120E+03  0.41800000000E+01 0.  1.
        -11    1    1    2    0    0  0.31689246718E+02 -0.39070273864E+02  0.29795954375E+03  0.30217641267E+03  0.00000000000E+00 0. -1.
         11    1    1    2    0    0 -0.12166740429E+02  0.26972295854E+02  0.47281431148E+02  0.55776949071E+02  0.00000000000E+00 0.  1.
</event>
<event>
 7    1  0.2556591E-009  0.1533494E+03  0.7561462E-02  0.1196417E+00
          2   -1    0    0  501    0  0.00000000000E+00  0.00000000000E+00  0.29167041264E+03  0.29167041264E+03  0.00000000000E+00 0. -1.
         -2   -1    0    0    0  501 -0.00000000000E+00 -0.00000000000E+00 -0.92901691473E+02  0.92901691473E+02  0.00000000000E+00 0.  1.
         25    2    1    2    0    0  0.89420753388E+02  0.75833869636E+02  0.15133450214E+03  0.22868450981E+03  0.12509047354E+03 0.  0.
          5    1    3    3  502    0 -0.98545707903E+01 -0.25885777523E+02  0.15399082583E+02  0.31965453036E+02  0.41800000000E+01 0.  1.
         -5    1    3    3    0  502  0.99275324178E+02  0.10171964716E+03  0.13593541956E+03  0.19671905678E+03  0.41800000000E+01 0.  1.
        -11    1    1    2    0    0 -0.72999096117E+02 -0.89238233518E+02  0.13778833146E+02  0.11611281841E+03  0.00000000000E+00 0.  1.
         11    1    1    2    0    0 -0.16421657270E+02  0.13404363882E+02  0.33655385877E+02  0.39774775890E+02  0.00000000000E+00 0. -1.
</event>
<event>
 7    1  0.2556591E-009  0.9413627E+02  0.7561462E-02  0.1293133E+00
         -2   -1    0    0    0  501 -0.00000000000E+00  0.00000000000E+00  0.24030983377E+03  0.24030983377E+03  0.00000000000E+00 0.  1.
          2   -1    0    0  501    0  0.00000000000E+00 -0.00000000000E+00 -0.67277549082E+02  0.67277549082E+02  0.00000000000E+00 0. -1.
         25    2    1    2    0    0 -0.23337430950E+02 -0.53287233918E+02  0.13316462997E+03  0.19173728179E+03  0.12508477754E+03 0.  0.
          5    1    3    3  502    0 -0.11938988402E+02 -0.81948359169E+02  0.13724065061E+03  0.16034507038E+03  0.41800000000E+01 0.  1.
         -5    1    3    3    0  502 -0.11398442548E+02  0.28661125251E+02 -0.40760206436E+01  0.31392211414E+02  0.41800000000E+01 0.  1.
        -11    1    1    2    0    0  0.28310545764E+02  0.90653830666E+01  0.60036024560E+02  0.66992480299E+02  0.00000000000E+00 0.  1.
         11    1    1    2    0    0 -0.49731148133E+01  0.44221850851E+02 -0.20168369846E+02  0.48857620756E+02  0.00000000000E+00 0. -1.
</event>
<event>
 7    1  0.2556591E-009  0.1245804E+03  0.7561462E-02  0.1235727E+00
          3   -1    0    0  501    0  0.00000000000E+00  0.00000000000E+00  0.63421077124E+03  0.63421077124E+03  0.00000000000E+00 0. -1.
         -3   -1    0    0    0  501 -0.00000000000E+00 -0.00000000000E+00 -0.52088883445E+02  0.52088883445E+02  0.00000000000E+00 0.  1.
         25    2    1    2    0    0 -0.43829522169E+02 -0.86630868894E+02  0.51163629898E+03  0.53557989675E+03  0.12509272125E+03 0.  0.
          5    1    3    3  502    0 -0.60367669223E+02 -0.60609594404E+02  0.49060481956E+03  0.49802443695E+03  0.41800000000E+01 0. -1.
         -5    1    3    3    0  502  0.16538147055E+02 -0.26021274491E+02  0.21031479414E+02  0.37555459796E+02  0.41800000000E+01 0. -1.
        -11    1    1    2    0    0  0.15508864796E+02 -0.18142017027E+02  0.19436791063E+02  0.30780619160E+02  0.00000000000E+00 0. -1.
         11    1    1    2    0    0  0.28320657373E+02  0.10477288592E+03  0.51048797750E+02  0.11993913877E+03  0.00000000000E+00 0.  1.
</event>
<event>
 7    1  0.2556591E-009  0.1245991E+03  0.7561462E-02  0.1235697E+00
          2   -1    0    0  501    0  0.00000000000E+00  0.00000000000E+00  0.41882826511E+03  0.41882826511E+03  0.00000000000E+00 0. -1.
         -2   -1    0    0    0  501 -0.00000000000E+00 -0.00000000000E+00 -0.39737432284E+02  0.39737432284E+02  0.00000000000E+00 0.  1.
         25    2    1    2    0    0 -0.78242307300E+01  0.64508894846E+02  0.17606986684E+03  0.22554666111E+03  0.12509229484E+03 0.  0.
          5    1    3    3  502    0 -0.16920785845E+01  0.10228791320E+03  0.13119434355E+03  0.16641847402E+03  0.41800000000E+01 0.  1.
         -5    1    3    3    0  502 -0.61321521455E+01 -0.37779018352E+02  0.44875523286E+02  0.59128187084E+02  0.41800000000E+01 0.  1.
        -11    1    1    2    0    0  0.37171411478E+02 -0.69237131261E+02  0.17641216079E+03  0.19312365120E+03  0.00000000000E+00 0.  1.
         11    1    1    2    0    0 -0.29347180748E+02  0.47282364147E+01  0.26608805191E+02  0.39895385085E+02  0.00000000000E+00 0. -1.
</event>
<event>
 7    1  0.2556591E-009  0.1221910E+03  0.7561462E-02  0.1239526E+00
         -1   -1    0    0    0  501 -0.00000000000E+00  0.00000000000E+00  0.84711573078E+02  0.84711573078E+02  0.00000000000E+00 0.  1.
          1   -1    0    0  501    0  0.00000000000E+00 -0.00000000000E+00 -0.21432236445E+03  0.21432236445E+03  0.00000000000E+00 0. -1.
         25    2    1    2    0    0 -0.33430252083E+02 -0.64434386815E+02 -0.10006327717E+03  0.17586870534E+03  0.12509104733E+03 0.  0.
          5    1    3    3  502    0  0.25494988930E+02 -0.75990695273E+02 -0.77539907285E+02  0.11159968571E+03  0.41800000000E+01 0.  1.
         -5    1    3    3    0  502 -0.58925241013E+02  0.11556308458E+02 -0.22523369881E+02  0.64269019632E+02  0.41800000000E+01 0.  1.
        -11    1    1    2    0    0 -0.23081726713E+02  0.29619997488E+02 -0.41232578802E+02  0.55769489095E+02  0.00000000000E+00 0. -1.
         11    1    1    2    0    0  0.56511978796E+02  0.34814389327E+02  0.11685064601E+02  0.67395743088E+02  0.00000000000E+00 0.  1.
</event>
<event>
 7    1  0.2556591E-009  0.9603113E+02  0.7561462E-02  0.1288870E+00
          1   -1    0    0  501    0  0.00000000000E+00  0.00000000000E+00  0.12103528504E+03  0.12103528504E+03  0.00000000000E+00 0. -1.
         -1   -1    0    0    0  501 -0.00000000000E+00 -0.00000000000E+00 -0.12842781479E+03  0.12842781479E+03  0.00000000000E+00 0.  1.
         25    2    1    2    0    0  0.56931235447E+02  0.70972189683E+01 -0.19364994338E+02  0.13896036547E+03  0.12507375456E+03 0.  0.
          5    1    3    3  502    0  0.88136282580E+02  0.18177815188E+01 -0.44021352451E+02  0.98623833369E+02  0.41800000000E+01 0.  1.
         -5    1    3    3    0  502 -0.31205047133E+02  0.52794374495E+01  0.24656358113E+02  0.40336532099E+02  0.41800000000E+01 0.  1.
        -11    1    1    2    0    0 -0.19624358215E+02 -0.23937255878E+02 -0.35976187867E+02  0.47459390512E+02  0.00000000000E+00 0.  1.
         11    1    1    2    0    0 -0.37306877232E+02  0.16840036910E+02  0.47948652454E+02  0.63043343853E+02  0.00000000000E+00 0. -1.
</event>
<event>
 7    1  0.2556591E-009  0.1248763E+03  0.7561462E-02  0.1235263E+00
          3   -1    0    0  501    0  0.00000000000E+00  0.00000000000E+00  0.41349033669E+03  0.41349033669E+03  0.00000000000E+00 0. -1.
         -3   -1    0    0    0  501 -0.00000000000E+00 -0.00000000000E+00 -0.43288259037E+02  0.43288259037E+02  0.00000000000E+00 0.  1.
         25    2    1    2    0    0  0.43834403793E+02 -0.10836917792E+02  0.24292842580E+03  0.27694719695E+03  0.12508651444E+03 0.  0.
          5    1    3    3  502    0  0.71657962379E+02 -0.43261398157E+02  0.19696305175E+03  0.21405216256E+03  0.41800000000E+01 0.  1.
         -5    1    3    3    0  502 -0.27823558586E+02  0.32424480365E+02  0.45965374057E+02  0.62895034395E+02  0.41800000000E+01 0.  1.
        -11    1    1    2    0    0  0.14418076989E+02 -0.41977130982E+02  0.68668702001E+02  0.81763996381E+02  0.00000000000E+00 0. -1.
         11    1    1    2    0    0 -0.58252480783E+02  0.52814048774E+02  0.58604949850E+02  0.98067402393E+02  0.00000000000E+00 0.  1.
</event>
<event>
 7    1  0.2677245E-009  0.1230301E+03  0.7561462E-02  0.1238180E+00
         -1   -1    0    0    0  501 -0.00000000000E+00  0.00000000000E+00  0.12221933350E+02  0.12221933350E+02  0.00000000000E+00 0.  1.
          1   -1    0    0  501    0  0.00000000000E+00 -0.00000000000E+00 -0.15070651525E+04  0.15070651525E+04  0.00000000000E+00 0. -1.
         25    2    1    2    0    0  0.55378102739E+00  0.77458377474E+02 -0.96056395229E+03  0.97176696194E+03  0.12509122656E+03 0.  0.
          5    1    3    3  502    0 -0.19167758747E+02 -0.21120828529E+02 -0.47570638380E+03  0.47657898439E+03  0.41800000000E+01 0. -1.
         -5    1    3    3    0  502  0.19721539775E+02  0.98579206003E+02 -0.48485756849E+03  0.49518797755E+03  0.41800000000E+01 0. -1.
        -11    1    1    2    0    0 -0.43076916914E+02 -0.49996443981E+02 -0.36165810962E+03  0.36763004969E+03  0.00000000000E+00 0.  1.
         11    1    1    2    0    0  0.42523135887E+02 -0.27461933493E+02 -0.17262115725E+03  0.17989007423E+03  0.00000000000E+00 0. -1.
</event>
<event>
 7    1  0.2556591E-009  0.1155156E+03  0.7561462E-02  0.1250684E+00
          1   -1    0    0  501    0  0.00000000000E+00  0.00000000000E+00  0.27525370657E+03  0.27525370657E+03  0.00000000000E+00 0. -1.
         -1   -1    0    0    0  501 -0.00000000000E+00 -0.00000000000E+00 -0.74757426297E+02  0.74757426297E+02  0.00000000000E+00 0.  1.
         25    2    1    2    0    0 -0.46125045187E+02 -0.72748853706E+02  0.15308642512E+03  0.21564480100E+03  0.12508921270E+03 0.  0.
          5    1    3    3  502    0 -0.13877864790E+02 -0.82799475000E+02  0.32127610219E+02  0.89988910038E+02  0.41800000000E+01 0.  1.
         -5    1    3    3    0  502 -0.32247180397E+02  0.10050621294E+02  0.12095881490E+03  0.12565589096E+03  0.41800000000E+01 0.  1.
        -11    1    1    2    0    0 -0.15991535212E+01  0.64483560326E+02  0.55703726251E+02  0.85226709209E+02  0.00000000000E+00 0. -1.
         11    1    1    2    0    0  0.47724198708E+02  0.82652933797E+01 -0.82938710978E+01  0.49139622656E+02  0.00000000000E+00 0.  1.
</event>
<event>
 7    1  0.2556591E-009  0.1261051E+03  0.7561462E-02  0.1233352E+00
          3   -1    0    0  501    0  0.00000000000E+00  0.00000000000E+00  0.61269784307E+03  0.61269784307E+03  0.00000000000E+00 0. -1.
         -3   -1    0    0    0  501 -0.00000000000E+00 -0.00000000000E+00 -0.32001655221E+02  0.32001655221E+02  0.00000000000E+00 0.  1.
         25    2    1    2    0    0 -0.73285303884E+02  0.47388752793E+02  0.30179726550E+03  0.33815043752E+03  0.12509076415E+03 0.  0.
          5    1    3    3  502    0 -0.54464337388E+02 -0.21340510366E+02  0.22822950158E+03  0.23564371246E+03  0.41800000000E+01 0.  1.
         -5    1    3    3    0  502 -0.18820966496E+02  0.68729263159E+02  0.73567763915E+02  0.10250672506E+03  0.41800000000E+01 0.  1.
        -11    1    1    2    0    0  0.71675033390E+02 -0.69603602785E+02  0.25503126345E+03  0.27390311657E+03  0.00000000000E+00 0. -1.
         11    1    1    2    0    0  0.16102704948E+01  0.22214849992E+02  0.23867658898E+02  0.32645944197E+02  0.00000000000E+00 0.  1.
</event>
<event>
 7    1  0.2556591E-009  0.5827456E+02  0.7561462E-02  0.1405219E+00
         -1   -1    0    0    0  501 -0.00000000000E+00  0.00000000000E+00  0.43359681339E+03  0.43359681339E+03  0.00000000000E+00 0.  1.
          1   -1    0    0  501    0  0.00000000000E+00 -0.00000000000E+00 -0.37972624427E+02  0.37972624427E+02  0.00000000000E+00 0. -1.
         25    2    1    2    0    0  0.10236019770E+02  0.73201286702E+01  0.34365460368E+03  0.36593302628E+03  0.12510049042E+03 0.  0.
          5    1    3    3  502    0 -0.31249672933E+01  0.29519665361E+02  0.33769086128E+03  0.33901882876E+03  0.41800000000E+01 0. -1.
         -5    1    3    3    0  502  0.13360987064E+02 -0.22199536690E+02  0.59637424067E+01  0.26914197519E+02  0.41800000000E+01 0. -1.
        -11    1    1    2    0    0 -0.32980801516E+02  0.66353752968E+01 -0.12479207866E+02  0.35881640193E+02  0.00000000000E+00 0. -1.
         11    1    1    2    0    0  0.22744781746E+02 -0.13955503967E+02  0.64448793144E+02  0.69754771345E+02  0.00000000000E+00 0.  1.
</event>
<event>
 7    1  0.2556591E-009  0.1071868E+03  0.7561462E-02  0.1265870E+00
         -1   -1    0    0    0  501 -0.00000000000E+00  0.00000000000E+00  0.72181186925E+02  0.72181186925E+02  0.00000000000E+00 0.  1.
          1   -1    0    0  501    0  0.00000000000E+00 -0.00000000000E+00 -0.22736431288E+03  0.22736431288E+03  0.00000000000E+00 0. -1.
         25    2    1    2    0    0 -0.33958346525E+02  0.45203723444E+02 -0.42112074487E+02  0.14358762744E+03  0.12508970391E+03 0.  0.
          5    1    3    3  502    0  0.47311924628E+02  0.13388364377E+02 -0.21417297232E+02  0.53794419166E+02  0.41800000000E+01 0.  1.
         -5    1    3    3    0  502 -0.81270271153E+02  0.31815359067E+02 -0.20694777256E+02  0.89793208271E+02  0.41800000000E+01 0.  1.
        -11    1    1    2    0    0  0.64322434778E+01 -0.49390799323E+02 -0.11763354793E+03  0.12774379207E+03  0.00000000000E+00 0.  1.
         11    1    1    2    0    0  0.27526103047E+02  0.41870758788E+01  0.45624964579E+01  0.28214080302E+02  0.00000000000E+00 0. -1.
</event>
<event>
 7    1  0.2556591E-009  0.2406132E+03  0.7561462E-02  0.1119385E+00
          2   -1    0    0  501    0  0.00000000000E+00  0.00000000000E+00  0.91504818726E+03  0.91504818726E+03  0.00000000000E+00 0. -1.
         -2   -1    0    0    0  501 -0.00000000000E+00 -0.00000000000E+00 -0.10869608155E+03  0.10869608155E+03  0.00000000000E+00 0.  1.
         25    2    1    2    0    0  0.21213307099E+03 -0.56911056584E+02  0.73277954904E+03  0.77514711136E+03  0.12509144088E+03 0.  0.
          5    1    3    3  502    0  0.21815621932E+03 -0.24682419746E+02  0.62862451906E+03  0.66587357376E+03  0.41800000000E+01 0. -1.
         -5    1    3    3    0  502 -0.60231483239E+01 -0.32228636838E+02  0.10415502998E+03  0.10927353760E+03  0.41800000000E+01 0. -1.
        -11    1    1    2    0    0 -0.86256660824E+02 -0.85980380858E+01 -0.41884775031E+01  0.86785258767E+02  0.00000000000E+00 0.  1.
         11    1    1    2    0    0 -0.12587641017E+03  0.65509094670E+02  0.77761034163E+02  0.16181189868E+03  0.00000000000E+00 0. -1.
</event>
<event>
 7    1  0.2556591E-009  0.1457798E+03  0.7561462E-02  0.1205757E+00
          1   -1    0    0  501    0  0.00000000000E+00  0.00000000000E+00  0.25589693473E+03  0.25589693473E+03  0.00000000000E+00 0. -1.
         -1   -1    0    0    0  501 -0.00000000000E+00 -0.00000000000E+00 -0.86295636072E+02  0.86295636072E+02  0.00000000000E+00 0.  1.
         25    2    1    2    0    0 -0.99860885858E+02 -0.20327982181E+02  0.10402875442E+03  0.19197652285E+03  0.12509028817E+03 0.  0.
          5    1    3    3  502    0 -0.11398830295E+03  0.19028399558E+02  0.57060228160E+02  0.12895253094E+03  0.41800000000E+01 0.  1.
         -5    1    3    3    0  502  0.14127417088E+02 -0.39356381739E+02  0.46968526257E+02  0.63023991907E+02  0.41800000000E+01 0.  1.
        -11    1    1    2    0    0  0.27030795527E+02 -0.33708347275E+02  0.30930327898E+02  0.53137573964E+02  0.00000000000E+00 0. -1.
         11    1    1    2    0    0  0.72830090331E+02  0.54036329457E+02  0.34642216339E+02  0.97078473987E+02  0.00000000000E+00 0.  1.
</event>
<event>
 7    1  0.2556591E-009  0.1193571E+03  0.7561462E-02  0.1244161E+00
          1   -1    0    0  501    0  0.00000000000E+00  0.00000000000E+00  0.97625867100E+03  0.97625867100E+03  0.00000000000E+00 0. -1.
         -1   -1    0    0    0  501 -0.00000000000E+00 -0.00000000000E+00 -0.20972064650E+02  0.20972064650E+02  0.00000000000E+00 0.  1.
         25    2    1    2    0    0 -0.24497875970E+02  0.70309781992E+02  0.71007552036E+03  0.72484344259E+03  0.12508860969E+03 0.  0.
          5    1    3    3  502    0  0.32078022760E+02  0.61860017787E+02  0.20581345356E+03  0.21732995977E+03  0.41800000000E+01 0. -1.
         -5    1    3    3    0  502 -0.56575898730E+02  0.84497642045E+01  0.50426206680E+03  0.50751348282E+03  0.41800000000E+01 0. -1.
        -11    1    1    2    0    0  0.55502841932E+02 -0.42582819474E+02  0.19509933550E+03  0.20726218345E+03  0.00000000000E+00 0.  1.
         11    1    1    2    0    0 -0.31004965961E+02 -0.27726962518E+02  0.50111750484E+02  0.65125109606E+02  0.00000000000E+00 0. -1.
</event>
<event>
 7    1  0.2556591E-009  0.1127480E+03  0.7561462E-02  0.1255564E+00
          1   -1    0    0  501    0  0.00000000000E+00  0.00000000000E+00  0.38324580019E+03  0.38324580019E+03  0.00000000000E+00 0. -1.
         -1   -1    0    0    0  501 -0.00000000000E+00 -0.00000000000E+00 -0.45271848400E+02  0.45271848400E+02  0.00000000000E+00 0.  1.
         25    2    1    2    0    0  0.47900533963E+02  0.17809611094E+02  0.27649060777E+03  0.30775009945E+03  0.12510565185E+03 0.  0.
          5    1    3    3  502    0  0.28292669811E+02  0.71903492864E+02  0.15352437694E+03  0.17192380337E+03  0.41800000000E+01 0.  1.
         -5    1    3    3    0  502  0.19607864152E+02 -0.54093881771E+02  0.12296623083E+03  0.13582629608E+03  0.41800000000E+01 0.  1.
        -11    1    1    2    0    0 -0.13153861068E+02  0.29165474149E+02 -0.48612260015E+01  0.32361712896E+02  0.00000000000E+00 0.  1.
         11    1    1    2    0    0 -0.34746672894E+02 -0.46975085243E+02  0.66344570021E+02  0.88405836244E+02  0.00000000000E+00 0. -1.
</event>
<event>
 7    1  0.2556591E-009  0.1069710E+03  0.7561462E-02  0.1266284E+00
         -2   -1    0    0    0  501 -0.00000000000E+00  0.00000000000E+00  0.39314405971E+02  0.39314405971E+02  0.00000000000E+00 0. -1.
          2   -1    0    0  501    0  0.00000000000E+00 -0.00000000000E+00 -0.51148197054E+03  0.51148197054E+03  0.00000000000E+00 0.  1.
         25    2    1    2    0    0 -0.86094984157E+02  0.16916862456E+01 -0.31902424188E+03  0.35332931454E+03  0.12509967829E+03 0.  0.
          5    1    3    3  502    0 -0.26454748000E+01  0.36688409854E+01  0.11151819632E+02  0.12739482415E+02  0.41800000000E+01 0.  1.
         -5    1    3    3    0  502 -0.83449509357E+02 -0.19771547398E+01 -0.33017606151E+03  0.34058983213E+03  0.41800000000E+01 0.  1.
        -11    1    1    2    0    0  0.29191304120E+01 -0.34624546732E+02 -0.50663896528E+02  0.61434607268E+02  0.00000000000E+00 0.  1.
         11    1    1    2    0    0  0.83175853745E+02  0.32932860486E+02 -0.10247942616E+03  0.13603245470E+03  0.00000000000E+00 0. -1.
</event>
<event>
 7    1  0.2556591E-009  0.1041108E+03  0.7561462E-02  0.1271882E+00
         -2   -1    0    0    0  501 -0.00000000000E+00  0.00000000000E+00  0.35393113430E+02  0.35393113430E+02  0.00000000000E+00 0.  1.
          2   -1    0    0  501    0  0.00000000000E+00 -0.00000000000E+00 -0.50515323479E+03  0.50515323479E+03  0.00000000000E+00 0. -1.
         25    2    1    2    0    0 -0.16394823574E+02  0.70800499378E+02 -0.31936812997E+03  0.35060780330E+03  0.12509327856E+03 0.  0.
          5    1    3    3  502    0 -0.27399442519E+02 -0.25352497036E+02 -0.39773401643E+02  0.54707169864E+02  0.41800000000E+01 0. -1.
         -5    1    3    3    0  502  0.11004618944E+02  0.96152996414E+02 -0.27959472833E+03  0.29590063343E+03  0.41800000000E+01 0. -1.
        -11    1    1    2    0    0  0.89657991961E+00 -0.31917827004E+02 -0.14411864009E+03  0.14761346130E+03  0.00000000000E+00 0. -1.
         11    1    1    2    0    0  0.15498243655E+02 -0.38882672374E+02 -0.62733513058E+01  0.42325083626E+02  0.00000000000E+00 0.  1.
</event>
<event>
 7    1  0.2997913E-009  0.1333873E+03  0.7561462E-02  0.1222514E+00
         -2   -1    0    0    0  501 -0.00000000000E+00  0.00000000000E+00  0.38454180675E+02  0.38454180675E+02  0.00000000000E+00 0. -1.
          2   -1    0    0  501    0  0.00000000000E+00 -0.00000000000E+00 -0.52827118898E+03  0.52827118898E+03  0.00000000000E+00 0.  1.
         25    2    1    2    0    0 -0.85800124643E+02 -0.20836766050E+02 -0.21403917920E+03  0.26316705079E+03  0.12509314201E+03 0.  0.
          5    1    3    3  502    0 -0.82489445549E+02  0.30770761599E+02 -0.78472622865E+02  0.11801175084E+03  0.41800000000E+01 0. -1.
         -5    1    3    3    0  502 -0.33106790938E+01 -0.51607527649E+02 -0.13556655634E+03  0.14515529995E+03  0.41800000000E+01 0. -1.
        -11    1    1    2    0    0  0.61561992004E+02  0.56547896101E+02 -0.18783204305E+03  0.20559284961E+03  0.00000000000E+00 0.  1.
         11    1    1    2    0    0  0.24238132639E+02 -0.35711130052E+02 -0.87945786049E+02  0.97965469259E+02  0.00000000000E+00 0. -1.
</event>
<event>
 7    1  0.2556591E-009  0.9433033E+02  0.7561462E-02  0.1292692E+00
          1   -1    0    0  501    0  0.00000000000E+00  0.00000000000E+00  0.80450534014E+03  0.80450534014E+03  0.00000000000E+00 0. -1.
         -1   -1    0    0    0  501 -0.00000000000E+00 -0.00000000000E+00 -0.18678777058E+02  0.18678777058E+02  0.00000000000E+00 0.  1.
         25    2    1    2    0    0  0.42645144364E+02 -0.30028375894E+02  0.48731324122E+03  0.50580845083E+03  0.12509069573E+03 0.  0.
          5    1    3    3  502    0 -0.34767702061E+02 -0.18521401028E+02  0.30222527693E+03  0.30481047524E+03  0.41800000000E+01 0. -1.
         -5    1    3    3    0  502  0.77412846425E+02 -0.11506974866E+02  0.18508796430E+03  0.20099797559E+03  0.41800000000E+01 0. -1.
        -11    1    1    2    0    0 -0.84152564053E+01 -0.13124561066E+02  0.19168852488E+01  0.15708121867E+02  0.00000000000E+00 0.  1.
         11    1    1    2    0    0 -0.34229887959E+02  0.43152936960E+02  0.29659643660E+03  0.30166754450E+03  0.00000000000E+00 0. -1.
</event>
<event>
 7    1  0.2556591E-009  0.1838725E+03  0.7561462E-02  0.1164107E+00
          2   -1    0    0  501    0  0.00000000000E+00  0.00000000000E+00  0.85409738254E+03  0.85409738254E+03  0.00000000000E+00 0.  1.
         -2   -1    0    0    0  501 -0.00000000000E+00 -0.00000000000E+00 -0.43594205816E+02  0.43594205816E+02  0.00000000000E+00 0. -1.
         25    2    1    2    0    0  0.14248678175E+03  0.45286867356E+02  0.51699821637E+03  0.55252881625E+03  0.12509018240E+03 0.  0.
          5    1    3    3  502    0 -0.79521958732E+01 -0.26417488789E+02  0.86015646859E+02  0.90428342005E+02  0.41800000000E+01 0.  1.
         -5    1    3    3    0  502  0.15043897763E+03  0.71704356145E+02  0.43098256951E+03  0.46210047425E+03  0.41800000000E+01 0.  1.
        -11    1    1    2    0    0 -0.59517962242E+02  0.24846910961E+02  0.16337344879E+03  0.17564350425E+03  0.00000000000E+00 0. -1.
         11    1    1    2    0    0 -0.82968819513E+02 -0.70133778317E+02  0.13013151156E+03  0.16951926785E+03  0.00000000000E+00 0.  1.
</event>
<event>
 7    1  0.2556591E-009  0.1002731E+03  0.7561462E-02  0.1279723E+00
          1   -1    0    0  501    0  0.00000000000E+00  0.00000000000E+00  0.61198486549E+03  0.61198486549E+03  0.00000000000E+00 0. -1.
         -1   -1    0    0    0  501 -0.00000000000E+00 -0.00000000000E+00 -0.19219398623E+02  0.19219398623E+02  0.00000000000E+00 0.  1.
         25    2    1    2    0    0  0.33893701784E+01 -0.91034926369E+01  0.36402832754E+03  0.38504380625E+03  0.12509095921E+03 0.  0.
          5    1    3    3  502    0  0.22477495666E+02  0.46941363243E+02  0.26073991209E+03  0.26591634690E+03  0.41800000000E+01 0.  1.
         -5    1    3    3    0  502 -0.19088125487E+02 -0.56044855880E+02  0.10328841545E+03  0.11912745935E+03  0.41800000000E+01 0.  1.
        -11    1    1    2    0    0 -0.45241191239E+02  0.12653261391E+02  0.14601326585E+03  0.15338430237E+03  0.00000000000E+00 0.  1.
         11    1    1    2    0    0  0.41851821061E+02 -0.35497687544E+01  0.82723873474E+02  0.92776155487E+02  0.00000000000E+00 0. -1.
</event>
<event>
 7    1  0.2556591E-009  0.1019153E+03  0.7561462E-02  0.1276319E+00
         -1   -1    0    0    0  501 -0.00000000000E+00  0.00000000000E+00  0.95854198419E+02  0.95854198419E+02  0.00000000000E+00 0.  1.
          1   -1    0    0  501    0  0.00000000000E+00 -0.00000000000E+00 -0.31269589922E+03  0.31269589922E+03  0.00000000000E+00 0. -1.
         25    2    1    2    0    0  0.59081056409E+01 -0.58260511686E+02  0.27353695394E+02  0.14079940099E+03  0.12508818383E+03 0.  0.
          5    1    3    3  502    0 -0.85783242728E+01 -0.74677276620E+02 -0.28627594751E+02  0.80543745082E+02  0.41800000000E+01 0.  1.
         -5    1    3    3    0  502  0.14486429914E+02  0.16416764933E+02  0.55981290144E+02  0.60255655907E+02  0.41800000000E+01 0.  1.
        -11    1    1    2    0    0 -0.42847749170E+02  0.54204629429E+02 -0.18879126601E+03  0.20103784117E+03  0.00000000000E+00 0. -1.
         11    1    1    2    0    0  0.36939643529E+02  0.40558822570E+01 -0.55404130181E+02  0.66712855478E+02  0.00000000000E+00 0.  1.
</event>
<event>
 7    1  0.2556591E-009  0.6616278E+02  0.7561462E-02  0.1373650E+00
         -1   -1    0    0    0  501 -0.00000000000E+00  0.00000000000E+00  0.27718682512E+02  0.27718682512E+02  0.00000000000E+00 0.  1.
          1   -1    0    0  501    0  0.00000000000E+00 -0.00000000000E+00 -0.43002630368E+03  0.43002630368E+03  0.00000000000E+00 0. -1.
         25    2    1    2    0    0  0.18156025562E+00  0.83036812184E+01 -0.28620911482E+03  0.31245342194E+03  0.12506997797E+03 0.  0.
          5    1    3    3  502    0 -0.28102482389E+02  0.61616537134E+01 -0.28197660284E+03  0.28347132561E+03  0.41800000000E+01 0. -1.
         -5    1    3    3    0  502  0.28284042644E+02  0.21420275050E+01 -0.42325119812E+01  0.28982096332E+02  0.41800000000E+01 0. -1.
        -11    1    1    2    0    0  0.33530830154E+02 -0.19827608114E+02 -0.97730253457E+02  0.10520766633E+03  0.00000000000E+00 0. -1.
         11    1    1    2    0    0 -0.33712390410E+02  0.11523926896E+02 -0.18368252890E+02  0.40083897920E+02  0.00000000000E+00 0.  1.
</event>
<event>
 7    1  0.2556591E-009  0.1087084E+03  0.7561462E-02  0.1262981E+00
          1   -1    0    0  501    0  0.00000000000E+00  0.00000000000E+00  0.26704670984E+03  0.26704670984E+03  0.00000000000E+00 0. -1.
         -1   -1    0    0    0  501 -0.00000000000E+00 -0.00000000000E+00 -0.69935290399E+02  0.69935290399E+02  0.00000000000E+00 0.  1.
         25    2    1    2    0    0  0.32149036667E+02  0.53228420311E+02  0.18045363758E+03  0.22820624067E+03  0.12509095762E+03 0.  0.
          5    1    3    3  502    0 -0.29609206563E+02  0.33894025789E+02  0.14981310758E+03  0.15648306522E+03  0.41800000000E+01 0.  1.
         -5    1    3    3    0  502  0.61758243229E+02  0.19334394521E+02  0.30640530002E+02  0.71723175453E+02  0.41800000000E+01 0.  1.
        -11    1    1    2    0    0  0.20986143622E+02 -0.49895074917E+02  0.57841294681E+01  0.54437054281E+02  0.00000000000E+00 0.  1.
         11    1    1    2    0    0 -0.53135180289E+02 -0.33333453934E+01  0.10873652392E+02  0.54338705286E+02  0.00000000000E+00 0. -1.
</event>
<event>
 7    1  0.2556591E-009  0.1339936E+03  0.7561462E-02  0.1221647E+00
          1   -1    0    0  501    0  0.00000000000E+00  0.00000000000E+00  0.73523556153E+03  0.73523556153E+03  0.00000000000E+00 0. -1.
         -1   -1    0    0    0  501 -0.00000000000E+00 -0.00000000000E+00 -0.25502779983E+02  0.25502779983E+02  0.00000000000E+00 0.  1.
         25    2    1    2    0    0 -0.16843403488E+02  0.79245780168E+02  0.43619289879E+03  0.46095062984E+03  0.12509054435E+03 0.  0.
          5    1    3    3  502    0 -0.11765252164E+02 -0.31985439894E+02  0.14887123863E+03  0.15277960471E+03  0.41800000000E+01 0. -1.
         -5    1    3    3    0  502 -0.50781513241E+01  0.11123122006E+03  0.28732166015E+03  0.30817102513E+03  0.41800000000E+01 0. -1.
        -11    1    1    2    0    0 -0.21021615048E+02 -0.81622588063E+02  0.17641650080E+03  0.19551710139E+03  0.00000000000E+00 0. -1.
         11    1    1    2    0    0  0.37865018536E+02  0.23768078955E+01  0.97123381960E+02  0.10427061028E+03  0.00000000000E+00 0.  1.
</event>
<event>
 7    1  0.2556591E-009  0.2341571E+03  0.7561462E-02  0.1123748E+00
          1   -1    0    0  501    0  0.00000000000E+00  0.00000000000E+00  0.69012286352E+02  0.69012286352E+02  0.00000000000E+00 0. -1.
         -1   -1    0    0    0  501 -0.00000000000E+00 -0.00000000000E+00 -0.14523320192E+04  0.14523320192E+04  0.00000000000E+00 0.  1.
         25    2    1    2    0    0 -0.20885739569E+03  0.56761006335E+02 -0.11930166162E+04  0.12189254990E+04  0.12508997568E+03 0.  0.
          5    1    3    3  502    0  0.95810077176E+01  0.16753440967E+02 -0.38842257172E+02  0.43573694305E+02  0.41800000000E+01 0.  1.
         -5    1    3    3    0  502 -0.21843840341E+03  0.40007565368E+02 -0.11541743590E+04  0.11753518047E+04  0.41800000000E+01 0.  1.
        -11    1    1    2    0    0  0.96446553621E+02  0.79084951138E+01 -0.42228654979E+02  0.10558286462E+03  0.00000000000E+00 0.  1.
         11    1    1    2    0    0  0.11241084207E+03 -0.64669501449E+02 -0.14807446163E+03  0.19683594189E+03  0.00000000000E+00 0. -1.
</event>
<event>
 7    1  0.2556591E-009  0.8140143E+02  0.7561462E-02  0.1325121E+00
         -2   -1    0    0    0  501 -0.00000000000E+00  0.00000000000E+00  0.21811720884E+02  0.21811720884E+02  0.00000000000E+00 0. -1.
          2   -1    0    0  501    0  0.00000000000E+00 -0.00000000000E+00 -0.65163224446E+03  0.65163224446E+03  0.00000000000E+00 0.  1.
         25    2    1    2    0    0 -0.42363508991E+02  0.18768971394E+02 -0.40773506739E+03  0.42900209631E+03  0.12509185534E+03 0.  0.
          5    1    3    3  502    0 -0.97974157918E+01 -0.12189170546E+02  0.24239548082E+01  0.16368053999E+02  0.41800000000E+01 0.  1.
         -5    1    3    3    0  502 -0.32566093199E+02  0.30958141940E+02 -0.41015902220E+03  0.41263404231E+03  0.41800000000E+01 0.  1.
        -11    1    1    2    0    0  0.82313896643E+01 -0.52712629952E+02 -0.13030251551E+03  0.14080171405E+03  0.00000000000E+00 0.  1.
         11    1    1    2    0    0  0.34132119326E+02  0.33943658558E+02 -0.91782940666E+02  0.10364015498E+03  0.00000000000E+00 0. -1.
</event>
<event>
 7    1  0.2556591E-009  0.1657943E+03  0.7561462E-02  0.1182306E+00
          2   -1    0    0  501    0  0.00000000000E+00  0.00000000000E+00  0.14731643416E+04  0.14731643416E+04  0.00000000000E+00 0. -1.
         -2   -1    0    0    0  501 -0.00000000000E+00 -0.00000000000E+00 -0.21360187371E+02  0.21360187371E+02  0.00000000000E+00 0.  1.
         25    2    1    2    0    0  0.10967834584E+03  0.80291774994E+02  0.88353956977E+03  0.90264386995E+03  0.12509067086E+03 0.  0.
          5    1    3    3  502    0  0.13089666041E+03  0.68925383462E+02  0.83797050830E+03  0.85093871071E+03  0.41800000000E+01 0.  1.
         -5    1    3    3    0  502 -0.21218314573E+02  0.11366391532E+02  0.45569061464E+02  0.51705159245E+02  0.41800000000E+01 0.  1.
        -11    1    1    2    0    0 -0.54643698337E+02 -0.88006618243E+02  0.44114373222E+03  0.45314334498E+03  0.00000000000E+00 0. -1.
         11    1    1    2    0    0 -0.55034647499E+02  0.77148432487E+01  0.12712085220E+03  0.13873731400E+03  0.00000000000E+00 0.  1.
</event>
<event>
 7    1  0.2556591E-009  0.7432659E+02  0.7561462E-02  0.1345969E+00
          1   -1    0    0  501    0  0.00000000000E+00  0.00000000000E+00  0.46832981122E+03  0.46832981122E+03  0.00000000000E+00 0. -1.
         -1   -1    0    0    0  501 -0.00000000000E+00 -0.00000000000E+00 -0.31865106221E+02  0.31865106221E+02  0.00000000000E+00 0.  1.
         25    2    1    2    0    0 -0.10570294340E+02  0.11976142693E+02  0.35105654232E+03  0.37302006052E+03  0.12509240796E+03 0.  0.
          5    1    3    3  502    0 -0.32091777122E+02  0.38481035672E+02  0.53263842165E+02  0.73247399595E+02  0.41800000000E+01 0. -1.
         -5    1    3    3    0  502  0.21521482783E+02 -0.26504892979E+02  0.29779270015E+03  0.29977266092E+03  0.41800000000E+01 0. -1.
        -11    1    1    2    0    0 -0.23938681194E+02 -0.16638411641E+02 -0.56410564241E+01  0.29693748784E+02  0.00000000000E+00 0.  1.
         11    1    1    2    0    0  0.34508975534E+02  0.46622689479E+01  0.91049219105E+02  0.97481108137E+02  0.00000000000E+00 0. -1.
</event>
<event>
 7    1  0.2556591E-009  0.1406342E+03  0.7561462E-02  0.1212478E+00
         -2   -1    0    0    0  501 -0.00000000000E+00  0.00000000000E+00  0.16035340359E+03  0.16035340359E+03  0.00000000000E+00 0. -1.
          2   -1    0    0  501    0  0.00000000000E+00 -0.00000000000E+00 -0.38896747580E+03  0.38896747580E+03  0.00000000000E+00 0.  1.
         25    2    1    2    0    0  0.87252001727E+02  0.33183914071E+02  0.92245390562E+02  0.18129790235E+03  0.12508250621E+03 0.  0.
          5    1    3    3  502    0  0.38489628776E+01 -0.37651468129E+02  0.52390425347E+02  0.64766323314E+02  0.41800000000E+01 0. -1.
         -5    1    3    3    0  502  0.83403038849E+02  0.70835382201E+02  0.39854965215E+02  0.11653157904E+03  0.41800000000E+01 0. -1.
        -11    1    1    2    0    0 -0.62375514722E+01  0.30190934466E+02  0.26296229723E+00  0.30829672743E+02  0.00000000000E+00 0. -1.
         11    1    1    2    0    0 -0.81014450255E+02 -0.63374848537E+02 -0.32112242507E+03  0.33719330429E+03  0.00000000000E+00 0.  1.
</event>
<event>
 7    1  0.2556591E-009  0.1238032E+03  0.7561462E-02  0.1236952E+00
         -1   -1    0    0    0  501 -0.00000000000E+00  0.00000000000E+00  0.17159291935E+03  0.17159291935E+03  0.00000000000E+00 0.  1.
          1   -1    0    0  501    0  0.00000000000E+00 -0.00000000000E+00 -0.13664961125E+03  0.13664961125E+03  0.00000000000E+00 0. -1.
         25    2    1    2    0    0 -0.75893159905E-01 -0.80955404542E+02 -0.32835409411E+02  0.15259194557E+03  0.12510936999E+03 0.  0.
          5    1    3    3  502    0 -0.33003750450E+02 -0.22027075646E+02  0.37684181649E+02  0.54881777958E+02  0.41800000000E+01 0. -1.
         -5    1    3    3    0  502  0.32927857290E+02 -0.58928328896E+02 -0.70519591059E+02  0.97710167615E+02  0.41800000000E+01 0. -1.
        -11    1    1    2    0    0 -0.27602068942E+02  0.10176780190E+03  0.49329999843E+02  0.11641309462E+03  0.00000000000E+00 0. -1.
         11    1    1    2    0    0  0.27677962102E+02 -0.20812397363E+02  0.18448717661E+02  0.39237490407E+02  0.00000000000E+00 0.  1.
</event>
<event>
 7    1  0.2556591E-009  0.1223211E+03  0.7561462E-02  0.1239316E+00
         -1   -1    0    0    0  501 -0.00000000000E+00  0.00000000000E+00  0.34961279528E+03  0.34961279528E+03  0.00000000000E+00 0.  1.
          1   -1    0    0  501    0  0.00000000000E+00 -0.00000000000E+00 -0.79353756776E+02  0.79353756776E+02  0.00000000000E+00 0. -1.
         25    2    1    2    0    0  0.12625924794E+02  0.10843685038E+03  0.62235438336E+02  0.17730929005E+03  0.12508944823E+03 0.  0.
          5    1    3    3  502    0 -0.13050396836E+02  0.20333426473E+02 -0.35521391859E+02  0.43162515790E+02  0.41800000000E+01 0. -1.
         -5    1    3    3    0  502  0.25676321630E+02  0.88103423902E+02  0.97756830194E+02  0.13414677426E+03  0.41800000000E+01 0. -1.
        -11    1    1    2    0    0 -0.30256458756E+02 -0.10627210433E+03  0.12535584676E+03  0.16710266835E+03  0.00000000000E+00 0. -1.
         11    1    1    2    0    0  0.17630533962E+02 -0.21647460502E+01  0.82667753414E+02  0.84554593653E+02  0.00000000000E+00 0.  1.
</event>
<event>
 7    1  0.2556591E-009  0.2425008E+03  0.7561462E-02  0.1118138E+00
          2   -1    0    0  501    0  0.00000000000E+00  0.00000000000E+00  0.11043153695E+04  0.11043153695E+04  0.00000000000E+00 0.  1.
         -2   -1    0    0    0  501 -0.00000000000E+00 -0.00000000000E+00 -0.55357201125E+02  0.55357201125E+02  0.00000000000E+00 0. -1.
         25    2    1    2    0    0  0.13931978753E+03  0.17000309074E+03  0.61593537862E+03  0.66583418961E+03  0.12509086041E+03 0.  0.
          5    1    3    3  502    0  0.64321671419E+02  0.16036702897E+03  0.36752259193E+03  0.40613444742E+03  0.41800000000E+01 0.  1.
         -5    1    3    3    0  502  0.74998116112E+02  0.96360617719E+01  0.24841278669E+03  0.25969974220E+03  0.41800000000E+01 0.  1.
        -11    1    1    2    0    0 -0.62901583319E+02 -0.16604665501E+02  0.99881900050E+02  0.11920032742E+03  0.00000000000E+00 0.  1.
         11    1    1    2    0    0 -0.76418204212E+02 -0.15339842524E+03  0.33314088967E+03  0.37463805356E+03  0.00000000000E+00 0. -1.
</event>
<event>
 7    1  0.2556591E-009  0.8314030E+02  0.7561462E-02  0.1320369E+00
          3   -1    0    0  501    0  0.00000000000E+00  0.00000000000E+00  0.72329808546E+02  0.72329808546E+02  0.00000000000E+00 0. -1.
         -3   -1    0    0    0  501 -0.00000000000E+00 -0.00000000000E+00 -0.21119210789E+03  0.21119210789E+03  0.00000000000E+00 0.  1.
         25    2    1    2    0    0  0.22993112013E+02  0.13437537755E+02 -0.13176697043E+03  0.18362938032E+03  0.12509182307E+03 0.  0.
          5    1    3    3  502    0 -0.82965176939E+01  0.64044740840E+02 -0.47003134487E+02  0.79983298799E+02  0.41800000000E+01 0.  1.
         -5    1    3    3    0  502  0.31289629707E+02 -0.50607203085E+02 -0.84763835941E+02  0.10364608152E+03  0.41800000000E+01 0.  1.
        -11    1    1    2    0    0 -0.18320246944E+02  0.79914621408E+01 -0.48820835161E+02  0.52753851623E+02  0.00000000000E+00 0.  1.
         11    1    1    2    0    0 -0.46728650690E+01 -0.21428999896E+02  0.41725506245E+02  0.47138684494E+02  0.00000000000E+00 0. -1.
</event>
<event>
 7    1  0.2556591E-009  0.1233625E+03  0.7561462E-02  0.1237651E+00
          2   -1    0    0  501    0  0.00000000000E+00  0.00000000000E+00  0.67822792819E+03  0.67822792819E+03  0.00000000000E+00 0. -1.
         -2   -1    0    0    0  501 -0.00000000000E+00 -0.00000000000E+00 -0.25390775518E+02  0.25390775518E+02  0.00000000000E+00 0.  1.
         25    2    1    2    0    0 -0.31991516553E+02  0.62009179823E+02  0.29462418156E+03  0.32759697605E+03  0.12509106621E+03 0.  0.
          5    1    3    3  502    0 -0.76433593907E+02  0.47678449893E+02  0.14458971828E+03  0.17040829761E+03  0.41800000000E+01 0. -1.
         -5    1    3    3    0  502  0.44442077353E+02  0.14330729930E+02  0.15003446327E+03  0.15718867844E+03  0.41800000000E+01 0. -1.
        -11    1    1    2    0    0  0.49297375291E+02 -0.73777971231E+02  0.32386150188E+03  0.33579710042E+03  0.00000000000E+00 0. -1.
         11    1    1    2    0    0 -0.17305858738E+02  0.11768791409E+02  0.34351469231E+02  0.40224627235E+02  0.00000000000E+00 0.  1.
</event>
<event>
 7    1  0.2556591E-009  0.1127576E+03  0.7561462E-02  0.1255547E+00
         -3   -1    0    0    0  501 -0.00000000000E+00  0.00000000000E+00  0.27764551997E+03  0.27764551997E+03  0.00000000000E+00 0.  1.
          3   -1    0    0  501    0  0.00000000000E+00 -0.00000000000E+00 -0.71150727339E+02  0.71150727339E+02  0.00000000000E+00 0. -1.
         25    2    1    2    0    0 -0.68086327031E+02  0.48720844804E+02  0.15319077324E+03  0.21476807128E+03  0.12509373601E+03 0.  0.
          5    1    3    3  502    0 -0.61235974569E+02 -0.43499185570E+01  0.14867397638E+03  0.16090428840E+03  0.41800000000E+01 0. -1.
         -5    1    3    3    0  502 -0.68503524626E+01  0.53070763361E+02  0.45167968634E+01  0.53863782883E+02  0.41800000000E+01 0. -1.
        -11    1    1    2    0    0  0.17300905092E+02 -0.56356591809E+02  0.57691930845E+02  0.82484820676E+02  0.00000000000E+00 0.  1.
         11    1    1    2    0    0  0.50785421940E+02  0.76357470047E+01 -0.43879114572E+01  0.51543355351E+02  0.00000000000E+00 0. -1.
</event>
<event>
 7    1  0.3288289E-009  0.1233724E+03  0.7561462E-02  0.1237635E+00
          4   -1    0    0  501    0  0.00000000000E+00  0.00000000000E+00  0.90667775319E+03  0.90667775319E+03  0.00000000000E+00 0.  1.
         -4   -1    0    0    0  501 -0.00000000000E+00 -0.00000000000E+00 -0.30347665776E+02  0.30347665776E+02  0.00000000000E+00 0. -1.
         25    2    1    2    0    0  0.82129653894E+02 -0.89033066968E+02  0.55698953111E+03  0.58357228003E+03  0.12508837352E+03 0.  0.
          5    1    3    3  502    0  0.61156848837E+02 -0.76326158022E+02  0.54868125225E+03  0.55734588141E+03  0.41800000000E+01 0.  1.
         -5    1    3    3    0  502  0.20972805056E+02 -0.12706908946E+02  0.83082788644E+01  0.26226398620E+02  0.41800000000E+01 0.  1.
        -11    1    1    2    0    0 -0.34922292513E+02  0.19697891995E+02  0.24669623573E+02  0.47076148851E+02  0.00000000000E+00 0. -1.
         11    1    1    2    0    0 -0.47207361381E+02  0.69335174973E+02  0.29467093273E+03  0.30637699009E+03  0.00000000000E+00 0.  1.
</event>
<event>
 7    1  0.2556591E-009  0.5610421E+02  0.7561462E-02  0.1414948E+00
          2   -1    0    0  501    0  0.00000000000E+00  0.00000000000E+00  0.34399026503E+03  0.34399026503E+03  0.00000000000E+00 0. -1.
         -2   -1    0    0    0  501 -0.00000000000E+00 -0.00000000000E+00 -0.48324987416E+02  0.48324987416E+02  0.00000000000E+00 0.  1.
         25    2    1    2    0    0 -0.25985801573E+02 -0.13699243041E+02  0.70721401905E+02  0.14666928992E+03  0.12508969891E+03 0.  0.
          5    1    3    3  502    0 -0.10899013223E+02  0.54955213522E+00  0.10539698040E+03  0.10604285160E+03  0.41800000000E+01 0. -1.
         -5    1    3    3    0  502 -0.15086788351E+02 -0.14248795176E+02 -0.34675578496E+02  0.40626438323E+02  0.41800000000E+01 0. -1.
        -11    1    1    2    0    0  0.27443894290E+02 -0.27076112071E+02  0.18343186987E+03  0.18743941438E+03  0.00000000000E+00 0. -1.
         11    1    1    2    0    0 -0.14580927164E+01  0.40775355112E+02  0.41512005846E+02  0.58206548156E+02  0.00000000000E+00 0.  1.
</event>
<event>
 7    1  0.2556591E-009  0.1211362E+03  0.7561462E-02  0.1241234E+00
          2   -1    0    0  501    0  0.00000000000E+00  0.00000000000E+00  0.85900057261E+03  0.85900057261E+03  0.00000000000E+00 0.  1.
         -2   -1    0    0    0  501 -0.00000000000E+00 -0.00000000000E+00 -0.20868562930E+02  0.20868562930E+02  0.00000000000E+00 0. -1.
         25    2    1    2    0    0 -0.30771997322E+02  0.53425891177E+02  0.59957076720E+03  0.61557598294E+03  0.12508974468E+03 0.  0.
          5    1    3    3  502    0 -0.38060659154E+02  0.90956565692E+02  0.47744133168E+03  0.48753400724E+03  0.41800000000E+01 0. -1.
         -5    1    3    3    0  502  0.72886618319E+01 -0.37530674515E+02  0.12212943552E+03  0.12804197570E+03  0.41800000000E+01 0. -1.
        -11    1    1    2    0    0 -0.16011410923E+02 -0.56026860656E+02  0.80118569978E+02  0.99067450003E+02  0.00000000000E+00 0. -1.
         11    1    1    2    0    0  0.46783408245E+02  0.26009694789E+01  0.15844267250E+03  0.16522570259E+03  0.00000000000E+00 0.  1.
</event>
<event>
 7    1  0.2556591E-009  0.8951493E+02  0.7561462E-02  0.1304031E+00
         -1   -1    0    0    0  501 -0.00000000000E+00  0.00000000000E+00  0.16346640628E+03  0.16346640628E+03  0.00000000000E+00 0.  1.
          1   -1    0    0  501    0  0.00000000000E+00 -0.00000000000E+00 -0.10762513876E+03  0.10762513876E+03  0.00000000000E+00 0. -1.
         25    2    1    2    0    0  0.14372745828E+02  0.25296094441E+01 -0.43514695200E+02  0.13324718098E+03  0.12509319643E+03 0.  0.
          5    1    3    3  502    0 -0.41327747649E+01 -0.59478370964E+02 -0.11247234397E+02  0.60817177848E+02  0.41800000000E+01 0. -1.
         -5    1    3    3    0  502  0.18505520593E+02  0.62007980408E+02 -0.32267460803E+02  0.72430003130E+02  0.41800000000E+01 0. -1.
        -11    1    1    2    0    0 -0.23462565634E+01  0.24615183524E+02  0.10478453671E+03  0.10766248796E+03  0.00000000000E+00 0.  1.
         11    1    1    2    0    0 -0.12026489265E+02 -0.27144792968E+02 -0.54285739966E+01  0.30181876101E+02  0.00000000000E+00 0. -1.
</event>
<event>
 7    1  0.2556591E-009  0.1467536E+03  0.7561462E-02  0.1204520E+00
          3   -1    0    0  501    0  0.00000000000E+00  0.00000000000E+00  0.26750085214E+03  0.26750085214E+03  0.00000000000E+00 0. -1.
         -3   -1    0    0    0  501 -0.00000000000E+00 -0.00000000000E+00 -0.93009959593E+02  0.93009959593E+02  0.00000000000E+00 0.  1.
         25    2    1    2    0    0  0.68332882242E+02 -0.91715200011E+02  0.10128827952E+03  0.19745427325E+03  0.12509122171E+03 0.  0.
          5    1    3    3  502    0  0.17914059286E+02 -0.10545888991E+03  0.97657638274E+02  0.14490333914E+03  0.41800000000E+01 0.  1.
         -5    1    3    3    0  502  0.50418822955E+02  0.13743689898E+02  0.36306412450E+01  0.52550934112E+02  0.41800000000E+01 0.  1.
        -11    1    1    2    0    0 -0.11494677339E+02 -0.11462511960E+02 -0.97923323362E+01  0.18958020998E+02  0.00000000000E+00 0.  1.
         11    1    1    2    0    0 -0.56838204902E+02  0.10317771197E+03  0.82994945359E+02  0.14409851748E+03  0.00000000000E+00 0. -1.
</event>
<event>
 7    1  0.2556591E-009  0.1130819E+03  0.7561462E-02  0.1254967E+00
          2   -1    0    0  501    0  0.00000000000E+00  0.00000000000E+00  0.26796845323E+03  0.26796845323E+03  0.00000000000E+00 0. -1.
         -2   -1    0    0    0  501 -0.00000000000E+00 -0.00000000000E+00 -0.66135169015E+02  0.66135169015E+02  0.00000000000E+00 0.  1.
         25    2    1    2    0    0 -0.43624921726E+02  0.45165292571E+02  0.55825685272E+02  0.15068951998E+03  0.12509111419E+03 0.  0.
          5    1    3    3  502    0 -0.29217420684E+02 -0.28580368963E+02 -0.18373438762E+02  0.45006119733E+02  0.41800000000E+01 0.  1.
         -5    1    3    3    0  502 -0.14407501042E+02  0.73745661534E+02  0.74199124034E+02  0.10568340025E+03  0.41800000000E+01 0.  1.
        -11    1    1    2    0    0  0.55780807834E+01 -0.66141832966E+02  0.74853149503E+02  0.10004424543E+03  0.00000000000E+00 0.  1.
         11    1    1    2    0    0  0.38046840942E+02  0.20976540394E+02  0.71154449437E+02  0.83369856826E+02  0.00000000000E+00 0. -1.
</event>
<event>
 7    1  0.2556591E-009  0.9053704E+02  0.7561462E-02  0.1301556E+00
         -1   -1    0    0    0  501 -0.00000000000E+00  0.00000000000E+00  0.29271680511E+02  0.29271680511E+02  0.00000000000E+00 0.  1.
          1   -1    0    0  501    0  0.00000000000E+00 -0.00000000000E+00 -0.48727512851E+03  0.48727512851E+03  0.00000000000E+00 0. -1.
         25    2    1    2    0    0  0.50325820212E+02  0.19814698790E+02 -0.36433795504E+03  0.38899207850E+03  0.12508949271E+03 0.  0.
          5    1    3    3  502    0 -0.34116000321E+02  0.19386750229E+02 -0.51207489998E+02  0.64648487950E+02  0.41800000000E+01 0.  1.
         -5    1    3    3    0  502  0.84441820533E+02  0.42794856140E+00 -0.31313046504E+03  0.32434359055E+03  0.41800000000E+01 0.  1.
        -11    1    1    2    0    0 -0.21052657119E+02  0.11123162331E+01  0.57293532530E+01  0.21846672696E+02  0.00000000000E+00 0.  1.
         11    1    1    2    0    0 -0.29273163093E+02 -0.20927015023E+02 -0.99394846214E+02  0.10570805783E+03  0.00000000000E+00 0. -1.
</event>
<event>
 7    1  0.2556591E-009  0.2334589E+03  0.7561462E-02  0.1124229E+00
         -2   -1    0    0    0  501 -0.00000000000E+00  0.00000000000E+00  0.14705405354E+03  0.14705405354E+03  0.00000000000E+00 0. -1.
          2   -1    0    0  501    0  0.00000000000E+00 -0.00000000000E+00 -0.44005202625E+03  0.44005202625E+03  0.00000000000E+00 0.  1.
         25    2    1    2    0    0 -0.18861910821E+03  0.11818943730E+03 -0.84078333179E+02  0.26881317852E+03  0.12508176432E+03 0.  0.
          5    1    3    3  502    0 -0.18933736589E+03  0.11409901465E+03 -0.40425101554E+02  0.22476406408E+03  0.41800000000E+01 0.  1.
         -5    1    3    3    0  502  0.71825768275E+00  0.40904226514E+01 -0.43653231624E+02  0.44049114438E+02  0.41800000000E+01 0.  1.
        -11    1    1    2    0    0  0.14288326410E+03 -0.38391351291E+02 -0.13517460473E+03  0.20040383423E+03  0.00000000000E+00 0.  1.
         11    1    1    2    0    0  0.45735844116E+02 -0.79798086006E+02 -0.73745034813E+02  0.11788906704E+03  0.00000000000E+00 0. -1.
</event>
<event>
 7    1  0.2556591E-009  0.1027439E+03  0.7561462E-02  0.1274630E+00
         -3   -1    0    0    0  501 -0.00000000000E+00  0.00000000000E+00  0.31246663744E+03  0.31246663744E+03  0.00000000000E+00 0.  1.
          3   -1    0    0  501    0  0.00000000000E+00 -0.00000000000E+00 -0.43846591664E+02  0.43846591664E+02  0.00000000000E+00 0. -1.
         25    2    1    2    0    0  0.18444760898E+02 -0.64138637661E+01  0.21148167105E+03  0.24648149760E+03  0.12508910672E+03 0.  0.
          5    1    3    3  502    0 -0.36605507697E+02  0.28936790634E+02  0.35782456868E+02  0.58950467898E+02  0.41800000000E+01 0. -1.
         -5    1    3    3    0  502  0.55050268595E+02 -0.35350654400E+02  0.17569921418E+03  0.18753102970E+03  0.41800000000E+01 0. -1.
        -11    1    1    2    0    0  0.27495755362E+02  0.30621440202E+02  0.32041021720E+02  0.52156650927E+02  0.00000000000E+00 0.  1.
         11    1    1    2    0    0 -0.45940516260E+02 -0.24207576436E+02  0.25097353009E+02  0.57675080574E+02  0.00000000000E+00 0. -1.
</event>
<event>
 7    1  0.2556591E-009  0.2218653E+03  0.7561462E-02  0.1132500E+00
          2   -1    0    0  501    0  0.00000000000E+00  0.00000000000E+00  0.12534746537E+04  0.12534746537E+04  0.00000000000E+00 0. -1.
         -2   -1    0    0    0  501 -0.00000000000E+00 -0.00000000000E+00 -0.43969386735E+02  0.43969386735E+02  0.00000000000E+00 0.  1.
         25    2    1    2    0    0  0.20000366181E+03  0.50590738286E+02  0.69346907901E+03  0.73424243285E+03  0.12510675090E+03 0.  0.
          5    1    3    3  502    0  0.32659884298E+02 -0.24036535537E+02  0.46621106493E+02  0.61930792451E+02  0.41800000000E+01 0.  1.
         -5    1    3    3    0  502  0.16734377751E+03  0.74627273824E+02  0.64684797251E+03  0.67231164040E+03  0.41800000000E+01 0.  1.
        -11    1    1    2    0    0 -0.31940012738E+02  0.19688227547E+02  0.14616756145E+03  0.15090641715E+03  0.00000000000E+00 0.  1.
         11    1    1    2    0    0 -0.16806364907E+03 -0.70278965833E+02  0.36986862648E+03  0.41229519040E+03  0.00000000000E+00 0. -1.
</event>
<event>
 7    1  0.2984851E-009  0.1579162E+03  0.7561462E-02  0.1191070E+00
          1   -1    0    0  501    0  0.00000000000E+00  0.00000000000E+00  0.47478600871E+03  0.47478600871E+03  0.00000000000E+00 0. -1.
         -1   -1    0    0    0  501 -0.00000000000E+00 -0.00000000000E+00 -0.71445013386E+02  0.71445013386E+02  0.00000000000E+00 0.  1.
         25    2    1    2    0    0 -0.14596355721E+03  0.13674435270E+02  0.24965176124E+03  0.31538170603E+03  0.12508904188E+03 0.  0.
          5    1    3    3  502    0 -0.43078360856E+02 -0.41562035874E+01 -0.13434652659E+01  0.43500534493E+02  0.41800000000E+01 0. -1.
         -5    1    3    3    0  502 -0.10288519636E+03  0.17830638858E+02  0.25099522650E+03  0.27188117154E+03  0.41800000000E+01 0. -1.
        -11    1    1    2    0    0  0.63932156234E+02 -0.46957039240E+02  0.46951609555E+02  0.92177750975E+02  0.00000000000E+00 0.  1.
         11    1    1    2    0    0  0.82031400977E+02  0.33282603970E+02  0.10673762453E+03  0.13867156509E+03  0.00000000000E+00 0. -1.
</event>
<event>
 7    1  0.2556591E-009  0.1594537E+03  0.7561462E-02  0.1189315E+00
         -2   -1    0    0    0  501 -0.00000000000E+00  0.00000000000E+00  0.15741400800E+03  0.15741400800E+03  0.00000000000E+00 0. -1.
          2   -1    0    0  501    0  0.00000000000E+00 -0.00000000000E+00 -0.50886916644E+03  0.50886916644E+03  0.00000000000E+00 0.  1.
         25    2    1    2    0    0 -0.73986483742E+02 -0.12110808928E+03  0.78493919375E+02  0.20481520299E+03  0.12508718132E+03 0.  0.
          5    1    3    3  502    0 -0.52894584458E+02 -0.36086439873E+02 -0.25261594232E+02  0.68961501947E+02  0.41800000000E+01 0.  1.
         -5    1    3    3    0  502 -0.21091899284E+02 -0.85021649403E+02  0.10375551361E+03  0.13585370104E+03  0.41800000000E+01 0.  1.
        -11    1    1    2    0    0  0.94515943991E+02  0.99534184111E+02 -0.36704886035E+03  0.39187393810E+03  0.00000000000E+00 0.  1.
         11    1    1    2    0    0 -0.20529460249E+02  0.21573905165E+02 -0.62900217462E+02  0.69594033357E+02  0.00000000000E+00 0. -1.
</event>
<event>
 7    1  0.2556591E-009  0.1238653E+03  0.7561462E-02  0.1236853E+00
          1   -1    0    0  501    0  0.00000000000E+00  0.00000000000E+00  0.45922059638E+03  0.45922059638E+03  0.00000000000E+00 0. -1.
         -1   -1    0    0    0  501 -0.00000000000E+00 -0.00000000000E+00 -0.45889243473E+02  0.45889243473E+02  0.00000000000E+00 0.  1.
         25    2    1    2    0    0  0.75168166884E+02 -0.17075046304E+02  0.32203744969E+03  0.35397339438E+03  0.12508890602E+03 0.  0.
          5    1    3    3  502    0  0.38967612980E+02  0.50233221152E+02  0.20015565360E+03  0.21005144474E+03  0.41800000000E+01 0. -1.
         -5    1    3    3    0  502  0.36200553904E+02 -0.67308267456E+02  0.12188179609E+03  0.14392194964E+03  0.41800000000E+01 0. -1.
        -11    1    1    2    0    0 -0.54248494332E+02 -0.25574052776E+02  0.15935813514E+02  0.62055470871E+02  0.00000000000E+00 0.  1.
         11    1    1    2    0    0 -0.20919672552E+02  0.42649099080E+02  0.75358089702E+02  0.89080974600E+02  0.00000000000E+00 0. -1.
</event>
<event>
 7    1  0.2556591E-009  0.2510888E+03  0.7561462E-02  0.1112619E+00
         -1   -1    0    0    0  501 -0.00000000000E+00  0.00000000000E+00  0.36914072384E+03  0.36914072384E+03  0.00000000000E+00 0.  1.
          1   -1    0    0  501    0  0.00000000000E+00 -0.00000000000E+00 -0.28619959311E+03  0.28619959311E+03  0.00000000000E+00 0. -1.
         25    2    1    2    0    0 -0.22663583404E+03 -0.60395584766E+02  0.24092170724E+03  0.35875010205E+03  0.12508772429E+03 0.  0.
          5    1    3    3  502    0 -0.18546323856E+03 -0.96617800756E+02  0.20617620362E+03  0.29369663195E+03  0.41800000000E+01 0.  1.
         -5    1    3    3    0  502 -0.41172595479E+02  0.36222215989E+02  0.34745503625E+02  0.65053470098E+02  0.41800000000E+01 0.  1.
        -11    1    1    2    0    0  0.13110541836E+03  0.55479025935E+02 -0.46650330377E+02  0.14980923325E+03  0.00000000000E+00 0.  1.
         11    1    1    2    0    0  0.95530415680E+02  0.49165588310E+01 -0.11133024613E+03  0.14678098165E+03  0.00000000000E+00 0. -1.
</event>
<event>
 7    1  0.2556591E-009  0.1881295E+03  0.7561462E-02  0.1160159E+00
         -1   -1    0    0    0  501 -0.00000000000E+00  0.00000000000E+00  0.46215741929E+02  0.46215741929E+02  0.00000000000E+00 0.  1.
          1   -1    0    0  501    0  0.00000000000E+00 -0.00000000000E+00 -0.11635298127E+04  0.11635298127E+04  0.00000000000E+00 0. -1.
         25    2    1    2    0    0  0.51993246002E+02  0.17909029992E+03 -0.35805889037E+03  0.42264612376E+03  0.12508774440E+03 0.  0.
          5    1    3    3  502    0  0.32946313730E+02  0.15625618499E+03 -0.35864455752E+03  0.39261284489E+03  0.41800000000E+01 0. -1.
         -5    1    3    3    0  502  0.19046932272E+02  0.22834114925E+02  0.58566714641E+00  0.30033278865E+02  0.41800000000E+01 0. -1.
        -11    1    1    2    0    0 -0.38490855931E+02 -0.13245588890E+03 -0.68234764939E+03  0.69614971315E+03  0.00000000000E+00 0. -1.
         11    1    1    2    0    0 -0.13502390071E+02 -0.46634411018E+02 -0.76907531054E+02  0.90949717765E+02  0.00000000000E+00 0.  1.
</event>
<event>
 7    1  0.2556591E-009  0.1404261E+03  0.7561462E-02  0.1212757E+00
          3   -1    0    0  501    0  0.00000000000E+00  0.00000000000E+00  0.12586726039E+03  0.12586726039E+03  0.00000000000E+00 0. -1.
         -3   -1    0    0    0  501 -0.00000000000E+00 -0.00000000000E+00 -0.40359291129E+03  0.40359291129E+03  0.00000000000E+00 0.  1.
         25    2    1    2    0    0  0.53141235188E+02  0.12812436486E+03 -0.30804628804E+03  0.36024473853E+03  0.12507562638E+03 0.  0.
          5    1    3    3  502    0  0.35125773558E+02  0.11146843854E+03 -0.31364138295E+03  0.33473485366E+03  0.41800000000E+01 0. -1.
         -5    1    3    3    0  502  0.18015461630E+02  0.16655926318E+02  0.55950949017E+01  0.25509884872E+02  0.41800000000E+01 0. -1.
        -11    1    1    2    0    0 -0.12349765350E+02 -0.40931667036E+02 -0.32987374084E+02  0.54000786286E+02  0.00000000000E+00 0.  1.
         11    1    1    2    0    0 -0.40791469837E+02 -0.87192697819E+02  0.63308011230E+02  0.11521464686E+03  0.00000000000E+00 0. -1.
</event>
<event>
 7    1  0.2556591E-009  0.1229392E+03  0.7561462E-02  0.1238326E+00
          1   -1    0    0  501    0  0.00000000000E+00  0.00000000000E+00  0.24192459485E+03  0.24192459485E+03  0.00000000000E+00 0. -1.
         -1   -1    0    0    0  501 -0.00000000000E+00 -0.00000000000E+00 -0.90491133247E+02  0.90491133247E+02  0.00000000000E+00 0.  1.
         25    2    1    2    0    0  0.73285660225E+02  0.22696781967E+02  0.15329950871E+03  0.21221324511E+03  0.12509112728E+03 0.  0.
          5    1    3    3  502    0  0.26477032540E+02 -0.48887995575E+02  0.89426028998E+02  0.10538290386E+03  0.41800000000E+01 0.  1.
         -5    1    3    3    0  502  0.46808627685E+02  0.71584777542E+02  0.63873479708E+02  0.10683034125E+03  0.41800000000E+01 0.  1.
        -11    1    1    2    0    0 -0.61474498765E+02 -0.47058056039E+02 -0.28238286048E+02  0.82407374885E+02  0.00000000000E+00 0.  1.
         11    1    1    2    0    0 -0.11811161460E+02  0.24361274072E+02  0.26372238940E+02  0.37795108098E+02  0.00000000000E+00 0. -1.
</event>
<event>
 7    1  0.2556591E-009  0.1029926E+03  0.7561462E-02  0.1274126E+00
         -1   -1    0    0    0  501 -0.00000000000E+00  0.00000000000E+00  0.10774535015E+03  0.10774535015E+03  0.00000000000E+00 0.  1.
          1   -1    0    0  501    0  0.00000000000E+00 -0.00000000000E+00 -0.12537441337E+03  0.12537441337E+03  0.00000000000E+00 0. -1.
         25    2    1    2    0    0 -0.39641507444E+02  0.99917738052E+01  0.23667669141E+01  0.13162327155E+03  0.12509116424E+03 0.  0.
          5    1    3    3  502    0  0.40662002459E+02 -0.94264673542E+01 -0.19200463538E+02  0.46134444083E+02  0.41800000000E+01 0. -1.
         -5    1    3    3    0  502 -0.80303509903E+02  0.19418241159E+02  0.21567230452E+02  0.85488827468E+02  0.41800000000E+01 0. -1.
        -11    1    1    2    0    0  0.38237471158E+02  0.25392156879E+02 -0.39948682784E+02  0.60850333505E+02  0.00000000000E+00 0.  1.
         11    1    1    2    0    0  0.14040362860E+01 -0.35383930684E+02  0.19952852655E+02  0.40646158461E+02  0.00000000000E+00 0. -1.
</event>
<event>
 7    1  0.2556591E-009  0.1591122E+03  0.7561462E-02  0.1189703E+00
          3   -1    0    0  501    0  0.00000000000E+00  0.00000000000E+00  0.69869287054E+02  0.69869287054E+02  0.00000000000E+00 0. -1.
         -3   -1    0    0    0  501 -0.00000000000E+00 -0.00000000000E+00 -0.40542039076E+03  0.40542039076E+03  0.00000000000E+00 0.  1.
         25    2    1    2    0    0  0.11826434191E+03 -0.26260685074E+02 -0.11929590731E+03  0.21107839942E+03  0.12508596665E+03 0.  0.
          5    1    3    3  502    0  0.13874338393E+03 -0.36797788972E+02 -0.77512622571E+02  0.16318542495E+03  0.41800000000E+01 0. -1.
         -5    1    3    3    0  502 -0.20479042014E+02  0.10537103898E+02 -0.41783284742E+02  0.47892974477E+02  0.41800000000E+01 0. -1.
        -11    1    1    2    0    0  0.69974835509E+00  0.32101071315E+02 -0.55825509056E+02  0.64400744473E+02  0.00000000000E+00 0.  1.
         11    1    1    2    0    0 -0.11896409027E+03 -0.58403862409E+01 -0.16042968734E+03  0.19981053392E+03  0.00000000000E+00 0. -1.
</event>
<event>
 7    1  0.2556591E-009  0.1313689E+03  0.7561462E-02  0.1225439E+00
         -2   -1    0    0    0  501 -0.00000000000E+00  0.00000000000E+00  0.26691890935E+02  0.26691890935E+02  0.00000000000E+00 0.  1.
          2   -1    0    0  501    0  0.00000000000E+00 -0.00000000000E+00 -0.79170351193E+03  0.79170351193E+03  0.00000000000E+00 0. -1.
         25    2    1    2    0    0  0.26423305653E+02  0.88421707586E+02 -0.48429949737E+03  0.50863773668E+03  0.12509897909E+03 0.  0.
          5    1    3    3  502    0  0.96106984411E+01  0.11503156726E+03 -0.29709265215E+03  0.31875718557E+03  0.41800000000E+01 0.  1.
         -5    1    3    3    0  502  0.16812607212E+02 -0.26609859671E+02 -0.18720684523E+03  0.18988055112E+03  0.41800000000E+01 0.  1.
        -11    1    1    2    0    0 -0.29174376614E+02 -0.99693462521E+02 -0.27939602048E+03  0.29808063838E+03  0.00000000000E+00 0. -1.
         11    1    1    2    0    0  0.27510709604E+01  0.11271754935E+02 -0.13161031447E+01  0.11677027799E+02  0.00000000000E+00 0.  1.
</event>
<event>
 7    1  0.2556591E-009  0.1864460E+03  0.7561462E-02  0.1161706E+00
          1   -1    0    0  501    0  0.00000000000E+00  0.00000000000E+00  0.10391006409E+04  0.10391006409E+04  0.00000000000E+00 0. -1.
         -1   -1    0    0    0  501 -0.00000000000E+00 -0.00000000000E+00 -0.45660583550E+02  0.45660583550E+02  0.00000000000E+00 0.  1.
         25    2    1    2    0    0 -0.15648946673E+02  0.15750535441E+03  0.77919145755E+03  0.80488480950E+03  0.12508957929E+03 0.  0.
          5    1    3    3  502    0  0.47452394640E+02  0.60134737746E+02  0.43297476375E+03  0.43971869972E+03  0.41800000000E+01 0.  1.
         -5    1    3    3    0  502 -0.63101341313E+02  0.97370616665E+02  0.34621669381E+03  0.36516610978E+03  0.41800000000E+01 0.  1.
        -11    1    1    2    0    0 -0.35631891639E+02 -0.56583055331E+02  0.80805718900E+02  0.10488488003E+03  0.00000000000E+00 0. -1.
         11    1    1    2    0    0  0.51280838312E+02 -0.10092229908E+03  0.13344288089E+03  0.17499153491E+03  0.00000000000E+00 0.  1.
</event>
<event>
 7    1  0.2556591E-009  0.1217439E+03  0.7561462E-02  0.1240248E+00
          1   -1    0    0  501    0  0.00000000000E+00  0.00000000000E+00  0.34355936563E+03  0.34355936563E+03  0.00000000000E+00 0. -1.
         -1   -1    0    0    0  501 -0.00000000000E+00 -0.00000000000E+00 -0.47607970200E+02  0.47607970200E+02  0.00000000000E+00 0.  1.
         25    2    1    2    0    0 -0.20585202863E+02 -0.58580102696E+02  0.12100180031E+03  0.18477181048E+03  0.12507520643E+03 0.  0.
          5    1    3    3  502    0 -0.54522288572E+02  0.15969816478E+02  0.58493020843E+02  0.81649377688E+02  0.41800000000E+01 0. -1.
         -5    1    3    3    0  502  0.33937085708E+02 -0.74549919175E+02  0.62508779466E+02  0.10312243280E+03  0.41800000000E+01 0. -1.
        -11    1    1    2    0    0 -0.14784250821E+02  0.66612557076E+02  0.82346447512E+02  0.10694271481E+03  0.00000000000E+00 0. -1.
         11    1    1    2    0    0  0.35369453684E+02 -0.80324543796E+01  0.92603147606E+02  0.99452810538E+02  0.00000000000E+00 0.  1.
</event>
<event>
 7    1  0.2556591E-009  0.1168461E+03  0.7561462E-02  0.1248393E+00
          1   -1    0    0  501    0  0.00000000000E+00  0.00000000000E+00  0.43656026566E+02  0.43656026566E+02  0.00000000000E+00 0. -1.
         -1   -1    0    0    0  501 -0.00000000000E+00 -0.00000000000E+00 -0.39315914080E+03  0.39315914080E+03  0.00000000000E+00 0.  1.
         25    2    1    2    0    0  0.29600595203E+02 -0.73145007241E+02 -0.19710129932E+03  0.24642163985E+03  0.12509322552E+03 0.  0.
          5    1    3    3  502    0  0.60623600928E+02 -0.62259575326E+02 -0.60776325591E+02  0.10612591513E+03  0.41800000000E+01 0. -1.
         -5    1    3    3    0  502 -0.31023005725E+02 -0.10885431915E+02 -0.13632497373E+03  0.14029572472E+03  0.41800000000E+01 0. -1.
        -11    1    1    2    0    0 -0.72817386506E+01 -0.18155653755E+02 -0.33952212481E+02  0.39184234245E+02  0.00000000000E+00 0. -1.
         11    1    1    2    0    0 -0.22318856553E+02  0.91300660996E+02 -0.11844960243E+03  0.15120929327E+03  0.00000000000E+00 0.  1.
</event>
<event>
 7    1  0.2556591E-009  0.2587956E+03  0.7561462E-02  0.1107869E+00
         -2   -1    0    0    0  501 -0.00000000000E+00  0.00000000000E+00  0.82758183261E+02  0.82758183261E+02  0.00000000000E+00 0.  1.
          2   -1    0    0  501    0  0.00000000000E+00 -0.00000000000E+00 -0.15348957196E+04  0.15348957196E+04  0.00000000000E+00 0. -1.
         25    2    1    2    0    0 -0.23399780397E+03 -0.83192478792E+02 -0.21078099666E+03  0.34892985006E+03  0.12508977145E+03 0.  0.
          5    1    3    3  502    0 -0.18727404016E+03 -0.21190165097E+02 -0.99454050462E+02  0.21314119679E+03  0.41800000000E+01 0. -1.
         -5    1    3    3    0  502 -0.46723763808E+02 -0.62002313695E+02 -0.11132694620E+03  0.13578865327E+03  0.41800000000E+01 0. -1.
        -11    1    1    2    0    0  0.17576060264E+03  0.79695799770E+02 -0.10808400884E+04  0.10979337442E+04  0.00000000000E+00 0. -1.
         11    1    1    2    0    0  0.58237201329E+02  0.34966790224E+01 -0.16051645132E+03  0.17079030864E+03  0.00000000000E+00 0.  1.
</event>
<event>
 7    1  0.2556591E-009  0.1863363E+03  0.7561462E-02  0.1161808E+00
          1   -1    0    0  501    0  0.00000000000E+00  0.00000000000E+00  0.12630507823E+04  0.12630507823E+04  0.00000000000E+00 0. -1.
         -1   -1    0    0    0  501 -0.00000000000E+00 -0.00000000000E+00 -0.34870675572E+02  0.34870675572E+02  0.00000000000E+00 0.  1.
         25    2    1    2    0    0 -0.19824653019E+02  0.16293533729E+03  0.86390789212E+03  0.88821437683E+03  0.12508793765E+03 0.  0.
          5    1    3    3  502    0 -0.41868699343E+02  0.16287935928E+03  0.59361453852E+03  0.61699138277E+03  0.41800000000E+01 0. -1.
         -5    1    3    3    0  502  0.22044046325E+02  0.55978008450E-01  0.27029335360E+03  0.27122299406E+03  0.41800000000E+01 0. -1.
        -11    1    1    2    0    0 -0.27980693845E+02 -0.94317354671E+02  0.24520920740E+03  0.26420870163E+03  0.00000000000E+00 0. -1.
         11    1    1    2    0    0  0.47805346863E+02 -0.68617982619E+02  0.11906300723E+03  0.14549837944E+03  0.00000000000E+00 0.  1.
</event>
<event>
 7    1  0.2556591E-009  0.1030491E+03  0.7561462E-02  0.1274012E+00
         -1   -1    0    0    0  501 -0.00000000000E+00  0.00000000000E+00  0.12777541499E+03  0.12777541499E+03  0.00000000000E+00 0.  1.
          1   -1    0    0  501    0  0.00000000000E+00 -0.00000000000E+00 -0.23158803255E+03  0.23158803255E+03  0.00000000000E+00 0. -1.
         25    2    1    2    0    0 -0.20052042319E+02  0.13390332024E+02  0.81779367659E+02  0.15138384253E+03  0.12509123635E+03 0.  0.
          5    1    3    3  502    0 -0.37158854370E+02  0.63799985789E+02  0.45472631323E+02  0.86812736648E+02  0.41800000000E+01 0.  1.
         -5    1    3    3    0  502  0.17106812051E+02 -0.50409653765E+02  0.36306736336E+02  0.64571105880E+02  0.41800000000E+01 0.  1.
        -11    1    1    2    0    0  0.84748284789E+01  0.31381694667E+02 -0.13738362871E+03  0.14117682145E+03  0.00000000000E+00 0. -1.
         11    1    1    2    0    0  0.11577213840E+02 -0.44772026691E+02 -0.48208356509E+02  0.66802783562E+02  0.00000000000E+00 0.  1.
</event>
<event>
 7    1  0.2556591E-009  0.9895145E+02  0.7561462E-02  0.1282516E+00
          3   -1    0    0  501    0  0.00000000000E+00  0.00000000000E+00  0.17202594694E+03  0.17202594694E+03  0.00000000000E+00 0. -1.
         -3   -1    0    0    0  501 -0.00000000000E+00 -0.00000000000E+00 -0.70697189809E+02  0.70697189809E+02  0.00000000000E+00 0.  1.
         25    2    1    2    0    0  0.12510591586E+02  0.61107037916E+01  0.67690957406E+02  0.14291041885E+03  0.12508983372E+03 0.  0.
          5    1    3    3  502    0  0.52221675389E+02  0.29945251242E+02  0.74542316161E+02  0.95905426077E+02  0.41800000000E+01 0. -1.
         -5    1    3    3    0  502 -0.39711083803E+02 -0.23834547450E+02 -0.68513587546E+01  0.47004992775E+02  0.41800000000E+01 0. -1.
        -11    1    1    2    0    0 -0.13192087721E+02 -0.47685370980E+02  0.30482550927E+02  0.58112921928E+02  0.00000000000E+00 0.  1.
         11    1    1    2    0    0  0.68149613454E+00  0.41574667189E+02  0.31552487973E+01  0.41699795968E+02  0.00000000000E+00 0. -1.
</event>
<event>
 7    1  0.2556591E-009  0.1048522E+03  0.7561462E-02  0.1270411E+00
         -1   -1    0    0    0  501 -0.00000000000E+00  0.00000000000E+00  0.43010332495E+02  0.43010332495E+02  0.00000000000E+00 0.  1.
          1   -1    0    0  501    0  0.00000000000E+00 -0.00000000000E+00 -0.28791151787E+03  0.28791151787E+03  0.00000000000E+00 0. -1.
         25    2    1    2    0    0 -0.22109986014E+02 -0.19559634480E+02 -0.14357108301E+03  0.19269557809E+03  0.12508996424E+03 0.  0.
          5    1    3    3  502    0 -0.64680614664E+02 -0.34126136035E+02 -0.49715276762E+02  0.88528279197E+02  0.41800000000E+01 0. -1.
         -5    1    3    3    0  502  0.42570628650E+02  0.14566501554E+02 -0.93855806249E+02  0.10416729889E+03  0.41800000000E+01 0. -1.
        -11    1    1    2    0    0 -0.64803899125E+01 -0.31817007127E+02 -0.52817380918E+02  0.61999944540E+02  0.00000000000E+00 0. -1.
         11    1    1    2    0    0  0.28590375927E+02  0.51376641608E+02 -0.48512721443E+02  0.76226327738E+02  0.00000000000E+00 0.  1.
</event>
<event>
 7    1  0.2556591E-009  0.1016841E+03  0.7561462E-02  0.1276794E+00
         -4   -1    0    0    0  501 -0.00000000000E+00  0.00000000000E+00  0.88339697567E+02  0.88339697567E+02  0.00000000000E+00 0. -1.
          4   -1    0    0  501    0  0.00000000000E+00 -0.00000000000E+00 -0.17852145239E+03  0.17852145239E+03  0.00000000000E+00 0.  1.
         25    2    1    2    0    0 -0.42961250407E+02  0.47148774110E+02 -0.54290008043E+02  0.15054514344E+03  0.12509100408E+03 0.  0.
          5    1    3    3  502    0  0.41204772268E+02 -0.24216762092E+01 -0.75085486181E+01  0.42160982860E+02  0.41800000000E+01 0.  1.
         -5    1    3    3    0  502 -0.84166022676E+02  0.49570450319E+02 -0.46781459425E+02  0.10838416058E+03  0.41800000000E+01 0.  1.
        -11    1    1    2    0    0  0.20112159272E+02 -0.26866793881E+02 -0.65609344361E+02  0.73694705587E+02  0.00000000000E+00 0.  1.
         11    1    1    2    0    0  0.22849091136E+02 -0.20281980229E+02  0.29717597578E+02  0.42621300937E+02  0.00000000000E+00 0. -1.
</event>
<event>
 7    1  0.2556591E-009  0.1251582E+03  0.7561462E-02  0.1234822E+00
         -1   -1    0    0    0  501 -0.00000000000E+00  0.00000000000E+00  0.39333681423E+02  0.39333681423E+02  0.00000000000E+00 0.  1.
          1   -1    0    0  501    0  0.00000000000E+00 -0.00000000000E+00 -0.49877094184E+03  0.49877094184E+03  0.00000000000E+00 0. -1.
         25    2    1    2    0    0  0.27242705841E+02 -0.75318862108E+02 -0.19987170797E+03  0.24902037436E+03  0.12508937281E+03 0.  0.
          5    1    3    3  502    0  0.64223910292E+02 -0.32779293607E+02 -0.17083651197E+03  0.18547716562E+03  0.41800000000E+01 0.  1.
         -5    1    3    3    0  502 -0.36981204451E+02 -0.42539568500E+02 -0.29035195992E+02  0.63543208741E+02  0.41800000000E+01 0.  1.
        -11    1    1    2    0    0  0.24901822571E+02 -0.53914424853E+01 -0.96558486837E+02  0.99863455777E+02  0.00000000000E+00 0. -1.
         11    1    1    2    0    0 -0.52144528413E+02  0.80710304593E+02 -0.16300706561E+03  0.18922079312E+03  0.00000000000E+00 0.  1.
</event>
<event>
 7    1  0.2556591E-009  0.1694551E+03  0.7561462E-02  0.1178417E+00
         -2   -1    0    0    0  501 -0.00000000000E+00  0.00000000000E+00  0.11972533257E+03  0.11972533257E+03  0.00000000000E+00 0.  1.
          2   -1    0    0  501    0  0.00000000000E+00 -0.00000000000E+00 -0.30023551233E+03  0.30023551233E+03  0.00000000000E+00 0. -1.
         25    2    1    2    0    0  0.56638828337E+02 -0.13939263204E+03 -0.13887899350E+03  0.23994444438E+03  0.12509076229E+03 0.  0.
          5    1    3    3  502    0 -0.14609741631E+02 -0.62905577119E+02 -0.11604087953E+03  0.13286652816E+03  0.41800000000E+01 0. -1.
         -5    1    3    3    0  502  0.71248569968E+02 -0.76487054922E+02 -0.22838113975E+02  0.10707791622E+03  0.41800000000E+01 0. -1.
        -11    1    1    2    0    0 -0.96452052475E+01  0.11722573031E+03 -0.49221633858E+02  0.12750557270E+03  0.00000000000E+00 0. -1.
         11    1    1    2    0    0 -0.46993623090E+02  0.22166901735E+02  0.75904475937E+01  0.52510827820E+02  0.00000000000E+00 0.  1.
</event>
<event>
 7    1  0.2556591E-009  0.1096423E+03  0.7561462E-02  0.1261234E+00
         -3   -1    0    0    0  501 -0.00000000000E+00  0.00000000000E+00  0.42090212266E+03  0.42090212266E+03  0.00000000000E+00 0.  1.
          3   -1    0    0  501    0  0.00000000000E+00 -0.00000000000E+00 -0.56011020685E+02  0.56011020685E+02  0.00000000000E+00 0. -1.
         25    2    1    2    0    0 -0.60686194250E+02 -0.31824805331E+02  0.66212308879E+02  0.15724422922E+03  0.12508415315E+03 0.  0.
          5    1    3    3  502    0 -0.54615555431E+02  0.28305053505E+02  0.73827737472E+02  0.96187536455E+02  0.41800000000E+01 0. -1.
         -5    1    3    3    0  502 -0.60706388186E+01 -0.60129858837E+02 -0.76154285926E+01  0.61056692770E+02  0.41800000000E+01 0. -1.
        -11    1    1    2    0    0  0.70363016093E+02  0.73693062651E+01  0.27605559434E+03  0.28497710763E+03  0.00000000000E+00 0.  1.
         11    1    1    2    0    0 -0.96768218433E+01  0.24455499066E+02  0.22623198760E+02  0.34691806492E+02  0.00000000000E+00 0. -1.
</event>
<event>
 7    1  0.2556591E-009  0.1387845E+03  0.7561462E-02  0.1214974E+00
          1   -1    0    0  501    0  0.00000000000E+00  0.00000000000E+00  0.21095046763E+03  0.21095046763E+03  0.00000000000E+00 0. -1.
         -1   -1    0    0    0  501 -0.00000000000E+00 -0.00000000000E+00 -0.10662368106E+03  0.10662368106E+03  0.00000000000E+00 0.  1.
         25    2    1    2    0    0  0.28787953341E+02  0.95765134880E+02  0.28879682086E+02  0.16273367041E+03  0.12509398120E+03 0.  0.
          5    1    3    3  502    0 -0.14431995570E+02  0.10108772472E+03  0.50434078824E+02  0.11396525476E+03  0.41800000000E+01 0. -1.
         -5    1    3    3    0  502  0.43219948911E+02 -0.53225898415E+01 -0.21554396737E+02  0.48768415652E+02  0.41800000000E+01 0. -1.
        -11    1    1    2    0    0 -0.42016887625E+02 -0.10656335730E+03  0.51909242292E+02  0.12576063533E+03  0.00000000000E+00 0. -1.
         11    1    1    2    0    0  0.13228934283E+02  0.10798222416E+02  0.23537862191E+02  0.29079842952E+02  0.00000000000E+00 0.  1.
</event>
<event>
 7    1  0.2556591E-009  0.9601664E+02  0.7561462E-02  0.1288903E+00
         -3   -1    0    0    0  501 -0.00000000000E+00  0.00000000000E+00  0.10895031320E+03  0.10895031320E+03  0.00000000000E+00 0.  1.
          3   -1    0    0  501    0  0.00000000000E+00 -0.00000000000E+00 -0.21949653197E+03  0.21949653197E+03  0.00000000000E+00 0. -1.
         25    2    1    2    0    0 -0.44614833577E+02 -0.11615010179E+02 -0.16529521581E+03  0.21236060097E+03  0.12509646132E+03 0.  0.
          5    1    3    3  502    0 -0.67826982743E+02 -0.87541643106E+00 -0.17254775936E+03  0.18544936668E+03  0.41800000000E+01 0. -1.
         -5    1    3    3    0  502  0.23212149166E+02 -0.10739593748E+02  0.72525435497E+01  0.26911234285E+02  0.41800000000E+01 0. -1.
        -11    1    1    2    0    0 -0.17641319136E+02  0.28619457733E+02  0.37440742239E+01  0.33827615842E+02  0.00000000000E+00 0. -1.
         11    1    1    2    0    0  0.62256152713E+02 -0.17004447553E+02  0.51004922822E+02  0.82258628358E+02  0.00000000000E+00 0.  1.
</event>
<event>
 7    1  0.2556591E-009  0.1193341E+03  0.7561462E-02  0.1244200E+00
         -2   -1    0    0    0  501 -0.00000000000E+00  0.00000000000E+00  0.55742696210E+02  0.55742696210E+02  0.00000000000E+00 0.  1.
          2   -1    0    0  501    0  0.00000000000E+00 -0.00000000000E+00 -0.35773735397E+03  0.35773735397E+03  0.00000000000E+00 0. -1.
         25    2    1    2    0    0  0.18156904586E+02  0.87624629206E+02 -0.18437220092E+03  0.24010101699E+03  0.12509053146E+03 0.  0.
          5    1    3    3  502    0 -0.17669227430E+02 -0.94050510892E+01 -0.11186010129E+03  0.11371372496E+03  0.41800000000E+01 0. -1.
         -5    1    3    3    0  502  0.35826132015E+02  0.97029680296E+02 -0.72512099628E+02  0.12638729203E+03  0.41800000000E+01 0. -1.
        -11    1    1    2    0    0 -0.35512693242E+02 -0.90401511691E+02 -0.62441866516E+02  0.11546675449E+03  0.00000000000E+00 0.  1.
         11    1    1    2    0    0  0.17355788656E+02  0.27768824847E+01 -0.55180590328E+02  0.57912278708E+02  0.00000000000E+00 0. -1.
</event>
<event>
 7    1  0.2556591E-009  0.1044537E+03  0.7561462E-02  0.1271200E+00
         -1   -1    0    0    0  501 -0.00000000000E+00  0.00000000000E+00  0.10611074054E+03  0.10611074054E+03  0.00000000000E+00 0.  1.
          1   -1    0    0  501    0  0.00000000000E+00 -0.00000000000E+00 -0.24676192820E+03  0.24676192820E+03  0.00000000000E+00 0. -1.
         25    2    1    2    0    0  0.53766447460E+01  0.61508560517E+02  0.36902568883E+02  0.14429643316E+03  0.12508976659E+03 0.  0.
          5    1    3    3  502    0 -0.56776302396E+02  0.48452686468E+02  0.10921715326E+02  0.75551092681E+02  0.41800000000E+01 0. -1.
         -5    1    3    3    0  502  0.62152947142E+02  0.13055874049E+02  0.25980853557E+02  0.68745340476E+02  0.41800000000E+01 0. -1.
        -11    1    1    2    0    0 -0.19879694181E+02 -0.33235123994E+02 -0.12801997732E+02  0.40788072443E+02  0.00000000000E+00 0.  1.
         11    1    1    2    0    0  0.14503049435E+02 -0.28273436522E+02 -0.16475175882E+03  0.16778816314E+03  0.00000000000E+00 0. -1.
</event>
<event>
 7    1  0.2556591E-009  0.1763850E+03  0.7561462E-02  0.1171348E+00
         -2   -1    0    0    0  501 -0.00000000000E+00  0.00000000000E+00  0.13033935885E+03  0.13033935885E+03  0.00000000000E+00 0.  1.
          2   -1    0    0  501    0  0.00000000000E+00 -0.00000000000E+00 -0.32686518476E+03  0.32686518476E+03  0.00000000000E+00 0. -1.
         25    2    1    2    0    0 -0.40811186350E+02  0.16032353340E+03 -0.16575675874E+03  0.26550432002E+03  0.12509217637E+03 0.  0.
          5    1    3    3  502    0 -0.33833563858E+02  0.56063268930E+02 -0.14462540037E+03  0.15881366125E+03  0.41800000000E+01 0.  1.
         -5    1    3    3    0  502 -0.69776224921E+01  0.10426026447E+03 -0.21131358367E+02  0.10669065877E+03  0.41800000000E+01 0.  1.
        -11    1    1    2    0    0  0.51430666097E+02 -0.49948107735E+02  0.12307149383E+02  0.72741960431E+02  0.00000000000E+00 0. -1.
         11    1    1    2    0    0 -0.10619479747E+02 -0.11037542567E+03 -0.43076216559E+02  0.11895826316E+03  0.00000000000E+00 0.  1.
</event>
<event>
 7    1  0.2556591E-009  0.1270651E+03  0.7561462E-02  0.1231877E+00
          2   -1    0    0  501    0  0.00000000000E+00  0.00000000000E+00  0.30419858878E+03  0.30419858878E+03  0.00000000000E+00 0. -1.
         -2   -1    0    0    0  501 -0.00000000000E+00 -0.00000000000E+00 -0.85809720989E+02  0.85809720989E+02  0.00000000000E+00 0.  1.
         25    2    1    2    0    0 -0.69591294743E+02  0.66496223734E+02  0.32523025179E+02  0.16115839740E+03  0.12509830459E+03 0.  0.
          5    1    3    3  502    0  0.36530990821E+02  0.13778957368E+02  0.74078328031E+01  0.39958995775E+02  0.41800000000E+01 0. -1.
         -5    1    3    3    0  502 -0.10612228556E+03  0.52717266366E+02  0.25115192376E+02  0.12119940163E+03  0.41800000000E+01 0. -1.
        -11    1    1    2    0    0  0.38724626630E+02 -0.35046330171E+02  0.17614364660E+03  0.18372377691E+03  0.00000000000E+00 0. -1.
         11    1    1    2    0    0  0.30866668113E+02 -0.31449893563E+02  0.97221960091E+01  0.45126135451E+02  0.00000000000E+00 0.  1.
</event>
<event>
 7    1  0.2556591E-009  0.1177633E+03  0.7561462E-02  0.1246833E+00
          2   -1    0    0  501    0  0.00000000000E+00  0.00000000000E+00  0.28335257982E+03  0.28335257982E+03  0.00000000000E+00 0. -1.
         -2   -1    0    0    0  501 -0.00000000000E+00 -0.00000000000E+00 -0.10383078125E+03  0.10383078125E+03  0.00000000000E+00 0.  1.
         25    2    1    2    0    0  0.10781116578E+02 -0.11248301209E+03  0.17387303960E+02  0.16946430304E+03  0.12508865329E+03 0.  0.
          5    1    3    3  502    0 -0.18394809064E+01 -0.95221651426E+02  0.66164591994E+02  0.11604211401E+03  0.41800000000E+01 0. -1.
         -5    1    3    3    0  502  0.12620597485E+02 -0.17261360659E+02 -0.48777288033E+02  0.53422189028E+02  0.41800000000E+01 0. -1.
        -11    1    1    2    0    0  0.12177892261E+02  0.58351426878E+02  0.18338459426E+02  0.62365769238E+02  0.00000000000E+00 0.  1.
         11    1    1    2    0    0 -0.22959008839E+02  0.54131585207E+02  0.14379603519E+03  0.15535328880E+03  0.00000000000E+00 0. -1.
</event>
<event>
 7    1  0.2556591E-009  0.1073230E+03  0.7561462E-02  0.1265609E+00
         -2   -1    0    0    0  501 -0.00000000000E+00  0.00000000000E+00  0.80522291745E+02  0.80522291745E+02  0.00000000000E+00 0.  1.
          2   -1    0    0  501    0  0.00000000000E+00 -0.00000000000E+00 -0.28180538035E+03  0.28180538035E+03  0.00000000000E+00 0. -1.
         25    2    1    2    0    0 -0.18128165906E+02 -0.22391982681E+02  0.11798437221E+02  0.12891431765E+03  0.12509862863E+03 0.  0.
          5    1    3    3  502    0  0.31924423365E+02  0.37894224345E+02  0.12517683280E+01  0.49741133581E+02  0.41800000000E+01 0. -1.
         -5    1    3    3    0  502 -0.50052589271E+02 -0.60286207027E+02  0.10546668893E+02  0.79173184066E+02  0.41800000000E+01 0. -1.
        -11    1    1    2    0    0 -0.30111961112E+02 -0.56750062877E+01 -0.33690459322E+02  0.45541002928E+02  0.00000000000E+00 0.  1.
         11    1    1    2    0    0  0.48240127017E+02  0.28066988969E+02 -0.17939106650E+03  0.18787235152E+03  0.00000000000E+00 0. -1.
</event>
<event>
 7    1  0.2556591E-009  0.1011881E+03  0.7561462E-02  0.1277817E+00
         -1   -1    0    0    0  501 -0.00000000000E+00  0.00000000000E+00  0.63566363089E+03  0.63566363089E+03  0.00000000000E+00 0.  1.
          1   -1    0    0  501    0  0.00000000000E+00 -0.00000000000E+00 -0.45343499145E+02  0.45343499145E+02  0.00000000000E+00 0. -1.
         25    2    1    2    0    0 -0.88238567994E+01  0.61711862097E+02  0.54387937198E+03  0.56155088834E+03  0.12509362314E+03 0.  0.
          5    1    3    3  502    0 -0.27164582739E+02 -0.33141376918E+02  0.17078762981E+03  0.17613106573E+03  0.41800000000E+01 0. -1.
         -5    1    3    3    0  502  0.18340725940E+02  0.94853239015E+02  0.37309174218E+03  0.38541982261E+03  0.41800000000E+01 0. -1.
        -11    1    1    2    0    0  0.82428960788E+01 -0.37221088935E+02 -0.23884046238E+02  0.44986692054E+02  0.00000000000E+00 0. -1.
         11    1    1    2    0    0  0.58096072060E+00 -0.24490773163E+02  0.70324806003E+02  0.74469549648E+02  0.00000000000E+00 0.  1.
</event>
<event>
 7    1  0.2556591E-009  0.1261441E+03  0.7561462E-02  0.1233292E+00
          3   -1    0    0  501    0  0.00000000000E+00  0.00000000000E+00  0.43864459440E+02  0.43864459440E+02  0.00000000000E+00 0. -1.
         -3   -1    0    0    0  501 -0.00000000000E+00 -0.00000000000E+00 -0.53694165263E+03  0.53694165263E+03  0.00000000000E+00 0.  1.
         25    2    1    2    0    0  0.10763367607E+03  0.76334642607E+01 -0.29021757778E+03  0.33394153564E+03  0.12508968293E+03 0.  0.
          5    1    3    3  502    0 -0.14213638716E+01 -0.55583139982E+01 -0.17335546740E+03  0.17350073662E+03  0.41800000000E+01 0.  1.
         -5    1    3    3    0  502  0.10905503994E+03  0.13191778259E+02 -0.11686211038E+03  0.16044079903E+03  0.41800000000E+01 0.  1.
        -11    1    1    2    0    0  0.12315971548E+02  0.74062842470E+01 -0.54281624748E+01  0.15362328904E+02  0.00000000000E+00 0.  1.
         11    1    1    2    0    0 -0.11994964762E+03 -0.15039748508E+02 -0.19743145294E+03  0.23150224752E+03  0.00000000000E+00 0. -1.
</event>
<event>
 7    1  0.2556591E-009  0.4867625E+02  0.7561462E-02  0.1452615E+00
         -1   -1    0    0    0  501 -0.00000000000E+00  0.00000000000E+00  0.84335377871E+02  0.84335377871E+02  0.00000000000E+00 0.  1.
          1   -1    0    0  501    0  0.00000000000E+00 -0.00000000000E+00 -0.14569855375E+03  0.14569855375E+03  0.00000000000E+00 0. -1.
         25    2    1    2    0    0 -0.17444177200E+02 -0.37837198813E+01 -0.21821673535E+02  0.12824039128E+03  0.12510314410E+03 0.  0.
          5    1    3    3  502    0 -0.13329412512E+02 -0.30843482129E+02  0.44764005714E+02  0.56127375098E+02  0.41800000000E+01 0.  1.
         -5    1    3    3    0  502 -0.41147646879E+01  0.27059762248E+02 -0.66585679249E+02  0.72113016179E+02  0.41800000000E+01 0.  1.
        -11    1    1    2    0    0  0.20146243955E+02  0.14455804427E+02  0.25651892993E+02  0.35677178157E+02  0.00000000000E+00 0.  1.
         11    1    1    2    0    0 -0.27020667549E+01 -0.10672084546E+02 -0.65193395334E+02  0.66116362184E+02  0.00000000000E+00 0. -1.
</event>
<event>
 7    1  0.2556591E-009  0.1480993E+03  0.7561462E-02  0.1202828E+00
         -1   -1    0    0    0  501 -0.00000000000E+00  0.00000000000E+00  0.81018734496E+02  0.81018734496E+02  0.00000000000E+00 0.  1.
          1   -1    0    0  501    0  0.00000000000E+00 -0.00000000000E+00 -0.38817435515E+03  0.38817435515E+03  0.00000000000E+00 0. -1.
         25    2    1    2    0    0 -0.88245053151E+02 -0.10341642371E+03 -0.11152434234E+03  0.21579397064E+03  0.12508881938E+03 0.  0.
          5    1    3    3  502    0 -0.86881186608E+02 -0.38628759047E+02 -0.11677354677E+03  0.15064546206E+03  0.41800000000E+01 0. -1.
         -5    1    3    3    0  502 -0.13638665421E+01 -0.64787664660E+02  0.52492044351E+01  0.65148508589E+02  0.41800000000E+01 0. -1.
        -11    1    1    2    0    0  0.11931474645E+02  0.17413415593E+02  0.54184406559E+01  0.21793270268E+02  0.00000000000E+00 0.  1.
         11    1    1    2    0    0  0.76313578506E+02  0.86003008114E+02 -0.20104971897E+03  0.23160584873E+03  0.00000000000E+00 0. -1.
</event>
<event>
 7    1  0.2556591E-009  0.1052667E+03  0.7561462E-02  0.1269595E+00
         -2   -1    0    0    0  501 -0.00000000000E+00  0.00000000000E+00  0.22000799398E+03  0.22000799398E+03  0.00000000000E+00 0.  1.
          2   -1    0    0  501    0  0.00000000000E+00 -0.00000000000E+00 -0.92992807032E+02  0.92992807032E+02  0.00000000000E+00 0. -1.
         25    2    1    2    0    0 -0.14383807660E+02  0.46146481327E+02  0.15759706073E+03  0.20693088490E+03  0.12508863222E+03 0.  0.
          5    1    3    3  502    0 -0.46163984242E+02  0.75520232896E+02  0.88095753928E+02  0.12495100351E+03  0.41800000000E+01 0.  1.
         -5    1    3    3    0  502  0.31780176582E+02 -0.29373751569E+02  0.69501306805E+02  0.81979881388E+02  0.41800000000E+01 0.  1.
        -11    1    1    2    0    0 -0.14449083495E+02 -0.47431778133E+02  0.15277835718E+02  0.51884119486E+02  0.00000000000E+00 0.  1.
         11    1    1    2    0    0  0.28832891155E+02  0.12852968061E+01 -0.45859709504E+02  0.54185796626E+02  0.00000000000E+00 0. -1.
</event>
<event>
 7    1  0.2556591E-009  0.1246656E+03  0.7561462E-02  0.1235593E+00
         -1   -1    0    0    0  501 -0.00000000000E+00  0.00000000000E+00  0.74273945325E+02  0.74273945325E+02  0.00000000000E+00 0.  1.
          1   -1    0    0  501    0  0.00000000000E+00 -0.00000000000E+00 -0.35375357841E+03  0.35375357841E+03  0.00000000000E+00 0. -1.
         25    2    1    2    0    0 -0.79082831834E+02  0.83243665528E+02 -0.19060109240E+03  0.25526468339E+03  0.12509068717E+03 0.  0.
          5    1    3    3  502    0 -0.40040765912E+02 -0.22283219430E+01 -0.14543939877E+03  0.15092488022E+03  0.41800000000E+01 0. -1.
         -5    1    3    3    0  502 -0.39042065922E+02  0.85471987471E+02 -0.45161693633E+02  0.10433980317E+03  0.41800000000E+01 0. -1.
        -11    1    1    2    0    0  0.45659775483E+02 -0.51972672053E+02 -0.10369458608E+03  0.12465368394E+03  0.00000000000E+00 0.  1.
         11    1    1    2    0    0  0.33423056351E+02 -0.31270993475E+02  0.14816045403E+02  0.48109156406E+02  0.00000000000E+00 0. -1.
</event>
<event>
 7    1  0.2876190E-009  0.1870612E+03  0.7561462E-02  0.1161139E+00
         -2   -1    0    0    0  501 -0.00000000000E+00  0.00000000000E+00  0.82819099234E+02  0.82819099234E+02  0.00000000000E+00 0. -1.
          2   -1    0    0  501    0  0.00000000000E+00 -0.00000000000E+00 -0.50686517573E+03  0.50686517573E+03  0.00000000000E+00 0.  1.
         25    2    1    2    0    0 -0.14449673663E+03  0.91510831812E+02 -0.18070529164E+03  0.27848697896E+03  0.12508819205E+03 0.  0.
          5    1    3    3  502    0 -0.44734099867E+02 -0.11495680603E+02 -0.10825713067E+03  0.11777253120E+03  0.41800000000E+01 0.  1.
         -5    1    3    3    0  502 -0.99762636764E+02  0.10300651242E+03 -0.72448160966E+02  0.16071444777E+03  0.41800000000E+01 0.  1.
        -11    1    1    2    0    0  0.74305396356E+02 -0.86331238131E+02 -0.19494127133E+03  0.22577970209E+03  0.00000000000E+00 0.  1.
         11    1    1    2    0    0  0.70191340274E+02 -0.51795936811E+01 -0.48399513524E+02  0.85417593911E+02  0.00000000000E+00 0. -1.
</event>
<event>
 7    1  0.2556591E-009  0.1367679E+03  0.7561462E-02  0.1217745E+00
         -2   -1    0    0    0  501 -0.00000000000E+00  0.00000000000E+00  0.12565671793E+03  0.12565671793E+03  0.00000000000E+00 0. -1.
          2   -1    0    0  501    0  0.00000000000E+00 -0.00000000000E+00 -0.21792061785E+03  0.21792061785E+03  0.00000000000E+00 0.  1.
         25    2    1    2    0    0 -0.96707340810E+02  0.17381180738E+02  0.30404701265E+02  0.16194665298E+03  0.12509139595E+03 0.  0.
          5    1    3    3  502    0 -0.11490485734E+03 -0.44829802308E+01 -0.63961319962E+01  0.11524585136E+03  0.41800000000E+01 0.  1.
         -5    1    3    3    0  502  0.18197516528E+02  0.21864160969E+02  0.36800833261E+02  0.46700801614E+02  0.41800000000E+01 0.  1.
        -11    1    1    2    0    0  0.62676022947E+02  0.31506691647E+02 -0.43449672757E+02  0.82515632057E+02  0.00000000000E+00 0. -1.
         11    1    1    2    0    0  0.34031317863E+02 -0.48887872385E+02 -0.79218928427E+02  0.99115050739E+02  0.00000000000E+00 0.  1.
</event>
<event>
 7    1  0.2556591E-009  0.1176888E+03  0.7561462E-02  0.1246959E+00
         -4   -1    0    0    0  501 -0.00000000000E+00  0.00000000000E+00  0.42773269276E+03  0.42773269276E+03  0.00000000000E+00 0.  1.
          4   -1    0    0  501    0  0.00000000000E+00 -0.00000000000E+00 -0.37701287053E+02  0.37701287053E+02  0.00000000000E+00 0. -1.
         25    2    1    2    0    0 -0.30473089446E+02  0.66655342694E+02  0.24879504524E+03  0.28795496590E+03  0.12509014334E+03 0.  0.
          5    1    3    3  502    0  0.43999296347E+02  0.30561876794E+01  0.53677541693E+02  0.69599060657E+02  0.41800000000E+01 0. -1.
         -5    1    3    3    0  502 -0.74472385793E+02  0.63599155015E+02  0.19511750354E+03  0.21835590524E+03  0.41800000000E+01 0. -1.
        -11    1    1    2    0    0  0.26734923055E+02 -0.77287993430E+02  0.77217022963E+02  0.11247514692E+03  0.00000000000E+00 0. -1.
         11    1    1    2    0    0  0.37381663907E+01  0.10632650736E+02  0.64019337509E+02  0.65003866999E+02  0.00000000000E+00 0.  1.
</event>
<event>
 7    1  0.2556591E-009  0.9263462E+02  0.7561462E-02  0.1296594E+00
          2   -1    0    0  501    0  0.00000000000E+00  0.00000000000E+00  0.39014747327E+03  0.39014747327E+03  0.00000000000E+00 0. -1.
         -2   -1    0    0    0  501 -0.00000000000E+00 -0.00000000000E+00 -0.48215333630E+02  0.48215333630E+02  0.00000000000E+00 0.  1.
         25    2    1    2    0    0 -0.71918111834E+02  0.85481257028E+01  0.25311375920E+03  0.29147941489E+03  0.12509352079E+03 0.  0.
          5    1    3    3  502    0 -0.35771853613E+02  0.40566362516E+02  0.23261128816E+03  0.23885296535E+03  0.41800000000E+01 0.  1.
         -5    1    3    3    0  502 -0.36146258222E+02 -0.32018236813E+02  0.20502471044E+02  0.52626449538E+02  0.41800000000E+01 0.  1.
        -11    1    1    2    0    0  0.10526123789E+02 -0.17590634318E+02 -0.15365646213E+02  0.25618992589E+02  0.00000000000E+00 0.  1.
         11    1    1    2    0    0  0.61391988045E+02  0.90425086157E+01  0.10418402665E+03  0.12126439942E+03  0.00000000000E+00 0. -1.
</event>
<event>
 7    1  0.2556591E-009  0.9448722E+02  0.7561462E-02  0.1292335E+00
          2   -1    0    0  501    0  0.00000000000E+00  0.00000000000E+00  0.35811851836E+03  0.35811851836E+03  0.00000000000E+00 0. -1.
         -2   -1    0    0    0  501 -0.00000000000E+00 -0.00000000000E+00 -0.42345184653E+02  0.42345184653E+02  0.00000000000E+00 0.  1.
         25    2    1    2    0    0  0.30526428976E+02  0.24804281453E+02  0.24766765611E+03  0.28023737842E+03  0.12508639069E+03 0.  0.
          5    1    3    3  502    0  0.49328775320E+02  0.47770039838E+02  0.63419783662E+02  0.93567334794E+02  0.41800000000E+01 0.  1.
         -5    1    3    3    0  502 -0.18802346344E+02 -0.22965758385E+02  0.18424787244E+03  0.18667004362E+03  0.41800000000E+01 0.  1.
        -11    1    1    2    0    0 -0.30763698333E+02 -0.53389900428E+02  0.67828501197E+02  0.91638377208E+02  0.00000000000E+00 0. -1.
         11    1    1    2    0    0  0.23726935697E+00  0.28585618974E+02  0.27717639992E+00  0.28587947384E+02  0.00000000000E+00 0.  1.
</event>
<event>
 7    1  0.2556591E-009  0.9077889E+02  0.7561462E-02  0.1300976E+00
         -4   -1    0    0    0  501 -0.00000000000E+00  0.00000000000E+00  0.12260311982E+03  0.12260311982E+03  0.00000000000E+00 0.  1.
          4   -1    0    0  501    0  0.00000000000E+00 -0.00000000000E+00 -0.11717365471E+03  0.11717365471E+03  0.00000000000E+00 0. -1.
         25    2    1    2    0    0  0.32458284799E+02  0.31986367130E+02 -0.22036116836E+02  0.13493993318E+03  0.12508607912E+03 0.  0.
          5    1    3    3  502    0 -0.48155918365E+02  0.15220589289E+02 -0.90385733901E+01  0.51476470555E+02  0.41800000000E+01 0.  1.
         -5    1    3    3    0  502  0.80614203165E+02  0.16765777841E+02 -0.12997543446E+02  0.83463462629E+02  0.41800000000E+01 0.  1.
        -11    1    1    2    0    0 -0.12250649618E+02 -0.23534152684E+02  0.60006644378E+02  0.65610457460E+02  0.00000000000E+00 0.  1.
         11    1    1    2    0    0 -0.20207635181E+02 -0.84522144451E+01 -0.32541062436E+02  0.39226383890E+02  0.00000000000E+00 0. -1.
</event>
<event>
 7    1  0.2556591E-009  0.1130632E+03  0.7561462E-02  0.1255000E+00
         -2   -1    0    0    0  501 -0.00000000000E+00  0.00000000000E+00  0.10376158812E+04  0.10376158812E+04  0.00000000000E+00 0.  1.
          2   -1    0    0  501    0  0.00000000000E+00 -0.00000000000E+00 -0.15555392099E+02  0.15555392099E+02  0.00000000000E+00 0. -1.
         25    2    1    2    0    0 -0.22096834620E+02  0.36533462194E+02  0.78041136733E+03  0.79152520991E+03  0.12508913505E+03 0.  0.
          5    1    3    3  502    0  0.65521884117E+01 -0.42782757338E+02  0.36792991035E+03  0.37049046793E+03  0.41800000000E+01 0. -1.
         -5    1    3    3    0  502 -0.28649023031E+02  0.79316219532E+02  0.41248145698E+03  0.42103474198E+03  0.41800000000E+01 0. -1.
        -11    1    1    2    0    0  0.53493575221E+02 -0.39752501146E+02  0.18721277600E+03  0.19872203560E+03  0.00000000000E+00 0. -1.
         11    1    1    2    0    0 -0.31396740602E+02  0.32190389522E+01  0.54436345819E+02  0.62924027830E+02  0.00000000000E+00 0.  1.
</event>
<event>
 7    1  0.2556591E-009  0.8274463E+02  0.7561462E-02  0.1321438E+00
          2   -1    0    0  501    0  0.00000000000E+00  0.00000000000E+00  0.15017021835E+04  0.15017021835E+04  0.00000000000E+00 0. -1.
         -2   -1    0    0    0  501 -0.00000000000E+00 -0.00000000000E+00 -0.13905331909E+02  0.13905331909E+02  0.00000000000E+00 0.  1.
         25    2    1    2    0    0 -0.30094998481E+02  0.31626900222E+02  0.12732640827E+04  0.12801386228E+04  0.12508996529E+03 0.  0.
          5    1    3    3  502    0 -0.53807452975E+02  0.21942624593E+02  0.12145265714E+04  0.12159231003E+04  0.41800000000E+01 0. -1.
         -5    1    3    3    0  502  0.23712454493E+02  0.96842756290E+01  0.58737511350E+02  0.64215522517E+02  0.41800000000E+01 0. -1.
        -11    1    1    2    0    0  0.19954994715E+01 -0.48473334291E+02  0.18534948083E+03  0.19159351816E+03  0.00000000000E+00 0. -1.
         11    1    1    2    0    0  0.28099499010E+02  0.16846434069E+02  0.29183288056E+02  0.43875374496E+02  0.00000000000E+00 0.  1.
</event>
<event>
 7    1  0.2556591E-009  0.1375113E+03  0.7561462E-02  0.1216717E+00
          2   -1    0    0  501    0  0.00000000000E+00  0.00000000000E+00  0.50120094345E+03  0.50120094345E+03  0.00000000000E+00 0. -1.
         -2   -1    0    0    0  501 -0.00000000000E+00 -0.00000000000E+00 -0.88140212638E+02  0.88140212638E+02  0.00000000000E+00 0.  1.
         25    2    1    2    0    0 -0.98090635481E+02 -0.27954104015E+02  0.42290069300E+03  0.45265438306E+03  0.12509112544E+03 0.  0.
          5    1    3    3  502    0 -0.12668078956E+03 -0.19688502365E+02  0.30274532400E+03  0.32879760214E+03  0.41800000000E+01 0. -1.
         -5    1    3    3    0  502  0.28590154079E+02 -0.82656016506E+01  0.12015536900E+03  0.12385678092E+03  0.41800000000E+01 0. -1.
        -11    1    1    2    0    0  0.38677986403E+02 -0.16947652354E+02 -0.38253881789E+02  0.56978671663E+02  0.00000000000E+00 0.  1.
         11    1    1    2    0    0  0.59412649077E+02  0.44901756369E+02  0.28413919596E+02  0.79708101359E+02  0.00000000000E+00 0. -1.
</event>
<event>
 7    1  0.2556591E-009  0.9366789E+02  0.7561462E-02  0.1294205E+00
          1   -1    0    0  501    0  0.00000000000E+00  0.00000000000E+00  0.78796296122E+02  0.78796296122E+02  0.00000000000E+00 0. -1.
         -1   -1    0    0    0  501 -0.00000000000E+00 -0.00000000000E+00 -0.18429405092E+03  0.18429405092E+03  0.00000000000E+00 0.  1.
         25    2    1    2    0    0 -0.16919553914E+02  0.30858448317E+02 -0.15446208093E+02  0.13086350977E+03  0.12509259653E+03 0.  0.
          5    1    3    3  502    0  0.45637986547E+02 -0.16034517184E+02  0.78365890586E+01  0.49181460790E+02  0.41800000000E+01 0.  1.
         -5    1    3    3    0  502 -0.62557540460E+02  0.46892965501E+02 -0.23282797152E+02  0.81682048977E+02  0.41800000000E+01 0.  1.
        -11    1    1    2    0    0  0.90492055969E+00  0.13395838980E+02  0.13154620135E+02  0.18796579851E+02  0.00000000000E+00 0. -1.
         11    1    1    2    0    0  0.16014633354E+02 -0.44254287297E+02 -0.10320616684E+03  0.11343025743E+03  0.00000000000E+00 0.  1.
</event>
<event>
 7    1  0.2556591E-009  0.9309952E+02  0.7561462E-02  0.1295515E+00
         -3   -1    0    0    0  501 -0.00000000000E+00  0.00000000000E+00  0.49800129110E+03  0.49800129110E+03  0.00000000000E+00 0.  1.
          3   -1    0    0  501    0  0.00000000000E+00 -0.00000000000E+00 -0.26224849352E+02  0.26224849352E+02  0.00000000000E+00 0. -1.
         25    2    1    2    0    0  0.27754608977E+02 -0.19613006842E+02  0.23410328286E+03  0.26759684353E+03  0.12509490504E+03 0.  0.
          5    1    3    3  502    0  0.37439053360E+02 -0.53771099007E+02  0.57073634058E+02  0.86993596945E+02  0.41800000000E+01 0.  1.
         -5    1    3    3    0  502 -0.96844443827E+01  0.34158092165E+02  0.17702964880E+03  0.18060324659E+03  0.41800000000E+01 0.  1.
        -11    1    1    2    0    0  0.27370542787E+02  0.65234690087E+01  0.14730722440E+03  0.14997039915E+03  0.00000000000E+00 0.  1.
         11    1    1    2    0    0 -0.55125151765E+02  0.13089537833E+02  0.90365934490E+02  0.10665889777E+03  0.00000000000E+00 0. -1.
</event>
<event>
 7    1  0.2556591E-009  0.1084667E+03  0.7561462E-02  0.1263436E+00
          1   -1    0    0  501    0  0.00000000000E+00  0.00000000000E+00  0.28167769979E+04  0.28167769979E+04  0.00000000000E+00 0. -1.
         -1   -1    0    0    0  501 -0.00000000000E+00 -0.00000000000E+00 -0.70769996888E+01  0.70769996888E+01  0.00000000000E+00 0.  1.
         25    2    1    2    0    0 -0.69806195098E+01  0.12375657060E+02  0.24260378801E+04  0.24293021235E+04  0.12508847145E+03 0.  0.
          5    1    3    3  502    0  0.85629123524E+01  0.67321308093E+02  0.11935169488E+04  0.11954520741E+04  0.41800000000E+01 0. -1.
         -5    1    3    3    0  502 -0.15543531862E+02 -0.54945651033E+02  0.12325209313E+04  0.12338500494E+04  0.41800000000E+01 0. -1.
        -11    1    1    2    0    0  0.31497067008E+02  0.29504702249E+02  0.16301992979E+03  0.16863596946E+03  0.00000000000E+00 0.  1.
         11    1    1    2    0    0 -0.24516447498E+02 -0.41880359309E+02  0.22064218830E+03  0.22591590460E+03  0.00000000000E+00 0. -1.
</event>
<event>
 7    1  0.2556591E-009  0.2260907E+03  0.7561462E-02  0.1129422E+00
         -1   -1    0    0    0  501 -0.00000000000E+00  0.00000000000E+00  0.32662839995E+02  0.32662839995E+02  0.00000000000E+00 0.  1.
          1   -1    0    0  501    0  0.00000000000E+00 -0.00000000000E+00 -0.18689201563E+04  0.18689201563E+04  0.00000000000E+00 0. -1.
         25    2    1    2    0    0 -0.16503317613E+03 -0.13476276188E+03 -0.11740368497E+04  0.11997526996E+04  0.12508822690E+03 0.  0.
          5    1    3    3  502    0 -0.41276425996E+02  0.11758477471E-01 -0.76179115594E+02  0.86743723311E+02  0.41800000000E+01 0.  1.
         -5    1    3    3    0  502 -0.12375675014E+03 -0.13477452035E+03 -0.10978577341E+04  0.11130089763E+04  0.41800000000E+01 0.  1.
        -11    1    1    2    0    0  0.39745525646E+02 -0.49009424865E+01 -0.70550071469E+02  0.81123600946E+02  0.00000000000E+00 0.  1.
         11    1    1    2    0    0  0.12528765048E+03  0.13966370436E+03 -0.59167039513E+03  0.62070669575E+03  0.00000000000E+00 0. -1.
</event>
<event>
 7    1  0.2556591E-009  0.1434776E+03  0.7561462E-02  0.1208725E+00
         -1   -1    0    0    0  501 -0.00000000000E+00  0.00000000000E+00  0.67721919936E+02  0.67721919936E+02  0.00000000000E+00 0.  1.
          1   -1    0    0  501    0  0.00000000000E+00 -0.00000000000E+00 -0.32691285486E+03  0.32691285486E+03  0.00000000000E+00 0. -1.
         25    2    1    2    0    0 -0.10063695480E+03  0.10017223725E+02 -0.12622217065E+03  0.20446769002E+03  0.12508740326E+03 0.  0.
          5    1    3    3  502    0 -0.11926878509E+03 -0.21522448421E+02 -0.11160196810E+03  0.16480512906E+03  0.41800000000E+01 0. -1.
         -5    1    3    3    0  502  0.18631830286E+02  0.31539672145E+02 -0.14620202552E+02  0.39662560955E+02  0.41800000000E+01 0. -1.
        -11    1    1    2    0    0  0.10940941065E+03  0.70419853178E+01 -0.13108875118E+03  0.17089256678E+03  0.00000000000E+00 0. -1.
         11    1    1    2    0    0 -0.87724558465E+01 -0.17059209042E+02 -0.18800130937E+01  0.19274517996E+02  0.00000000000E+00 0.  1.
</event>
<event>
 7    1  0.2556591E-009  0.8305844E+02  0.7561462E-02  0.1320589E+00
          3   -1    0    0  501    0  0.00000000000E+00  0.00000000000E+00  0.25273937571E+02  0.25273937571E+02  0.00000000000E+00 0. -1.
         -3   -1    0    0    0  501 -0.00000000000E+00 -0.00000000000E+00 -0.78760269748E+03  0.78760269748E+03  0.00000000000E+00 0.  1.
         25    2    1    2    0    0 -0.57078462877E+02  0.39661482212E+01 -0.61653900251E+03  0.63169623121E+03  0.12508439410E+03 0.  0.
          5    1    3    3  502    0 -0.13365902619E+02  0.10811156436E+02 -0.47815326110E+01  0.18326590257E+02  0.41800000000E+01 0.  1.
         -5    1    3    3    0  502 -0.43712560258E+02 -0.68450082152E+01 -0.61175746990E+03  0.61336964095E+03  0.41800000000E+01 0.  1.
        -11    1    1    2    0    0  0.36994844345E+02 -0.45025681603E+02 -0.58080259370E+02  0.82275434003E+02  0.00000000000E+00 0.  1.
         11    1    1    2    0    0  0.20083618532E+02  0.41059533382E+02 -0.87709498028E+02  0.98904969841E+02  0.00000000000E+00 0. -1.
</event>
<event>
 7    1  0.2556591E-009  0.9386925E+02  0.7561462E-02  0.1293743E+00
          1   -1    0    0  501    0  0.00000000000E+00  0.00000000000E+00  0.20895677726E+03  0.20895677726E+03  0.00000000000E+00 0. -1.
         -1   -1    0    0    0  501 -0.00000000000E+00 -0.00000000000E+00 -0.65901686451E+02  0.65901686451E+02  0.00000000000E+00 0.  1.
         25    2    1    2    0    0  0.13379177288E+02  0.20423014750E+02  0.13169960699E+03  0.18327409425E+03  0.12509398558E+03 0.  0.
          5    1    3    3  502    0 -0.46366798169E+02 -0.14006153610E+02  0.21380349719E+02  0.53109736071E+02  0.41800000000E+01 0.  1.
         -5    1    3    3    0  502  0.59745975457E+02  0.34429168360E+02  0.11031925727E+03  0.13016435818E+03  0.41800000000E+01 0.  1.
        -11    1    1    2    0    0  0.22664528913E+02 -0.24956348191E+02 -0.23614643838E+02  0.41160072758E+02  0.00000000000E+00 0.  1.
         11    1    1    2    0    0 -0.36043706200E+02  0.45333334406E+01  0.34970127655E+02  0.50424296693E+02  0.00000000000E+00 0. -1.
</event>
<event>
 7    1  0.2556591E-009  0.1381194E+03  0.7561462E-02  0.1215882E+00
          1   -1    0    0  501    0  0.00000000000E+00  0.00000000000E+00  0.29239335022E+03  0.29239335022E+03  0.00000000000E+00 0. -1.
         -1   -1    0    0    0  501 -0.00000000000E+00 -0.00000000000E+00 -0.94426610210E+02  0.94426610210E+02  0.00000000000E+00 0.  1.
         25    2    1    2    0    0 -0.87376347419E+02  0.73084887687E+02  0.16668045631E+03  0.23749737795E+03  0.12508638263E+03 0.  0.
          5    1    3    3  502    0 -0.77996923641E+02  0.84912444648E+02  0.60702836986E+02  0.13036851680E+03  0.41800000000E+01 0. -1.
         -5    1    3    3    0  502 -0.93794237775E+01 -0.11827556961E+02  0.10597761932E+03  0.10712886115E+03  0.41800000000E+01 0. -1.
        -11    1    1    2    0    0 -0.26556178003E+00 -0.55888064473E+02  0.19709828591E+02  0.59262328816E+02  0.00000000000E+00 0. -1.
         11    1    1    2    0    0  0.87641909199E+02 -0.17196823214E+02  0.11576455105E+02  0.90060253661E+02  0.00000000000E+00 0.  1.
</event>
<event>
 7    1  0.2694433E-009  0.1443191E+03  0.7561462E-02  0.1207633E+00
          2   -1    0    0  501    0  0.00000000000E+00  0.00000000000E+00  0.12033675363E+04  0.12033675363E+04  0.00000000000E+00 0. -1.
         -2   -1    0    0    0  501 -0.00000000000E+00 -0.00000000000E+00 -0.19771987878E+02  0.19771987878E+02  0.00000000000E+00 0.  1.
         25    2    1    2    0    0  0.15679769652E+02 -0.10679444794E+03  0.70212029681E+03  0.72129794922E+03  0.12508761355E+03 0.  0.
          5    1    3    3  502    0  0.53300661013E+02 -0.11325286477E+03  0.49144080968E+03  0.50714762512E+03  0.41800000000E+01 0.  1.
         -5    1    3    3    0  502 -0.37620891361E+02  0.64584168304E+01  0.21067948713E+03  0.21415032410E+03  0.41800000000E+01 0.  1.
        -11    1    1    2    0    0  0.23900692651E+02  0.27926041272E+02  0.53802187784E+02  0.65159667746E+02  0.00000000000E+00 0.  1.
         11    1    1    2    0    0 -0.39580462303E+02  0.78868406663E+02  0.42767306383E+03  0.43668190722E+03  0.00000000000E+00 0. -1.
</event>
<event>
 7    1  0.2556591E-009  0.1115821E+03  0.7561462E-02  0.1257668E+00
          2   -1    0    0  501    0  0.00000000000E+00  0.00000000000E+00  0.60579030773E+03  0.60579030773E+03  0.00000000000E+00 0. -1.
         -2   -1    0    0    0  501 -0.00000000000E+00 -0.00000000000E+00 -0.52138977894E+02  0.52138977894E+02  0.00000000000E+00 0.  1.
         25    2    1    2    0    0  0.21180746276E+02  0.58286390676E+02  0.52637175602E+03  0.54457265554E+03  0.12508486829E+03 0.  0.
          5    1    3    3  502    0 -0.45126597845E+02  0.33799082014E+02  0.34968420895E+03  0.35422493724E+03  0.41800000000E+01 0.  1.
         -5    1    3    3    0  502  0.66307344122E+02  0.24487308662E+02  0.17668754707E+03  0.19034771830E+03  0.41800000000E+01 0.  1.
        -11    1    1    2    0    0 -0.32693238605E+02 -0.71304593722E+02 -0.29389616101E+01  0.78497327545E+02  0.00000000000E+00 0.  1.
         11    1    1    2    0    0  0.11512492329E+02  0.13018203046E+02  0.30218535426E+02  0.34859302539E+02  0.00000000000E+00 0. -1.
</event>
<event>
 7    1  0.2556591E-009  0.9690982E+02  0.7561462E-02  0.1286932E+00
          1   -1    0    0  501    0  0.00000000000E+00  0.00000000000E+00  0.11051212908E+03  0.11051212908E+03  0.00000000000E+00 0. -1.
         -1   -1    0    0    0  501 -0.00000000000E+00 -0.00000000000E+00 -0.11107583268E+03  0.11107583268E+03  0.00000000000E+00 0.  1.
         25    2    1    2    0    0  0.21766476135E+02  0.15845962590E+02 -0.16730799060E+01  0.12796626305E+03  0.12509073214E+03 0.  0.
          5    1    3    3  502    0  0.18259321067E+02  0.64202918594E+02 -0.28154012051E+02  0.72564029356E+02  0.41800000000E+01 0. -1.
         -5    1    3    3    0  502  0.35071550677E+01 -0.48356956004E+02  0.26480932145E+02  0.55402233691E+02  0.41800000000E+01 0. -1.
        -11    1    1    2    0    0  0.67040730677E+01 -0.40233666643E+02  0.26230972939E+02  0.48494911780E+02  0.00000000000E+00 0. -1.
         11    1    1    2    0    0 -0.28470549203E+02  0.24387704053E+02 -0.25121596636E+02  0.45126786928E+02  0.00000000000E+00 0.  1.
</event>
<event>
 7    1  0.2556591E-009  0.6797692E+02  0.7561462E-02  0.1367111E+00
          2   -1    0    0  501    0  0.00000000000E+00  0.00000000000E+00  0.10979892082E+04  0.10979892082E+04  0.00000000000E+00 0. -1.
         -2   -1    0    0    0  501 -0.00000000000E+00 -0.00000000000E+00 -0.18550838169E+02  0.18550838169E+02  0.00000000000E+00 0.  1.
         25    2    1    2    0    0  0.40516278557E+02  0.10493921183E+02  0.93101249951E+03  0.94030960595E+03  0.12508472965E+03 0.  0.
          5    1    3    3  502    0  0.16273424636E+02  0.26150993942E+02  0.88681239189E+03  0.88735696856E+03  0.41800000000E+01 0.  1.
         -5    1    3    3    0  502  0.24242853921E+02 -0.15657072760E+02  0.44200107622E+02  0.52952637398E+02  0.41800000000E+01 0.  1.
        -11    1    1    2    0    0 -0.22690528047E+02 -0.37216173251E+02  0.28502951132E+02  0.52079956200E+02  0.00000000000E+00 0.  1.
         11    1    1    2    0    0 -0.17825750510E+02  0.26722252068E+02  0.11992291940E+03  0.12415048423E+03  0.00000000000E+00 0. -1.
</event>
<event>
 7    1  0.2556591E-009  0.2531182E+03  0.7561462E-02  0.1111350E+00
         -1   -1    0    0    0  501 -0.00000000000E+00  0.00000000000E+00  0.59147551711E+02  0.59147551711E+02  0.00000000000E+00 0.  1.
          1   -1    0    0  501    0  0.00000000000E+00 -0.00000000000E+00 -0.11865060496E+04  0.11865060496E+04  0.00000000000E+00 0. -1.
         25    2    1    2    0    0 -0.22576153952E+03 -0.85000106982E+02 -0.58261235695E+03  0.64286639195E+03  0.12508696380E+03 0.  0.
          5    1    3    3  502    0 -0.97603190714E+02 -0.65909677355E+01 -0.36836826567E+03  0.38115938300E+03  0.41800000000E+01 0.  1.
         -5    1    3    3    0  502 -0.12815834881E+03 -0.78409139246E+02 -0.21424409128E+03  0.26170700895E+03  0.41800000000E+01 0.  1.
        -11    1    1    2    0    0  0.13524936282E+03  0.20741485139E+01 -0.29183261318E+03  0.32165659693E+03  0.00000000000E+00 0.  1.
         11    1    1    2    0    0  0.90512176700E+02  0.82925958468E+02 -0.25291352774E+03  0.28113061240E+03  0.00000000000E+00 0. -1.
</event>
<event>
 7    1  0.2556591E-009  0.1451004E+03  0.7561462E-02  0.1206626E+00
         -2   -1    0    0    0  501 -0.00000000000E+00  0.00000000000E+00  0.12439719746E+03  0.12439719746E+03  0.00000000000E+00 0.  1.
          2   -1    0    0  501    0  0.00000000000E+00 -0.00000000000E+00 -0.46275772670E+03  0.46275772670E+03  0.00000000000E+00 0. -1.
         25    2    1    2    0    0  0.10246701796E+03  0.61067275447E+02  0.41937591838E+02  0.17786304692E+03  0.12509116655E+03 0.  0.
          5    1    3    3  502    0  0.13500938163E+02  0.78342194765E+02  0.45487570586E+01  0.79736681663E+02  0.41800000000E+01 0.  1.
         -5    1    3    3    0  502  0.88966079800E+02 -0.17274919318E+02  0.37388834780E+02  0.98126365257E+02  0.41800000000E+01 0.  1.
        -11    1    1    2    0    0 -0.46992233452E+02 -0.21185279679E+02 -0.29755319817E+03  0.30198508543E+03  0.00000000000E+00 0. -1.
         11    1    1    2    0    0 -0.55474784511E+02 -0.39881995769E+02 -0.82744922906E+02  0.10730679182E+03  0.00000000000E+00 0.  1.
</event>
<event>
 7    1  0.2556591E-009  0.1386592E+03  0.7561462E-02  0.1215145E+00
         -1   -1    0    0    0  501 -0.00000000000E+00  0.00000000000E+00  0.15708913406E+03  0.15708913406E+03  0.00000000000E+00 0.  1.
          1   -1    0    0  501    0  0.00000000000E+00 -0.00000000000E+00 -0.14932332448E+03  0.14932332448E+03  0.00000000000E+00 0. -1.
         25    2    1    2    0    0 -0.51224389832E+02  0.90672991335E+02  0.32603909309E+02  0.16599719310E+03  0.12508606534E+03 0.  0.
          5    1    3    3  502    0 -0.16335197238E+02  0.10668182876E+03  0.55161945922E+02  0.12127721936E+03  0.41800000000E+01 0.  1.
         -5    1    3    3    0  502 -0.34889192594E+02 -0.16008837428E+02 -0.22558036613E+02  0.44719973742E+02  0.41800000000E+01 0.  1.
        -11    1    1    2    0    0  0.71994260463E+02 -0.60341969932E+02 -0.38051147647E+02  0.10135194479E+03  0.00000000000E+00 0. -1.
         11    1    1    2    0    0 -0.20769870631E+02 -0.30331021403E+02  0.13213047923E+02  0.39063320658E+02  0.00000000000E+00 0.  1.
</event>
<event>
 7    1  0.2556591E-009  0.1008185E+03  0.7561462E-02  0.1278584E+00
         -2   -1    0    0    0  501 -0.00000000000E+00  0.00000000000E+00  0.39066264098E+03  0.39066264098E+03  0.00000000000E+00 0.  1.
          2   -1    0    0  501    0  0.00000000000E+00 -0.00000000000E+00 -0.42115027707E+02  0.42115027707E+02  0.00000000000E+00 0. -1.
         25    2    1    2    0    0 -0.12146653005E+02 -0.20982078467E+02  0.30318725253E+03  0.32887442329E+03  0.12509231552E+03 0.  0.
          5    1    3    3  502    0 -0.52976495962E+02  0.28690276064E+02  0.11388880838E+03  0.12890994585E+03  0.41800000000E+01 0. -1.
         -5    1    3    3    0  502  0.40829842957E+02 -0.49672354531E+02  0.18929844414E+03  0.19996447744E+03  0.41800000000E+01 0. -1.
        -11    1    1    2    0    0  0.18910763570E+02  0.46612521912E+02  0.56057809954E+02  0.75318140143E+02  0.00000000000E+00 0.  1.
         11    1    1    2    0    0 -0.67641105651E+01 -0.25630443445E+02 -0.10697449208E+02  0.28585105255E+02  0.00000000000E+00 0. -1.
</event>
<event>
 7    1  0.2556591E-009  0.9700229E+02  0.7561462E-02  0.1286729E+00
         -1   -1    0    0    0  501 -0.00000000000E+00  0.00000000000E+00  0.15692997219E+02  0.15692997219E+02  0.00000000000E+00 0.  1.
          1   -1    0    0  501    0  0.00000000000E+00 -0.00000000000E+00 -0.17446238411E+04  0.17446238411E+04  0.00000000000E+00 0. -1.
         25    2    1    2    0    0  0.55897602798E+02 -0.18646972881E+02 -0.14954494412E+04  0.15018276528E+04  0.12508003814E+03 0.  0.
          5    1    3    3  502    0  0.90200205665E+01  0.46314227365E+02 -0.30272329152E+03  0.30640697129E+03  0.41800000000E+01 0.  1.
         -5    1    3    3    0  502  0.46877582232E+02 -0.64961200245E+02 -0.11927261497E+04  0.11954206816E+04  0.41800000000E+01 0.  1.
        -11    1    1    2    0    0 -0.18766699113E+02 -0.83186858561E+01  0.13308765738E-01  0.20527778913E+02  0.00000000000E+00 0.  1.
         11    1    1    2    0    0 -0.37130903685E+02  0.26965658737E+02 -0.23349471145E+03  0.23796140661E+03  0.00000000000E+00 0. -1.
</event>
<event>
 7    1  0.2556591E-009  0.2592905E+03  0.7561462E-02  0.1107570E+00
          1   -1    0    0  501    0  0.00000000000E+00  0.00000000000E+00  0.38107282013E+03  0.38107282013E+03  0.00000000000E+00 0. -1.
         -1   -1    0    0    0  501 -0.00000000000E+00 -0.00000000000E+00 -0.21518092339E+03  0.21518092339E+03  0.00000000000E+00 0.  1.
         25    2    1    2    0    0 -0.19627586190E+03 -0.14212685534E+03  0.19665626540E+03  0.33622272140E+03  0.12509106559E+03 0.  0.
          5    1    3    3  502    0 -0.11675146294E+02  0.18135464216E+02 -0.74675912056E+00  0.21982587484E+02  0.41800000000E+01 0. -1.
         -5    1    3    3    0  502 -0.18460071561E+03 -0.16026231955E+03  0.19740302452E+03  0.31424013391E+03  0.41800000000E+01 0. -1.
        -11    1    1    2    0    0  0.74331455727E+02  0.14760473491E+02 -0.35390640421E+02  0.83639310839E+02  0.00000000000E+00 0. -1.
         11    1    1    2    0    0  0.12194440617E+03  0.12736638185E+03  0.46262717592E+01  0.17639171129E+03  0.00000000000E+00 0.  1.
</event>
<event>
 7    1  0.2556591E-009  0.7591725E+02  0.7561462E-02  0.1341054E+00
          3   -1    0    0  501    0  0.00000000000E+00  0.00000000000E+00  0.13587153623E+02  0.13587153623E+02  0.00000000000E+00 0. -1.
         -3   -1    0    0    0  501 -0.00000000000E+00 -0.00000000000E+00 -0.10041545388E+04  0.10041545388E+04  0.00000000000E+00 0.  1.
         25    2    1    2    0    0 -0.75400032604E+01 -0.33655357146E+01 -0.77806062880E+03  0.78809385430E+03  0.12508158384E+03 0.  0.
          5    1    3    3  502    0  0.16332584166E+02 -0.35231870041E+02 -0.69281435684E+03  0.69391443523E+03  0.41800000000E+01 0. -1.
         -5    1    3    3    0  502 -0.23872587427E+02  0.31866334327E+02 -0.85246271961E+02  0.94179419074E+02  0.41800000000E+01 0. -1.
        -11    1    1    2    0    0 -0.10472251091E+02  0.34893319272E+02 -0.16946139719E+03  0.17333313852E+03  0.00000000000E+00 0.  1.
         11    1    1    2    0    0  0.18012254351E+02 -0.31527783558E+02 -0.43045359167E+02  0.56314699579E+02  0.00000000000E+00 0. -1.
</event>
<event>
 7    1  0.2556591E-009  0.1092809E+03  0.7561462E-02  0.1261907E+00
         -2   -1    0    0    0  501 -0.00000000000E+00  0.00000000000E+00  0.35406633401E+02  0.35406633401E+02  0.00000000000E+00 0.  1.
          2   -1    0    0  501    0  0.00000000000E+00 -0.00000000000E+00 -0.43740791406E+03  0.43740791406E+03  0.00000000000E+00 0. -1.
         25    2    1    2    0    0 -0.22201335920E+02 -0.30674043789E+02 -0.31750890961E+03  0.34335708246E+03  0.12509349349E+03 0.  0.
          5    1    3    3  502    0  0.46645841351E+02 -0.39362762815E+02 -0.14953624840E+03  0.16156677751E+03  0.41800000000E+01 0.  1.
         -5    1    3    3    0  502 -0.68847177272E+02  0.86887190258E+01 -0.16797266122E+03  0.18179030495E+03  0.41800000000E+01 0.  1.
        -11    1    1    2    0    0  0.45133178069E+02  0.42560502740E+02 -0.29481475538E+02  0.68684478276E+02  0.00000000000E+00 0.  1.
         11    1    1    2    0    0 -0.22931842149E+02 -0.11886458951E+02 -0.55010895504E+02  0.60772986720E+02  0.00000000000E+00 0. -1.
</event>
<event>
 7    1  0.2556591E-009  0.1134781E+03  0.7561462E-02  0.1254261E+00
          1   -1    0    0  501    0  0.00000000000E+00  0.00000000000E+00  0.17247477928E+03  0.17247477928E+03  0.00000000000E+00 0. -1.
         -1   -1    0    0    0  501 -0.00000000000E+00 -0.00000000000E+00 -0.13195366349E+03  0.13195366349E+03  0.00000000000E+00 0.  1.
         25    2    1    2    0    0  0.73685037605E+02  0.56081863337E+02  0.52318880008E+02  0.16419704589E+03  0.12509494199E+03 0.  0.
          5    1    3    3  502    0  0.43983237534E+02  0.11187274008E+02  0.88262292542E+02  0.99334711801E+02  0.41800000000E+01 0.  1.
         -5    1    3    3    0  502  0.29701800071E+02  0.44894589329E+02 -0.35943412535E+02  0.64862334086E+02  0.41800000000E+01 0.  1.
        -11    1    1    2    0    0 -0.69283167969E+02  0.18316554892E+01  0.22392033845E+02  0.72834850898E+02  0.00000000000E+00 0. -1.
         11    1    1    2    0    0 -0.44018696356E+01 -0.57913518826E+02 -0.34189798068E+02  0.67396545987E+02  0.00000000000E+00 0.  1.
</event>
<event>
 7    1  0.2556591E-009  0.1785976E+03  0.7561462E-02  0.1169167E+00
         -1   -1    0    0    0  501 -0.00000000000E+00  0.00000000000E+00  0.17059660886E+03  0.17059660886E+03  0.00000000000E+00 0.  1.
          1   -1    0    0  501    0  0.00000000000E+00 -0.00000000000E+00 -0.22202153381E+03  0.22202153381E+03  0.00000000000E+00 0. -1.
         25    2    1    2    0    0 -0.29000232995E+02  0.15513353434E+03  0.77765008496E+01  0.20153351897E+03  0.12509139983E+03 0.  0.
          5    1    3    3  502    0  0.43061465465E+02  0.44877231074E+02 -0.22579931647E+02  0.66299180916E+02  0.41800000000E+01 0. -1.
         -5    1    3    3    0  502 -0.72061698460E+02  0.11025630326E+03  0.30356432497E+02  0.13523433805E+03  0.41800000000E+01 0. -1.
        -11    1    1    2    0    0 -0.10634102668E+02 -0.33840811296E+02  0.20173564795E+02  0.40807565049E+02  0.00000000000E+00 0. -1.
         11    1    1    2    0    0  0.39634335663E+02 -0.12129272304E+03 -0.79374990595E+02  0.15027705866E+03  0.00000000000E+00 0.  1.
</event>
<event>
 7    1  0.2556591E-009  0.1868256E+03  0.7561462E-02  0.1161356E+00
          2   -1    0    0  501    0  0.00000000000E+00  0.00000000000E+00  0.65813819155E+03  0.65813819155E+03  0.00000000000E+00 0. -1.
         -2   -1    0    0    0  501 -0.00000000000E+00 -0.00000000000E+00 -0.84957799067E+02  0.84957799067E+02  0.00000000000E+00 0.  1.
         25    2    1    2    0    0  0.14725784256E+03  0.71409530836E+02  0.90353134569E+02  0.22493482098E+03  0.12509113268E+03 0.  0.
          5    1    3    3  502    0  0.11292882839E+03  0.76446511317E+01  0.56354370137E+01  0.11340454807E+03  0.41800000000E+01 0. -1.
         -5    1    3    3    0  502  0.34329014169E+02  0.63764879705E+02  0.84717697556E+02  0.11153027292E+03  0.41800000000E+01 0. -1.
        -11    1    1    2    0    0 -0.14882625671E+03 -0.86859098795E+02  0.44933690263E+03  0.48124568548E+03  0.00000000000E+00 0. -1.
         11    1    1    2    0    0  0.15684141516E+01  0.15449567958E+02  0.33490355284E+02  0.36915484151E+02  0.00000000000E+00 0.  1.
</event>
<event>
 7    1  0.2556591E-009  0.9813330E+02  0.7561462E-02  0.1284271E+00
          1   -1    0    0  501    0  0.00000000000E+00  0.00000000000E+00  0.32996950258E+03  0.32996950258E+03  0.00000000000E+00 0. -1.
         -1   -1    0    0    0  501 -0.00000000000E+00 -0.00000000000E+00 -0.48474219571E+02  0.48474219571E+02  0.00000000000E+00 0.  1.
         25    2    1    2    0    0 -0.40238576823E+02  0.21051616943E+02  0.22714298179E+03  0.26325753736E+03  0.12509309796E+03 0.  0.
          5    1    3    3  502    0  0.14708325496E+02  0.59106533203E+02  0.72798361107E+02  0.95010477770E+02  0.41800000000E+01 0.  1.
         -5    1    3    3    0  502 -0.54946902319E+02 -0.38054916260E+02  0.15434462069E+03  0.16824705959E+03  0.41800000000E+01 0.  1.
        -11    1    1    2    0    0  0.30052805368E+01  0.15666828068E+02 -0.19185407675E+02  0.24951173930E+02  0.00000000000E+00 0.  1.
         11    1    1    2    0    0  0.37233296286E+02 -0.36718445011E+02  0.73537708888E+02  0.90235010859E+02  0.00000000000E+00 0. -1.
</event>
<event>
 7    1  0.2556591E-009  0.1014695E+03  0.7561462E-02  0.1277236E+00
          3   -1    0    0  501    0  0.00000000000E+00  0.00000000000E+00  0.43748979536E+03  0.43748979536E+03  0.00000000000E+00 0. -1.
         -3   -1    0    0    0  501 -0.00000000000E+00 -0.00000000000E+00 -0.33243644665E+02  0.33243644665E+02  0.00000000000E+00 0.  1.
         25    2    1    2    0    0  0.29970443371E+02  0.40715939140E+02  0.25834511872E+03  0.29145536597E+03  0.12509202537E+03 0.  0.
          5    1    3    3  502    0  0.69688324296E+02  0.93675841052E+01  0.82763631416E+02  0.10868074926E+03  0.41800000000E+01 0.  1.
         -5    1    3    3    0  502 -0.39717880926E+02  0.31348355035E+02  0.17558148731E+03  0.18277461671E+03  0.41800000000E+01 0.  1.
        -11    1    1    2    0    0 -0.22429735078E+02 -0.58370206424E+02  0.46203756194E+02  0.77749347907E+02  0.00000000000E+00 0.  1.
         11    1    1    2    0    0 -0.75407082927E+01  0.17654267284E+02  0.99697275779E+02  0.10152872615E+03  0.00000000000E+00 0. -1.
</event>
<event>
 7    1  0.2556591E-009  0.7991917E+02  0.7561462E-02  0.1329281E+00
          2   -1    0    0  501    0  0.00000000000E+00  0.00000000000E+00  0.21902932780E+03  0.21902932780E+03  0.00000000000E+00 0. -1.
         -2   -1    0    0    0  501 -0.00000000000E+00 -0.00000000000E+00 -0.71364650556E+02  0.71364650556E+02  0.00000000000E+00 0.  1.
         25    2    1    2    0    0  0.31896917129E+02  0.41413905604E+02  0.12411748185E+03  0.18380342615E+03  0.12508407278E+03 0.  0.
          5    1    3    3  502    0  0.36163103011E+02  0.38073309844E+02  0.14897881132E+03  0.15801742171E+03  0.41800000000E+01 0. -1.
         -5    1    3    3    0  502 -0.42661858821E+01  0.33405957596E+01 -0.24861329466E+02  0.25786004437E+02  0.41800000000E+01 0. -1.
        -11    1    1    2    0    0 -0.72341938317E+01 -0.65468722828E+02  0.28530621342E+02  0.71780802331E+02  0.00000000000E+00 0.  1.
         11    1    1    2    0    0 -0.24662723297E+02  0.24054817224E+02 -0.49834259531E+01  0.34809749875E+02  0.00000000000E+00 0. -1.
</event>
<event>
 7    1  0.2556591E-009  0.1227593E+03  0.7561462E-02  0.1238613E+00
          1   -1    0    0  501    0  0.00000000000E+00  0.00000000000E+00  0.69751089146E+02  0.69751089146E+02  0.00000000000E+00 0. -1.
         -1   -1    0    0    0  501 -0.00000000000E+00 -0.00000000000E+00 -0.26388703173E+03  0.26388703173E+03  0.00000000000E+00 0.  1.
         25    2    1    2    0    0  0.64001174485E+02  0.49859162049E+01 -0.16677678523E+03  0.21813585636E+03  0.12509095107E+03 0.  0.
          5    1    3    3  502    0  0.81708036012E+02 -0.37515340499E+02 -0.82922379712E+02  0.12238136042E+03  0.41800000000E+01 0. -1.
         -5    1    3    3    0  502 -0.17706861527E+02  0.42501256704E+02 -0.83854405520E+02  0.95754495935E+02  0.41800000000E+01 0. -1.
        -11    1    1    2    0    0 -0.45804375139E+02 -0.45688956608E+02 -0.28974585518E+02  0.70887573973E+02  0.00000000000E+00 0. -1.
         11    1    1    2    0    0 -0.18196799346E+02  0.40703040403E+02  0.16154281654E+01  0.44614690547E+02  0.00000000000E+00 0.  1.
</event>
<event>
 7    1  0.3422245E-009  0.9700795E+02  0.7561462E-02  0.1286717E+00
         -1   -1    0    0    0  501 -0.00000000000E+00  0.00000000000E+00  0.24946152398E+02  0.24946152398E+02  0.00000000000E+00 0.  1.
          1   -1    0    0  501    0  0.00000000000E+00 -0.00000000000E+00 -0.11426057618E+04  0.11426057618E+04  0.00000000000E+00 0. -1.
         25    2    1    2    0    0  0.41022959627E+02  0.26196045146E+02 -0.10071493161E+04  0.10160541174E+04  0.12508840306E+03 0.  0.
          5    1    3    3  502    0  0.71129372220E+02 -0.23633232644E+02 -0.62038175047E+03  0.62490711789E+03  0.41800000000E+01 0.  1.
         -5    1    3    3    0  502 -0.30106412593E+02  0.49829277791E+02 -0.38676756562E+03  0.39114699950E+03  0.41800000000E+01 0.  1.
        -11    1    1    2    0    0 -0.43691351134E+02 -0.10871600697E+02 -0.12336140095E+03  0.13132083273E+03  0.00000000000E+00 0. -1.
         11    1    1    2    0    0  0.26683915066E+01 -0.15324444449E+02  0.12851107647E+02  0.20176964060E+02  0.00000000000E+00 0.  1.
</event>
<event>
 7    1  0.2556591E-009  0.1337212E+03  0.7561462E-02  0.1222036E+00
          2   -1    0    0  501    0  0.00000000000E+00  0.00000000000E+00  0.20377564178E+03  0.20377564178E+03  0.00000000000E+00 0. -1.
         -2   -1    0    0    0  501 -0.00000000000E+00 -0.00000000000E+00 -0.11408384557E+03  0.11408384557E+03  0.00000000000E+00 0.  1.
         25    2    1    2    0    0  0.29099440220E+02 -0.98568234819E+02  0.18261915163E+02  0.16292201019E+03  0.12509040539E+03 0.  0.
          5    1    3    3  502    0  0.35313017716E+01 -0.12182164373E+03 -0.32704671737E+01  0.12198832456E+03  0.41800000000E+01 0.  1.
         -5    1    3    3    0  502  0.25568138449E+02  0.23253408913E+02  0.21532382336E+02  0.40933685625E+02  0.41800000000E+01 0.  1.
        -11    1    1    2    0    0  0.30494954741E+01  0.61673645414E+02  0.84149890318E+02  0.10437500660E+03  0.00000000000E+00 0. -1.
         11    1    1    2    0    0 -0.32148935694E+02  0.36894589405E+02 -0.12720009274E+02  0.50562470564E+02  0.00000000000E+00 0.  1.
</event>
<event>
 7    1  0.2556591E-009  0.1064550E+03  0.7561462E-02  0.1267279E+00
         -4   -1    0    0    0  501 -0.00000000000E+00  0.00000000000E+00  0.73538519200E+03  0.73538519200E+03  0.00000000000E+00 0.  1.
          4   -1    0    0  501    0  0.00000000000E+00 -0.00000000000E+00 -0.17059163226E+02  0.17059163226E+02  0.00000000000E+00 0. -1.
         25    2    1    2    0    0  0.18107487871E+02 -0.20606517931E+02  0.38598114220E+03  0.40667010215E+03  0.12508645069E+03 0.  0.
          5    1    3    3  502    0  0.41273656971E+02  0.40790546150E+02  0.23304081217E+03  0.24019341364E+03  0.41800000000E+01 0.  1.
         -5    1    3    3    0  502 -0.23166169100E+02 -0.61397064080E+02  0.15294033003E+03  0.16647668851E+03  0.41800000000E+01 0.  1.
        -11    1    1    2    0    0 -0.49702560431E+02  0.27260019387E+02  0.26620760086E+03  0.27217630302E+03  0.00000000000E+00 0.  1.
         11    1    1    2    0    0  0.31595072560E+02 -0.66535014568E+01  0.66137285716E+02  0.73597950064E+02  0.00000000000E+00 0. -1.
</event>
<event>
 7    1  0.2556591E-009  0.8074152E+02  0.7561462E-02  0.1326960E+00
         -2   -1    0    0    0  501 -0.00000000000E+00  0.00000000000E+00  0.12954339143E+03  0.12954339143E+03  0.00000000000E+00 0.  1.
          2   -1    0    0  501    0  0.00000000000E+00 -0.00000000000E+00 -0.13103210786E+03  0.13103210786E+03  0.00000000000E+00 0. -1.
         25    2    1    2    0    0 -0.36247021095E+02  0.37029134182E+02  0.50018156316E+02  0.14433946277E+03  0.12508821381E+03 0.  0.
          5    1    3    3  502    0 -0.17616382653E+02  0.46361910682E+02 -0.32292115765E+02  0.59329729820E+02  0.41800000000E+01 0.  1.
         -5    1    3    3    0  502 -0.18630638442E+02 -0.93327765006E+01  0.82310272081E+02  0.85009732949E+02  0.41800000000E+01 0.  1.
        -11    1    1    2    0    0  0.59088655351E+02 -0.21687227753E+02 -0.60483640793E+02  0.87293045785E+02  0.00000000000E+00 0. -1.
         11    1    1    2    0    0 -0.22841634256E+02 -0.15341906429E+02  0.89767680449E+01  0.28942990738E+02  0.00000000000E+00 0.  1.
</event>
<event>
 7    1  0.2556591E-009  0.1612106E+03  0.7561462E-02  0.1187337E+00
         -1   -1    0    0    0  501 -0.00000000000E+00  0.00000000000E+00  0.10727148175E+03  0.10727148175E+03  0.00000000000E+00 0.  1.
          1   -1    0    0  501    0  0.00000000000E+00 -0.00000000000E+00 -0.33187711456E+03  0.33187711456E+03  0.00000000000E+00 0. -1.
         25    2    1    2    0    0 -0.44745102432E+02 -0.14649399027E+03 -0.13791160990E+03  0.24109553810E+03  0.12507930672E+03 0.  0.
          5    1    3    3  502    0 -0.34887613878E+00 -0.10230015103E+03 -0.15540122013E+02  0.10355872927E+03  0.41800000000E+01 0. -1.
         -5    1    3    3    0  502 -0.44396226293E+02 -0.44193839233E+02 -0.12237148789E+03  0.13753680883E+03  0.41800000000E+01 0. -1.
        -11    1    1    2    0    0  0.19254951016E+02  0.11563729408E+03 -0.18074982728E+02  0.11861467836E+03  0.00000000000E+00 0.  1.
         11    1    1    2    0    0  0.25490151416E+02  0.30856696183E+02 -0.68619040177E+02  0.79438379851E+02  0.00000000000E+00 0. -1.
</event>
<event>
 7    1  0.2556591E-009  0.7892492E+02  0.7561462E-02  0.1332130E+00
         -1   -1    0    0    0  501 -0.00000000000E+00  0.00000000000E+00  0.64770205435E+02  0.64770205435E+02  0.00000000000E+00 0.  1.
          1   -1    0    0  501    0  0.00000000000E+00 -0.00000000000E+00 -0.26077135966E+03  0.26077135966E+03  0.00000000000E+00 0. -1.
         25    2    1    2    0    0  0.13016122089E+02 -0.86521194048E+01 -0.19688570483E+03  0.23378621433E+03  0.12509090549E+03 0.  0.
          5    1    3    3  502    0 -0.52877023940E+01  0.52011205979E+02 -0.13620290958E+03  0.14595146564E+03  0.41800000000E+01 0.  1.
         -5    1    3    3    0  502  0.18303824483E+02 -0.60663325384E+02 -0.60682795250E+02  0.87834748686E+02  0.41800000000E+01 0.  1.
        -11    1    1    2    0    0  0.12930834628E+02  0.93303348620E+01  0.40990672555E+02  0.43982915653E+02  0.00000000000E+00 0.  1.
         11    1    1    2    0    0 -0.25946956717E+02 -0.67821545719E+00 -0.40106121944E+02  0.47772435111E+02  0.00000000000E+00 0. -1.
</event>
<event>
 7    1  0.2556591E-009  0.1068769E+03  0.7561462E-02  0.1266465E+00
         -2   -1    0    0    0  501 -0.00000000000E+00  0.00000000000E+00  0.77325490456E+02  0.77325490456E+02  0.00000000000E+00 0.  1.
          2   -1    0    0  501    0  0.00000000000E+00 -0.00000000000E+00 -0.16384129518E+03  0.16384129518E+03  0.00000000000E+00 0. -1.
         25    2    1    2    0    0 -0.26617673116E+02 -0.14463117601E+02 -0.70543877492E+02  0.14677326784E+03  0.12509305020E+03 0.  0.
          5    1    3    3  502    0 -0.71978298625E+02  0.26369259256E+01 -0.66210355473E+02  0.97924013516E+02  0.41800000000E+01 0.  1.
         -5    1    3    3    0  502  0.45360625509E+02 -0.17100043526E+02 -0.43335220197E+01  0.48849254327E+02  0.41800000000E+01 0.  1.
        -11    1    1    2    0    0  0.65901657127E-01  0.49215024786E+02 -0.64658516956E+01  0.49637991960E+02  0.00000000000E+00 0.  1.
         11    1    1    2    0    0  0.26551771459E+02 -0.34751907185E+02 -0.95060755388E+01  0.44755525835E+02  0.00000000000E+00 0. -1.
</event>
<event>
 7    1  0.2556591E-009  0.5404266E+02  0.7561462E-02  0.1424681E+00
         -2   -1    0    0    0  501 -0.00000000000E+00  0.00000000000E+00  0.14788557378E+02  0.14788557378E+02  0.00000000000E+00 0.  1.
          2   -1    0    0  501    0  0.00000000000E+00 -0.00000000000E+00 -0.95676354165E+03  0.95676354165E+03  0.00000000000E+00 0. -1.
         25    2    1    2    0    0  0.16447968506E+01  0.13521791117E+02 -0.80770473669E+03  0.81744703480E+03  0.12508864393E+03 0.  0.
          5    1    3    3  502    0  0.24537031193E+01  0.40952634120E+02 -0.87747158332E+02  0.96954500132E+02  0.41800000000E+01 0.  1.
         -5    1    3    3    0  502 -0.80890626869E+00 -0.27430843003E+02 -0.71995757836E+03  0.72049253467E+03  0.41800000000E+01 0.  1.
        -11    1    1    2    0    0  0.15338189049E+01  0.12640334233E+02  0.39992654333E+01  0.13346339347E+02  0.00000000000E+00 0.  1.
         11    1    1    2    0    0 -0.31786157556E+01 -0.26162125350E+02 -0.13826951301E+03  0.14075872488E+03  0.00000000000E+00 0. -1.
</event>
<event>
 7    1  0.2556591E-009  0.2338383E+03  0.7561462E-02  0.1123967E+00
          1   -1    0    0  501    0  0.00000000000E+00  0.00000000000E+00  0.79189119557E+03  0.79189119557E+03  0.00000000000E+00 0. -1.
         -1   -1    0    0    0  501 -0.00000000000E+00 -0.00000000000E+00 -0.75635643592E+02  0.75635643592E+02  0.00000000000E+00 0.  1.
         25    2    1    2    0    0  0.17426465798E+03 -0.12640749129E+03  0.44949024429E+03  0.51384479568E+03  0.12509184412E+03 0.  0.
          5    1    3    3  502    0  0.13453280208E+03 -0.14173133528E+03  0.29764218550E+03  0.35608312123E+03  0.41800000000E+01 0. -1.
         -5    1    3    3    0  502  0.39731855895E+02  0.15323843992E+02  0.15184805879E+03  0.15776167445E+03  0.41800000000E+01 0. -1.
        -11    1    1    2    0    0 -0.10959022431E+03  0.30506366158E+02  0.15964650805E+03  0.19602975073E+03  0.00000000000E+00 0. -1.
         11    1    1    2    0    0 -0.64674433663E+02  0.95901125133E+02  0.10711879965E+03  0.15765229275E+03  0.00000000000E+00 0.  1.
</event>
<event>
 7    1  0.2556591E-009  0.1133359E+03  0.7561462E-02  0.1254514E+00
         -2   -1    0    0    0  501 -0.00000000000E+00  0.00000000000E+00  0.93990991860E+02  0.93990991860E+02  0.00000000000E+00 0.  1.
          2   -1    0    0  501    0  0.00000000000E+00 -0.00000000000E+00 -0.17611958194E+03  0.17611958194E+03  0.00000000000E+00 0. -1.
         25    2    1    2    0    0  0.58766644005E+02 -0.36136361040E+02 -0.61039590401E+02  0.15534570452E+03  0.12508837387E+03 0.  0.
          5    1    3    3  502    0  0.40660252662E+02  0.30524137597E+02 -0.68865525300E+02  0.85702462610E+02  0.41800000000E+01 0.  1.
         -5    1    3    3    0  502  0.18106391343E+02 -0.66660498637E+02  0.78259348991E+01  0.69643241905E+02  0.41800000000E+01 0.  1.
        -11    1    1    2    0    0 -0.17974084753E+02  0.57615130094E+02  0.70341741510E+01  0.60762246045E+02  0.00000000000E+00 0.  1.
         11    1    1    2    0    0 -0.40792559252E+02 -0.21478769053E+02 -0.28123173827E+02  0.54002623237E+02  0.00000000000E+00 0. -1.
</event>
<event>
 7    1  0.2556591E-009  0.9202594E+02  0.7561462E-02  0.1298018E+00
         -1   -1    0    0    0  501 -0.00000000000E+00  0.00000000000E+00  0.58030475019E+02  0.58030475019E+02  0.00000000000E+00 0.  1.
          1   -1    0    0  501    0  0.00000000000E+00 -0.00000000000E+00 -0.30399849639E+03  0.30399849639E+03  0.00000000000E+00 0. -1.
         25    2    1    2    0    0  0.43586390232E+01  0.45276048243E+02 -0.22190056558E+03  0.25875546594E+03  0.12508242031E+03 0.  0.
          5    1    3    3  502    0  0.37131003687E+02  0.29466913857E+02 -0.16884017092E+02  0.50493097352E+02  0.41800000000E+01 0. -1.
         -5    1    3    3    0  502 -0.32772364664E+02  0.15809134386E+02 -0.20501654849E+03  0.20826236859E+03  0.41800000000E+01 0. -1.
        -11    1    1    2    0    0  0.61296301510E+01  0.26551835476E+02 -0.11620719202E+02  0.29624541308E+02  0.00000000000E+00 0.  1.
         11    1    1    2    0    0 -0.10488269174E+02 -0.71827883719E+02 -0.12446736583E+02  0.73648964157E+02  0.00000000000E+00 0. -1.
</event>
<event>
 7    1  0.2556591E-009  0.1201063E+03  0.7561462E-02  0.1242922E+00
         -1   -1    0    0    0  501 -0.00000000000E+00  0.00000000000E+00  0.30296168473E+02  0.30296168473E+02  0.00000000000E+00 0.  1.
          1   -1    0    0  501    0  0.00000000000E+00 -0.00000000000E+00 -0.72606590062E+03  0.72606590062E+03  0.00000000000E+00 0. -1.
         25    2    1    2    0    0 -0.70210120430E+02  0.45296176207E+02 -0.23190638736E+03  0.27642218010E+03  0.12508974603E+03 0.  0.
          5    1    3    3  502    0 -0.83233256354E+02  0.10182203635E+02 -0.22216466603E+03  0.23749960729E+03  0.41800000000E+01 0. -1.
         -5    1    3    3    0  502  0.13023135924E+02  0.35113972573E+02 -0.97417213340E+01  0.38922572804E+02  0.41800000000E+01 0. -1.
        -11    1    1    2    0    0 -0.13426660864E+02 -0.30917554994E+02 -0.19836411188E+03  0.20120758264E+03  0.00000000000E+00 0. -1.
         11    1    1    2    0    0  0.83636781294E+02 -0.14378621213E+02 -0.26549923291E+03  0.27873230636E+03  0.00000000000E+00 0.  1.
</event>
<event>
 7    1  0.2556591E-009  0.1630650E+03  0.7561462E-02  0.1185279E+00
         -2   -1    0    0    0  501 -0.00000000000E+00  0.00000000000E+00  0.95234009549E+02  0.95234009549E+02  0.00000000000E+00 0. -1.
          2   -1    0    0  501    0  0.00000000000E+00 -0.00000000000E+00 -0.58328466205E+03  0.58328466205E+03  0.00000000000E+00 0.  1.
         25    2    1    2    0    0 -0.78973547364E+02  0.13464804417E+03 -0.53046201200E+02  0.20694942893E+03  0.12508896710E+03 0.  0.
          5    1    3    3  502    0 -0.10985244011E+02  0.72622846079E+02  0.33237672228E+02  0.80727743767E+02  0.41800000000E+01 0. -1.
         -5    1    3    3    0  502 -0.67988303353E+02  0.62025198091E+02 -0.86283873427E+02  0.12622168516E+03  0.41800000000E+01 0. -1.
        -11    1    1    2    0    0  0.37301436407E+02 -0.98303423710E+02 -0.37718565276E+03  0.39156605691E+03  0.00000000000E+00 0.  1.
         11    1    1    2    0    0  0.41672110957E+02 -0.36344620460E+02 -0.57818798533E+02  0.80003185760E+02  0.00000000000E+00 0. -1.
</event>
<event>
 7    1  0.2556591E-009  0.9706163E+02  0.7561462E-02  0.1286599E+00
          2   -1    0    0  501    0  0.00000000000E+00  0.00000000000E+00  0.19321659458E+03  0.19321659458E+03  0.00000000000E+00 0. -1.
         -2   -1    0    0    0  501 -0.00000000000E+00 -0.00000000000E+00 -0.85448083433E+02  0.85448083433E+02  0.00000000000E+00 0.  1.
         25    2    1    2    0    0  0.46529294123E+02  0.29963189934E+02  0.11112656893E+03  0.17623544874E+03  0.12508817334E+03 0.  0.
          5    1    3    3  502    0  0.68093780913E+02 -0.89916432081E+01  0.11206404266E+03  0.13150450450E+03  0.41800000000E+01 0.  1.
         -5    1    3    3    0  502 -0.21564486790E+02  0.38954833142E+02 -0.93747373492E+00  0.44730944240E+02  0.41800000000E+01 0.  1.
        -11    1    1    2    0    0 -0.21993181556E+02 -0.46200283535E+02  0.28902611961E+02  0.58766718573E+02  0.00000000000E+00 0.  1.
         11    1    1    2    0    0 -0.24536112567E+02  0.16237093601E+02 -0.32260669740E+02  0.43662510699E+02  0.00000000000E+00 0. -1.
</event>
<event>
 7    1  0.2556591E-009  0.1154932E+03  0.7561462E-02  0.1250723E+00
         -2   -1    0    0    0  501 -0.00000000000E+00  0.00000000000E+00  0.10949527288E+04  0.10949527288E+04  0.00000000000E+00 0.  1.
          2   -1    0    0  501    0  0.00000000000E+00 -0.00000000000E+00 -0.89700678666E+02  0.89700678666E+02  0.00000000000E+00 0. -1.
         25    2    1    2    0    0 -0.50960293767E+02 -0.77316030246E+02  0.10420315309E+04  0.10535881997E+04  0.12507462998E+03 0.  0.
          5    1    3    3  502    0 -0.63509543117E+02 -0.90072890818E+02  0.10145594428E+04  0.10205365859E+04  0.41800000000E+01 0.  1.
         -5    1    3    3    0  502  0.12549249349E+02  0.12756860572E+02  0.27472088042E+02  0.33051613762E+02  0.41800000000E+01 0.  1.
        -11    1    1    2    0    0  0.24143324455E+02  0.42855700387E+01  0.22481718426E+02  0.33267009028E+02  0.00000000000E+00 0.  1.
         11    1    1    2    0    0  0.26816969312E+02  0.73030460207E+02 -0.59261199152E+02  0.97798198788E+02  0.00000000000E+00 0. -1.
</event>
<event>
 7    1  0.2556591E-009  0.1617687E+03  0.7561462E-02  0.1186714E+00
         -3   -1    0    0    0  501 -0.00000000000E+00  0.00000000000E+00  0.66938271769E+03  0.66938271769E+03  0.00000000000E+00 0.  1.
          3   -1    0    0  501    0  0.00000000000E+00 -0.00000000000E+00 -0.39642130126E+02  0.39642130126E+02  0.00000000000E+00 0. -1.
         25    2    1    2    0    0  0.88347728433E+02  0.81056124262E+02  0.30609294420E+03  0.35173264400E+03  0.12509015136E+03 0.  0.
          5    1    3    3  502    0  0.64963789477E+02  0.11481426635E+03  0.23172619768E+03  0.26667791958E+03  0.41800000000E+01 0. -1.
         -5    1    3    3    0  502  0.23383938956E+02 -0.33758142088E+02  0.74366746523E+02  0.85054724423E+02  0.41800000000E+01 0. -1.
        -11    1    1    2    0    0 -0.10348272869E+03 -0.48319423741E+02  0.26306542851E+03  0.28678713626E+03  0.00000000000E+00 0. -1.
         11    1    1    2    0    0  0.15135000260E+02 -0.32736700522E+02  0.60582214861E+02  0.70505067558E+02  0.00000000000E+00 0.  1.
</event>
<event>
 7    1  0.2556591E-009  0.1122592E+03  0.7561462E-02  0.1256443E+00
         -1   -1    0    0    0  501 -0.00000000000E+00  0.00000000000E+00  0.25990421265E+03  0.25990421265E+03  0.00000000000E+00 0.  1.
          1   -1    0    0  501    0  0.00000000000E+00 -0.00000000000E+00 -0.64739364343E+02  0.64739364343E+02  0.00000000000E+00 0. -1.
         25    2    1    2    0    0  0.62458836142E+02 -0.57976706480E+01  0.57902537276E+02  0.15144296123E+03  0.12509015743E+03 0.  0.
          5    1    3    3  502    0  0.83314933557E+02 -0.38651730014E+02  0.63737501124E+02  0.11187169363E+03  0.41800000000E+01 0. -1.
         -5    1    3    3    0  502 -0.20856097415E+02  0.32854059367E+02 -0.58349638475E+01  0.39571267598E+02  0.41800000000E+01 0. -1.
        -11    1    1    2    0    0  0.83561700362E+00 -0.23626282385E+02  0.78425760129E+02  0.81911533540E+02  0.00000000000E+00 0.  1.
         11    1    1    2    0    0 -0.63294453145E+02  0.29423953033E+02  0.58836550905E+02  0.91289082225E+02  0.00000000000E+00 0. -1.
</event>
<event>
 7    1  0.2556591E-009  0.1272741E+03  0.7561462E-02  0.1231557E+00
          1   -1    0    0  501    0  0.00000000000E+00  0.00000000000E+00  0.23237587278E+02  0.23237587278E+02  0.00000000000E+00 0. -1.
         -1   -1    0    0    0  501 -0.00000000000E+00 -0.00000000000E+00 -0.91542365049E+03  0.91542365049E+03  0.00000000000E+00 0.  1.
         25    2    1    2    0    0  0.28110962178E+02 -0.89170346214E+02 -0.40276853414E+03  0.43198605183E+03  0.12509148669E+03 0.  0.
          5    1    3    3  502    0 -0.31675649462E+02 -0.85582854767E+02 -0.18857830590E+03  0.20954002399E+03  0.41800000000E+01 0.  1.
         -5    1    3    3    0  502  0.59786611639E+02 -0.35874914472E+01 -0.21419022824E+03  0.22244602784E+03  0.41800000000E+01 0.  1.
        -11    1    1    2    0    0 -0.39842903423E+02  0.73183762316E+02 -0.47475866092E+03  0.48201567002E+03  0.00000000000E+00 0.  1.
         11    1    1    2    0    0  0.11731941246E+02  0.15986583897E+02 -0.14658868148E+02  0.24659515922E+02  0.00000000000E+00 0. -1.
</event>
<event>
 7    1  0.2556591E-009  0.9682721E+02  0.7561462E-02  0.1287113E+00
          2   -1    0    0  501    0  0.00000000000E+00  0.00000000000E+00  0.56306995170E+02  0.56306995170E+02  0.00000000000E+00 0. -1.
         -2   -1    0    0    0  501 -0.00000000000E+00 -0.00000000000E+00 -0.23414877894E+03  0.23414877894E+03  0.00000000000E+00 0.  1.
         25    2    1    2    0    0  0.36397035699E+02  0.97969528616E+01 -0.91135021913E+02  0.15928964067E+03  0.12508746105E+03 0.  0.
          5    1    3    3  502    0  0.63592541360E+02 -0.38808012485E+02 -0.48031481688E+02  0.88738767080E+02  0.41800000000E+01 0.  1.
         -5    1    3    3    0  502 -0.27195505661E+02  0.48604965347E+02 -0.43103540225E+02  0.70550873591E+02  0.41800000000E+01 0.  1.
        -11    1    1    2    0    0 -0.44817816316E+02 -0.20734919287E+02 -0.10029712959E+03  0.11179484667E+03  0.00000000000E+00 0.  1.
         11    1    1    2    0    0  0.84207806169E+01  0.10937966425E+02  0.13590367739E+02  0.19371286767E+02  0.00000000000E+00 0. -1.
</event>
<event>
 7    1  0.2556591E-009  0.6979822E+02  0.7561462E-02  0.1360781E+00
          2   -1    0    0  501    0  0.00000000000E+00  0.00000000000E+00  0.46534140958E+02  0.46534140958E+02  0.00000000000E+00 0. -1.
         -2   -1    0    0    0  501 -0.00000000000E+00 -0.00000000000E+00 -0.24680825277E+03  0.24680825277E+03  0.00000000000E+00 0.  1.
         25    2    1    2    0    0  0.53685216500E+01  0.21273319287E+02 -0.14269749838E+03  0.19102491745E+03  0.12508624187E+03 0.  0.
          5    1    3    3  502    0  0.35577450576E+02  0.51225720561E+02 -0.27758525663E+02  0.68394718974E+02  0.41800000000E+01 0.  1.
         -5    1    3    3    0  502 -0.30208928926E+02 -0.29952401274E+02 -0.11493897272E+03  0.12263019848E+03  0.41800000000E+01 0.  1.
        -11    1    1    2    0    0  0.10544709817E+02 -0.11790199098E+02 -0.75142117321E+02  0.76788915185E+02  0.00000000000E+00 0.  1.
         11    1    1    2    0    0 -0.15913231467E+02 -0.94831201897E+01  0.17565503894E+02  0.25528561089E+02  0.00000000000E+00 0. -1.
</event>
<event>
 7    1  0.2556591E-009  0.9724316E+02  0.7561462E-02  0.1286202E+00
          1   -1    0    0  501    0  0.00000000000E+00  0.00000000000E+00  0.48610119940E+03  0.48610119940E+03  0.00000000000E+00 0. -1.
         -1   -1    0    0    0  501 -0.00000000000E+00 -0.00000000000E+00 -0.25825808059E+02  0.25825808059E+02  0.00000000000E+00 0.  1.
         25    2    1    2    0    0 -0.23654871832E+02  0.17501684905E+02  0.27850787196E+03  0.30672480104E+03  0.12509039488E+03 0.  0.
          5    1    3    3  502    0  0.24061591858E+02  0.58252454397E+02  0.16936115690E+03  0.18075669424E+03  0.41800000000E+01 0. -1.
         -5    1    3    3    0  502 -0.47716463690E+02 -0.40750769492E+02  0.10914671507E+03  0.12596810680E+03  0.41800000000E+01 0. -1.
        -11    1    1    2    0    0 -0.16211659283E+02  0.10855096345E+02  0.28509551883E+01  0.19717478512E+02  0.00000000000E+00 0.  1.
         11    1    1    2    0    0  0.39866531115E+02 -0.28356781250E+02  0.17891656419E+03  0.18548472791E+03  0.00000000000E+00 0. -1.
</event>
<event>
 7    1  0.2988243E-009  0.1046750E+03  0.7561462E-02  0.1270761E+00
          2   -1    0    0  501    0  0.00000000000E+00  0.00000000000E+00  0.50190975486E+03  0.50190975486E+03  0.00000000000E+00 0. -1.
         -2   -1    0    0    0  501 -0.00000000000E+00 -0.00000000000E+00 -0.45014626093E+02  0.45014626093E+02  0.00000000000E+00 0.  1.
         25    2    1    2    0    0 -0.15953411815E+02 -0.86135923452E+02  0.34698914797E+03  0.37910741821E+03  0.12508819719E+03 0.  0.
          5    1    3    3  502    0  0.22581575436E+02 -0.30109643361E+02  0.28338575767E+03  0.28590466632E+03  0.41800000000E+01 0. -1.
         -5    1    3    3    0  502 -0.38534987251E+02 -0.56026280091E+02  0.63603390305E+02  0.93202751899E+02  0.41800000000E+01 0. -1.
        -11    1    1    2    0    0 -0.17344636934E+02  0.55354843438E+02  0.11042657881E+02  0.59050278708E+02  0.00000000000E+00 0.  1.
         11    1    1    2    0    0  0.33298048749E+02  0.30781080014E+02  0.98863322912E+02  0.10876668403E+03  0.00000000000E+00 0. -1.
</event>
<event>
 7    1  0.2556591E-009  0.1202116E+03  0.7561462E-02  0.1242748E+00
          3   -1    0    0  501    0  0.00000000000E+00  0.00000000000E+00  0.45662484273E+03  0.45662484273E+03  0.00000000000E+00 0. -1.
         -3   -1    0    0    0  501 -0.00000000000E+00 -0.00000000000E+00 -0.59450021752E+02  0.59450021752E+02  0.00000000000E+00 0.  1.
         25    2    1    2    0    0 -0.13157316834E+02  0.68894049644E+02  0.37530400719E+03  0.40176785081E+03  0.12507918720E+03 0.  0.
          5    1    3    3  502    0 -0.26055673643E+02 -0.23202547991E+02  0.37578367519E+02  0.51447667271E+02  0.41800000000E+01 0. -1.
         -5    1    3    3    0  502  0.12898356809E+02  0.92096597635E+02  0.33772563967E+03  0.35032018354E+03  0.41800000000E+01 0. -1.
        -11    1    1    2    0    0 -0.21220095542E+02 -0.74411229179E+02  0.15144483699E+02  0.78845918533E+02  0.00000000000E+00 0.  1.
         11    1    1    2    0    0  0.34377412376E+02  0.55171795357E+01  0.67263300847E+01  0.35461095134E+02  0.00000000000E+00 0. -1.
</event>
<event>
 7    1  0.2556591E-009  0.8511173E+02  0.7561462E-02  0.1315141E+00
          2   -1    0    0  501    0  0.00000000000E+00  0.00000000000E+00  0.24418486904E+03  0.24418486904E+03  0.00000000000E+00 0. -1.
         -2   -1    0    0    0  501 -0.00000000000E+00 -0.00000000000E+00 -0.10750029549E+03  0.10750029549E+03  0.00000000000E+00 0.  1.
         25    2    1    2    0    0 -0.68794120551E+02 -0.15370578857E+02  0.17828456517E+03  0.22891392312E+03  0.12508921738E+03 0.  0.
          5    1    3    3  502    0 -0.17570494449E+02 -0.17978660911E+02  0.17554064768E+03  0.17738079352E+03  0.41800000000E+01 0.  1.
         -5    1    3    3    0  502 -0.51223626102E+02  0.26080820540E+01  0.27439174912E+01  0.51533129598E+02  0.41800000000E+01 0.  1.
        -11    1    1    2    0    0  0.65469385725E+02  0.34403547503E+02 -0.60643613692E+02  0.95642524170E+02  0.00000000000E+00 0.  1.
         11    1    1    2    0    0  0.33247348256E+01 -0.19032968646E+02  0.19043622075E+02  0.27128717236E+02  0.00000000000E+00 0. -1.
</event>
<event>
 7    1  0.2556591E-009  0.1758926E+03  0.7561462E-02  0.1171838E+00
          1   -1    0    0  501    0  0.00000000000E+00  0.00000000000E+00  0.32648348704E+02  0.32648348704E+02  0.00000000000E+00 0. -1.
         -1   -1    0    0    0  501 -0.00000000000E+00 -0.00000000000E+00 -0.10302465794E+04  0.10302465794E+04  0.00000000000E+00 0.  1.
         25    2    1    2    0    0  0.13506462110E+03  0.51297610298E+02 -0.62668917855E+03  0.65517943572E+03  0.12508744857E+03 0.  0.
          5    1    3    3  502    0  0.15271606306E+03  0.59960134466E+02 -0.48370223969E+03  0.51078639637E+03  0.41800000000E+01 0. -1.
         -5    1    3    3    0  502 -0.17651441957E+02 -0.86625241683E+01 -0.14298693886E+03  0.14439303935E+03  0.41800000000E+01 0. -1.
        -11    1    1    2    0    0  0.10201424462E+02  0.55003945332E+01 -0.13744581077E+02  0.17978790561E+02  0.00000000000E+00 0. -1.
         11    1    1    2    0    0 -0.14526604557E+03 -0.56798004831E+02 -0.35716447104E+03  0.38973670178E+03  0.00000000000E+00 0.  1.
</event>
<event>
 7    1  0.2556591E-009  0.8947597E+02  0.7561462E-02  0.1304126E+00
          1   -1    0    0  501    0  0.00000000000E+00  0.00000000000E+00  0.17158828419E+03  0.17158828419E+03  0.00000000000E+00 0. -1.
         -1   -1    0    0    0  501 -0.00000000000E+00 -0.00000000000E+00 -0.10180545503E+03  0.10180545503E+03  0.00000000000E+00 0.  1.
         25    2    1    2    0    0 -0.19921000572E+00  0.21495919719E+02 -0.35486249019E+02  0.13178822935E+03  0.12508696685E+03 0.  0.
          5    1    3    3  502    0 -0.21296459562E+02 -0.40593798683E+02  0.15550585092E+02  0.48586919825E+02  0.41800000000E+01 0. -1.
         -5    1    3    3    0  502  0.21097249556E+02  0.62089718402E+02 -0.51036834111E+02  0.83201309522E+02  0.41800000000E+01 0. -1.
        -11    1    1    2    0    0  0.31858914723E+02 -0.13182721650E+02  0.10319999177E+03  0.10880722816E+03  0.00000000000E+00 0. -1.
         11    1    1    2    0    0 -0.31659704717E+02 -0.83131980690E+01  0.20690864000E+01  0.32798281714E+02  0.00000000000E+00 0.  1.
</event>
<event>
 7    1  0.2556591E-009  0.1094381E+03  0.7561462E-02  0.1261614E+00
          2   -1    0    0  501    0  0.00000000000E+00  0.00000000000E+00  0.31780630263E+03  0.31780630263E+03  0.00000000000E+00 0. -1.
         -2   -1    0    0    0  501 -0.00000000000E+00 -0.00000000000E+00 -0.50933211676E+02  0.50933211676E+02  0.00000000000E+00 0.  1.
         25    2    1    2    0    0  0.14217982964E+02  0.61827210099E+02  0.11549088654E+03  0.18168682016E+03  0.12508877167E+03 0.  0.
          5    1    3    3  502    0 -0.41833197154E+02  0.55193393662E+02  0.22705693518E+02  0.73002383566E+02  0.41800000000E+01 0. -1.
         -5    1    3    3    0  502  0.56051180118E+02  0.66338164365E+01  0.92785193026E+02  0.10868443660E+03  0.41800000000E+01 0. -1.
        -11    1    1    2    0    0 -0.22432277459E+02 -0.74495339809E+02  0.71201532264E+02  0.10546288884E+03  0.00000000000E+00 0.  1.
         11    1    1    2    0    0  0.82142944945E+01  0.12668129710E+02  0.80180672149E+02  0.81589805311E+02  0.00000000000E+00 0. -1.
</event>
<event>
 7    1  0.2556591E-009  0.1767275E+03  0.7561462E-02  0.1171008E+00
         -1   -1    0    0    0  501 -0.00000000000E+00  0.00000000000E+00  0.16064770658E+03  0.16064770658E+03  0.00000000000E+00 0.  1.
          1   -1    0    0  501    0  0.00000000000E+00 -0.00000000000E+00 -0.25015775699E+03  0.25015775699E+03  0.00000000000E+00 0. -1.
         25    2    1    2    0    0 -0.12212801948E+03 -0.71997279645E+02  0.46016980222E+02  0.19458561246E+03  0.12508851542E+03 0.  0.
          5    1    3    3  502    0 -0.14517557857E+02 -0.77092517198E+02  0.35671514339E+02  0.86278299875E+02  0.41800000000E+01 0.  1.
         -5    1    3    3    0  502 -0.10761046162E+03  0.50952375533E+01  0.10345465883E+02  0.10830731259E+03  0.41800000000E+01 0.  1.
        -11    1    1    2    0    0  0.33925537188E+02  0.71209666293E+02 -0.77878887548E+02  0.11084619873E+03  0.00000000000E+00 0. -1.
         11    1    1    2    0    0  0.88202482287E+02  0.78761335141E+00 -0.57648143081E+02  0.10537365239E+03  0.00000000000E+00 0.  1.
</event>
<event>
 7    1  0.2556591E-009  0.1124202E+03  0.7561462E-02  0.1256153E+00
         -1   -1    0    0    0  501 -0.00000000000E+00  0.00000000000E+00  0.72679497623E+02  0.72679497623E+02  0.00000000000E+00 0.  1.
          1   -1    0    0  501    0  0.00000000000E+00 -0.00000000000E+00 -0.22033879339E+03  0.22033879339E+03  0.00000000000E+00 0. -1.
         25    2    1    2    0    0  0.41587944069E+02 -0.16447504993E+02 -0.28809285776E+02  0.13593981649E+03  0.12509828635E+03 0.  0.
          5    1    3    3  502    0 -0.43968833874E+02  0.36044436137E+01 -0.15597540587E+02  0.46978782853E+02  0.41800000000E+01 0. -1.
         -5    1    3    3    0  502  0.85556777944E+02 -0.20051948607E+02 -0.13211745189E+02  0.88961033638E+02  0.41800000000E+01 0. -1.
        -11    1    1    2    0    0  0.15719685948E+02 -0.19389822827E+02 -0.62211972132E+01  0.25725027703E+02  0.00000000000E+00 0.  1.
         11    1    1    2    0    0 -0.57307630018E+02  0.35837327820E+02 -0.11262881278E+03  0.13135344682E+03  0.00000000000E+00 0. -1.
</event>
<event>
 7    1  0.2556591E-009  0.7243358E+02  0.7561462E-02  0.1352008E+00
          2   -1    0    0  501    0  0.00000000000E+00  0.00000000000E+00  0.18614346834E+03  0.18614346834E+03  0.00000000000E+00 0. -1.
         -2   -1    0    0    0  501 -0.00000000000E+00 -0.00000000000E+00 -0.70718687196E+02  0.70718687196E+02  0.00000000000E+00 0.  1.
         25    2    1    2    0    0  0.23553001447E+02 -0.21551621046E+02  0.43969192302E+02  0.13638110989E+03  0.12508917226E+03 0.  0.
          5    1    3    3  502    0 -0.93750747312E+01 -0.56266619293E+02 -0.16150262407E+02  0.59431707435E+02  0.41800000000E+01 0.  1.
         -5    1    3    3    0  502  0.32928076178E+02  0.34714998246E+02  0.60119454709E+02  0.76949402457E+02  0.41800000000E+01 0. -1.
        -11    1    1    2    0    0 -0.13839565177E+02  0.25613722547E+02  0.92487222293E+02  0.96961242951E+02  0.00000000000E+00 0. -1.
         11    1    1    2    0    0 -0.97134362696E+01 -0.40621015008E+01 -0.21031633455E+02  0.23519802690E+02  0.00000000000E+00 0.  1.
</event>
<event>
 7    1  0.2556591E-009  0.1050405E+03  0.7561462E-02  0.1270040E+00
          2   -1    0    0  501    0  0.00000000000E+00  0.00000000000E+00  0.72958513128E+03  0.72958513128E+03  0.00000000000E+00 0. -1.
         -2   -1    0    0    0  501 -0.00000000000E+00 -0.00000000000E+00 -0.27069384272E+02  0.27069384272E+02  0.00000000000E+00 0.  1.
         25    2    1    2    0    0 -0.76675812452E+02 -0.20515197406E+02  0.49608116726E+03  0.51772981241E+03  0.12509028984E+03 0.  0.
          5    1    3    3  502    0 -0.70369277359E+00  0.21684540971E+02  0.10585942800E+02  0.24499981339E+02  0.41800000000E+01 0.  1.
         -5    1    3    3    0  502 -0.75972119678E+02 -0.42199738377E+02  0.48549522446E+03  0.49322983107E+03  0.41800000000E+01 0.  1.
        -11    1    1    2    0    0  0.52823065341E+01  0.28642360403E+02  0.13312178299E+03  0.13627067431E+03  0.00000000000E+00 0. -1.
         11    1    1    2    0    0  0.71393505918E+02 -0.81271629967E+01  0.73312796764E+02  0.10265402883E+03  0.00000000000E+00 0.  1.
</event>
<event>
 7    1  0.2556591E-009  0.1327101E+03  0.7561462E-02  0.1223489E+00
          3   -1    0    0  501    0  0.00000000000E+00  0.00000000000E+00  0.37333535177E+03  0.37333535177E+03  0.00000000000E+00 0. -1.
         -3   -1    0    0    0  501 -0.00000000000E+00 -0.00000000000E+00 -0.82257404324E+02  0.82257404324E+02  0.00000000000E+00 0.  1.
         25    2    1    2    0    0 -0.10172571470E+03 -0.57223394320E+02  0.24707396906E+03  0.30052522026E+03  0.12508886416E+03 0.  0.
          5    1    3    3  502    0 -0.68158276504E+02 -0.78252127659E+02  0.23800103528E+03  0.25967462590E+03  0.41800000000E+01 0. -1.
         -5    1    3    3    0  502 -0.33567438192E+02  0.21028733340E+02  0.90729337813E+01  0.40850594366E+02  0.41800000000E+01 0. -1.
        -11    1    1    2    0    0  0.66401618015E+02  0.17692603419E+02 -0.20370132950E+02  0.71673882323E+02  0.00000000000E+00 0.  1.
         11    1    1    2    0    0  0.35324096680E+02  0.39530790901E+02  0.64374111328E+02  0.83393653504E+02  0.00000000000E+00 0. -1.
</event>
<event>
 7    1  0.2556591E-009  0.2351016E+03  0.7561462E-02  0.1123100E+00
         -1   -1    0    0    0  501 -0.00000000000E+00  0.00000000000E+00  0.57732245529E+02  0.57732245529E+02  0.00000000000E+00 0.  1.
          1   -1    0    0  501    0  0.00000000000E+00 -0.00000000000E+00 -0.15473044656E+04  0.15473044656E+04  0.00000000000E+00 0. -1.
         25    2    1    2    0    0 -0.22542989683E+03  0.32499903280E+02 -0.11918507076E+04  0.12198468235E+04  0.12507310461E+03 0.  0.
          5    1    3    3  502    0 -0.14487006334E+03  0.32768890714E+01 -0.44345080028E+03  0.46654491522E+03  0.41800000000E+01 0.  1.
         -5    1    3    3    0  502 -0.80559833486E+02  0.29223014208E+02 -0.74839990733E+03  0.75330190829E+03  0.41800000000E+01 0.  1.
        -11    1    1    2    0    0  0.47863255698E+02 -0.39017153383E+02 -0.45677235540E+02  0.76809109816E+02  0.00000000000E+00 0.  1.
         11    1    1    2    0    0  0.17756664113E+03  0.65172501037E+01 -0.25204427692E+03  0.30838077780E+03  0.00000000000E+00 0. -1.
</event>
<event>
 7    1  0.2556591E-009  0.1082649E+03  0.7561462E-02  0.1263817E+00
          2   -1    0    0  501    0  0.00000000000E+00  0.00000000000E+00  0.44394273655E+03  0.44394273655E+03  0.00000000000E+00 0. -1.
         -2   -1    0    0    0  501 -0.00000000000E+00 -0.00000000000E+00 -0.42096562262E+02  0.42096562262E+02  0.00000000000E+00 0.  1.
         25    2    1    2    0    0  0.35211363381E+02 -0.64392388532E+02  0.15108553927E+03  0.20943283017E+03  0.12509616448E+03 0.  0.
          5    1    3    3  502    0  0.67546265005E+01 -0.81138281224E+02  0.15577799058E+03  0.17582178593E+03  0.41800000000E+01 0.  1.
         -5    1    3    3    0  502  0.28456736880E+02  0.16745892692E+02 -0.46924513123E+01  0.33611044245E+02  0.41800000000E+01 0.  1.
        -11    1    1    2    0    0 -0.90614143701E+01  0.73480817590E+02  0.10645698898E+03  0.12967123925E+03  0.00000000000E+00 0.  1.
         11    1    1    2    0    0 -0.26149949011E+02 -0.90884290579E+01  0.14430364604E+03  0.14693522939E+03  0.00000000000E+00 0. -1.
</event>
<event>
 7    1  0.2556591E-009  0.1053442E+03  0.7561462E-02  0.1269443E+00
          4   -1    0    0  501    0  0.00000000000E+00  0.00000000000E+00  0.37057656740E+03  0.37057656740E+03  0.00000000000E+00 0. -1.
         -4   -1    0    0    0  501 -0.00000000000E+00 -0.00000000000E+00 -0.55434046359E+02  0.55434046359E+02  0.00000000000E+00 0.  1.
         25    2    1    2    0    0  0.42114618990E+02 -0.74019395385E+02  0.20748686574E+03  0.25680839409E+03  0.12508892756E+03 0.  0.
          5    1    3    3  502    0  0.68364394672E+02 -0.64091502892E+02  0.20827475528E+03  0.22842341668E+03  0.41800000000E+01 0. -1.
         -5    1    3    3    0  502 -0.26249775682E+02 -0.99278924927E+01 -0.78788954258E+00  0.28384977411E+02  0.41800000000E+01 0. -1.
        -11    1    1    2    0    0 -0.32482662799E+02  0.32724781265E+02 -0.72928356454E+01  0.46682118022E+02  0.00000000000E+00 0.  1.
         11    1    1    2    0    0 -0.96319561913E+01  0.41294614120E+02  0.11494849095E+03  0.12252010165E+03  0.00000000000E+00 0. -1.
</event>
<event>
 7    1  0.2556591E-009  0.1027533E+03  0.7561462E-02  0.1274610E+00
          3   -1    0    0  501    0  0.00000000000E+00  0.00000000000E+00  0.16977576422E+03  0.16977576422E+03  0.00000000000E+00 0. -1.
         -3   -1    0    0    0  501 -0.00000000000E+00 -0.00000000000E+00 -0.18243932763E+03  0.18243932763E+03  0.00000000000E+00 0.  1.
         25    2    1    2    0    0 -0.56520601011E+01 -0.10006830779E+03  0.84436639055E+02  0.18117036715E+03  0.12509014314E+03 0.  0.
          5    1    3    3  502    0 -0.18567578937E+02 -0.54261041940E+02 -0.24280739029E+02  0.62418285364E+02  0.41800000000E+01 0. -1.
         -5    1    3    3    0  502  0.12915518835E+02 -0.45807265849E+02  0.10871737808E+03  0.11875208179E+03  0.41800000000E+01 0. -1.
        -11    1    1    2    0    0  0.22222018613E+01  0.37477889181E+02  0.16724954856E+02  0.41100541037E+02  0.00000000000E+00 0. -1.
         11    1    1    2    0    0  0.34298582398E+01  0.62590418608E+02 -0.11382515732E+03  0.12994418367E+03  0.00000000000E+00 0.  1.
</event>
<event>
 7    1  0.2556591E-009  0.1253940E+03  0.7561462E-02  0.1234455E+00
          1   -1    0    0  501    0  0.00000000000E+00  0.00000000000E+00  0.24766835397E+03  0.24766835397E+03  0.00000000000E+00 0. -1.
         -1   -1    0    0    0  501 -0.00000000000E+00 -0.00000000000E+00 -0.71130071513E+02  0.71130071513E+02  0.00000000000E+00 0.  1.
         25    2    1    2    0    0  0.72147759519E+02  0.15542643631E+02  0.11926217856E+03  0.18793151972E+03  0.12509163000E+03 0.  0.
          5    1    3    3  502    0 -0.32685608789E+01 -0.46922650607E+02  0.38175835440E+02  0.60723022337E+02  0.41800000000E+01 0. -1.
         -5    1    3    3    0  502  0.75416320398E+02  0.62465294238E+02  0.81086343120E+02  0.12720849739E+03  0.41800000000E+01 0. -1.
        -11    1    1    2    0    0  0.68964896448E+01  0.18307695703E+02 -0.97348040274E+01  0.21851766538E+02  0.00000000000E+00 0. -1.
         11    1    1    2    0    0 -0.79044249164E+02 -0.33850339334E+02  0.67010907928E+02  0.10901513923E+03  0.00000000000E+00 0.  1.
</event>
<event>
 7    1  0.2556591E-009  0.1099696E+03  0.7561462E-02  0.1260626E+00
          1   -1    0    0  501    0  0.00000000000E+00  0.00000000000E+00  0.37834018980E+03  0.37834018980E+03  0.00000000000E+00 0. -1.
         -1   -1    0    0    0  501 -0.00000000000E+00 -0.00000000000E+00 -0.51816145560E+02  0.51816145560E+02  0.00000000000E+00 0.  1.
         25    2    1    2    0    0  0.53799541419E+02  0.61056508838E+02  0.23250059725E+03  0.27627257548E+03  0.12509084824E+03 0.  0.
          5    1    3    3  502    0 -0.22870679789E+02  0.12312354426E+02  0.15369664393E+03  0.15593201346E+03  0.41800000000E+01 0.  1.
         -5    1    3    3    0  502  0.76670221208E+02  0.48744154412E+02  0.78803953318E+02  0.12034056202E+03  0.41800000000E+01 0.  1.
        -11    1    1    2    0    0 -0.67301633063E+02 -0.42018277528E+02  0.10199414772E+03  0.12922016727E+03  0.00000000000E+00 0. -1.
         11    1    1    2    0    0  0.13502091644E+02 -0.19038231310E+02 -0.79707007319E+01  0.24663592608E+02  0.00000000000E+00 0.  1.
</event>
<event>
 7    1  0.2556591E-009  0.1411482E+03  0.7561462E-02  0.1211792E+00
         -1   -1    0    0    0  501 -0.00000000000E+00  0.00000000000E+00  0.40109491625E+03  0.40109491625E+03  0.00000000000E+00 0.  1.
          1   -1    0    0  501    0  0.00000000000E+00 -0.00000000000E+00 -0.50442804008E+02  0.50442804008E+02  0.00000000000E+00 0. -1.
         25    2    1    2    0    0 -0.62523480357E+02 -0.67382790195E+02  0.19024207949E+03  0.24553797981E+03  0.12508886725E+03 0.  0.
          5    1    3    3  502    0 -0.99918867400E+02 -0.41900130568E+02  0.14818498120E+03  0.18361825088E+03  0.41800000000E+01 0. -1.
         -5    1    3    3    0  502  0.37395387043E+02 -0.25482659626E+02  0.42057098291E+02  0.61919728927E+02  0.41800000000E+01 0. -1.
        -11    1    1    2    0    0 -0.38495671601E+01 -0.19055675300E+02  0.33365999783E+02  0.38616419694E+02  0.00000000000E+00 0.  1.
         11    1    1    2    0    0  0.66373047517E+02  0.86438465494E+02  0.12704403296E+03  0.16738332075E+03  0.00000000000E+00 0. -1.
</event>
<event>
 7    1  0.2556591E-009  0.1028226E+03  0.7561462E-02  0.1274470E+00
         -1   -1    0    0    0  501 -0.00000000000E+00  0.00000000000E+00  0.20587410354E+02  0.20587410354E+02  0.00000000000E+00 0.  1.
          1   -1    0    0  501    0  0.00000000000E+00 -0.00000000000E+00 -0.10238865866E+04  0.10238865866E+04  0.00000000000E+00 0. -1.
         25    2    1    2    0    0 -0.34683338801E+01 -0.68816050568E+02 -0.79338983892E+03  0.80614057781E+03  0.12509003369E+03 0.  0.
          5    1    3    3  502    0  0.14286857093E+02  0.13207467603E+02 -0.20050763286E+02  0.28249902556E+02  0.41800000000E+01 0.  1.
         -5    1    3    3    0  502 -0.17755190973E+02 -0.82023518171E+02 -0.77333907564E+03  0.77789067525E+03  0.41800000000E+01 0.  1.
        -11    1    1    2    0    0  0.34426140400E+02  0.60587223981E+02 -0.87802425019E+02  0.11209476657E+03  0.00000000000E+00 0.  1.
         11    1    1    2    0    0 -0.30957806520E+02  0.82288265878E+01 -0.12210691226E+03  0.12623865253E+03  0.00000000000E+00 0. -1.
</event>
<event>
 7    1  0.2556591E-009  0.1971501E+03  0.7561462E-02  0.1152166E+00
          1   -1    0    0  501    0  0.00000000000E+00  0.00000000000E+00  0.38486421051E+03  0.38486421051E+03  0.00000000000E+00 0. -1.
         -1   -1    0    0    0  501 -0.00000000000E+00 -0.00000000000E+00 -0.11851076384E+03  0.11851076384E+03  0.00000000000E+00 0.  1.
         25    2    1    2    0    0  0.17078676181E+03 -0.21670603929E+02  0.21280478654E+03  0.30095094211E+03  0.12509140378E+03 0.  0.
          5    1    3    3  502    0 -0.40059506727E+01 -0.25316588479E+02  0.71649612926E+02  0.76211001341E+02  0.41800000000E+01 0. -1.
         -5    1    3    3    0  502  0.17479271248E+03  0.36459845495E+01  0.14115517361E+03  0.22473994077E+03  0.41800000000E+01 0. -1.
        -11    1    1    2    0    0 -0.23921817585E+02 -0.29450217954E+02 -0.40491448765E-01  0.37941670149E+02  0.00000000000E+00 0.  1.
         11    1    1    2    0    0 -0.14686494423E+03  0.51120821883E+02  0.53589151581E+02  0.16448236209E+03  0.00000000000E+00 0. -1.
</event>
<event>
 7    1  0.2915642E-009  0.1043599E+03  0.7561462E-02  0.1271386E+00
         -2   -1    0    0    0  501 -0.00000000000E+00  0.00000000000E+00  0.21748426023E+03  0.21748426023E+03  0.00000000000E+00 0. -1.
          2   -1    0    0  501    0  0.00000000000E+00 -0.00000000000E+00 -0.70740869047E+02  0.70740869047E+02  0.00000000000E+00 0.  1.
         25    2    1    2    0    0 -0.56959608591E+02  0.53182815958E+00  0.10613695580E+03  0.17365611681E+03  0.12508682452E+03 0.  0.
          5    1    3    3  502    0 -0.93652266515E+02  0.21220710497E+01  0.98336448632E+02  0.13587781180E+03  0.41800000000E+01 0.  1.
         -5    1    3    3    0  502  0.36692657924E+02 -0.15902428902E+01  0.78005071656E+01  0.37778305017E+02  0.41800000000E+01 0.  1.
        -11    1    1    2    0    0  0.21938977744E+02 -0.26489028347E+02 -0.20096754910E+02  0.39835498305E+02  0.00000000000E+00 0.  1.
         11    1    1    2    0    0  0.35020630847E+02  0.25957200188E+02  0.60703190294E+02  0.74733514158E+02  0.00000000000E+00 0. -1.
</event>
<event>
 7    1  0.2682666E-009  0.1547318E+03  0.7561462E-02  0.1194776E+00
         -2   -1    0    0    0  501 -0.00000000000E+00  0.00000000000E+00  0.49573007565E+02  0.49573007565E+02  0.00000000000E+00 0.  1.
          2   -1    0    0  501    0  0.00000000000E+00 -0.00000000000E+00 -0.68967691811E+03  0.68967691811E+03  0.00000000000E+00 0. -1.
         25    2    1    2    0    0  0.71090592545E+02  0.13003777496E+03 -0.37291697683E+03  0.42033215083E+03  0.12509336573E+03 0.  0.
          5    1    3    3  502    0 -0.81933004454E+01  0.17913461881E+02 -0.19254898821E+03  0.19359908975E+03  0.41800000000E+01 0.  1.
         -5    1    3    3    0  502  0.79283892990E+02  0.11212431308E+03 -0.18036798862E+03  0.22673306109E+03  0.41800000000E+01 0.  1.
        -11    1    1    2    0    0 -0.61063198080E+02 -0.78594581597E+02 -0.90152756600E+02  0.13428827923E+03  0.00000000000E+00 0.  1.
         11    1    1    2    0    0 -0.10027394464E+02 -0.51443193364E+02 -0.17703417712E+03  0.18462949562E+03  0.00000000000E+00 0. -1.
</event>
<event>
 7    1  0.2556591E-009  0.1028081E+03  0.7561462E-02  0.1274499E+00
          2   -1    0    0  501    0  0.00000000000E+00  0.00000000000E+00  0.17374799441E+03  0.17374799441E+03  0.00000000000E+00 0.  1.
         -2   -1    0    0    0  501 -0.00000000000E+00 -0.00000000000E+00 -0.10592749020E+03  0.10592749020E+03  0.00000000000E+00 0. -1.
         25    2    1    2    0    0  0.66165295993E+02  0.13436268836E+02  0.84038653469E+02  0.16513064107E+03  0.12508898284E+03 0.  0.
          5    1    3    3  502    0 -0.54677961329E+01  0.26058970871E+02 -0.23147088190E+02  0.35527832034E+02  0.41800000000E+01 0.  1.
         -5    1    3    3    0  502  0.71633092126E+02 -0.12622702035E+02  0.10718574166E+03  0.12960280903E+03  0.41800000000E+01 0.  1.
        -11    1    1    2    0    0  0.17782620589E+02 -0.12706648404E+02  0.13265809933E+02  0.25566818766E+02  0.00000000000E+00 0.  1.
         11    1    1    2    0    0 -0.83947916582E+02 -0.72962043271E+00 -0.29483959185E+02  0.88978024779E+02  0.00000000000E+00 0. -1.
</event>
<event>
 7    1  0.2556591E-009  0.1270794E+03  0.7561462E-02  0.1231855E+00
          3   -1    0    0  501    0  0.00000000000E+00  0.00000000000E+00  0.43960174045E+02  0.43960174045E+02  0.00000000000E+00 0. -1.
         -3   -1    0    0    0  501 -0.00000000000E+00 -0.00000000000E+00 -0.52878472982E+03  0.52878472982E+03  0.00000000000E+00 0.  1.
         25    2    1    2    0    0  0.42285716703E+02 -0.97970611615E+02 -0.25956075008E+03  0.30725478503E+03  0.12508955737E+03 0.  0.
          5    1    3    3  502    0  0.64805942699E+02 -0.10467644157E+03 -0.14512499320E+03  0.19035677997E+03  0.41800000000E+01 0.  1.
         -5    1    3    3    0  502 -0.22520225997E+02  0.67058299537E+01 -0.11443575688E+03  0.11689800506E+03  0.41800000000E+01 0.  1.
        -11    1    1    2    0    0 -0.20708290212E+02  0.59479758671E+02 -0.39017900486E+02  0.74088268528E+02  0.00000000000E+00 0. -1.
         11    1    1    2    0    0 -0.21577426491E+02  0.38490852944E+02 -0.18624590520E+03  0.19140185030E+03  0.00000000000E+00 0.  1.
</event>
<event>
 7    1  0.2556591E-009  0.1657528E+03  0.7561462E-02  0.1182351E+00
         -2   -1    0    0    0  501 -0.00000000000E+00  0.00000000000E+00  0.10893819044E+03  0.10893819044E+03  0.00000000000E+00 0.  1.
          2   -1    0    0  501    0  0.00000000000E+00 -0.00000000000E+00 -0.30640789906E+03  0.30640789906E+03  0.00000000000E+00 0. -1.
         25    2    1    2    0    0  0.60412232784E+02 -0.12204150437E+03 -0.16947205125E+03  0.25081953543E+03  0.12508355824E+03 0.  0.
          5    1    3    3  502    0  0.48965857150E+01  0.21371258852E+02 -0.54103278278E+02  0.58526441691E+02  0.41800000000E+01 0. -1.
         -5    1    3    3    0  502  0.55515647069E+02 -0.14341276322E+03 -0.11536877297E+03  0.19229309374E+03  0.41800000000E+01 0. -1.
        -11    1    1    2    0    0  0.17851084424E+02  0.22955422899E+02  0.12885507119E+02  0.31806429370E+02  0.00000000000E+00 0.  1.
         11    1    1    2    0    0 -0.78263317207E+02  0.99086081468E+02 -0.40883164498E+02  0.13272012470E+03  0.00000000000E+00 0. -1.
</event>
<event>
 7    1  0.2556591E-009  0.1033234E+03  0.7561462E-02  0.1273459E+00
         -1   -1    0    0    0  501 -0.00000000000E+00  0.00000000000E+00  0.20247390560E+03  0.20247390560E+03  0.00000000000E+00 0.  1.
          1   -1    0    0  501    0  0.00000000000E+00 -0.00000000000E+00 -0.11283194051E+03  0.11283194051E+03  0.00000000000E+00 0. -1.
         25    2    1    2    0    0 -0.32608723662E+02  0.11071719723E+02 -0.55430090431E+02  0.14108702962E+03  0.12508854131E+03 0.  0.
          5    1    3    3  502    0 -0.71571407900E+02  0.19421225617E+02 -0.20010987309E+01  0.74304288095E+02  0.41800000000E+01 0.  1.
         -5    1    3    3    0  502  0.38962684238E+02 -0.83495058940E+01 -0.53428991700E+02  0.66782741526E+02  0.41800000000E+01 0.  1.
        -11    1    1    2    0    0 -0.17784106948E+02 -0.32889975124E+02  0.84829266464E+02  0.92703987900E+02  0.00000000000E+00 0.  1.
         11    1    1    2    0    0  0.50392830610E+02  0.21818255401E+02  0.60242789059E+02  0.81514828585E+02  0.00000000000E+00 0. -1.
</event>
<event>
 7    1  0.2556591E-009  0.7991770E+02  0.7561462E-02  0.1329285E+00
         -2   -1    0    0    0  501 -0.00000000000E+00  0.00000000000E+00  0.43278604182E+02  0.43278604182E+02  0.00000000000E+00 0.  1.
          2   -1    0    0  501    0  0.00000000000E+00 -0.00000000000E+00 -0.40924372139E+03  0.40924372139E+03  0.00000000000E+00 0. -1.
         25    2    1    2    0    0 -0.23246836030E+02  0.49696394021E+02 -0.29240336949E+03  0.32272894008E+03  0.12507634193E+03 0.  0.
          5    1    3    3  502    0 -0.79385821306E+01  0.10012202746E+02  0.10354549085E+02  0.16969218509E+02  0.41800000000E+01 0. -1.
         -5    1    3    3    0  502 -0.15308253900E+02  0.39684191276E+02 -0.30275791857E+03  0.30575972157E+03  0.41800000000E+01 0. -1.
        -11    1    1    2    0    0 -0.32057445741E+02 -0.47925011514E+01 -0.89699675511E+01  0.33631952257E+02  0.00000000000E+00 0.  1.
         11    1    1    2    0    0  0.55304281771E+02 -0.44903892870E+02 -0.64591780170E+02  0.96161433239E+02  0.00000000000E+00 0. -1.
</event>
<event>
 7    1  0.2556591E-009  0.1329257E+03  0.7561462E-02  0.1223178E+00
          2   -1    0    0  501    0  0.00000000000E+00  0.00000000000E+00  0.20317052800E+04  0.20317052800E+04  0.00000000000E+00 0. -1.
         -2   -1    0    0    0  501 -0.00000000000E+00 -0.00000000000E+00 -0.11753607831E+02  0.11753607831E+02  0.00000000000E+00 0.  1.
         25    2    1    2    0    0  0.16867942141E+02  0.80460335381E+02  0.15820924769E+04  0.15891577744E+04  0.12508970206E+03 0.  0.
          5    1    3    3  502    0  0.65444116648E+02  0.20412752495E+02  0.92060572687E+03  0.92316411846E+03  0.41800000000E+01 0.  1.
         -5    1    3    3    0  502 -0.48576174508E+02  0.60047582886E+02  0.66148675003E+03  0.66599365598E+03  0.41800000000E+01 0.  1.
        -11    1    1    2    0    0  0.35048489168E+02 -0.44603114153E+02  0.17447688451E+03  0.18346666622E+03  0.00000000000E+00 0.  1.
         11    1    1    2    0    0 -0.51916431308E+02 -0.35857221227E+02  0.26338231074E+03  0.27083444715E+03  0.00000000000E+00 0. -1.
</event>
<event>
 7    1  0.2556591E-009  0.8841216E+02  0.7561462E-02  0.1306743E+00
         -2   -1    0    0    0  501 -0.00000000000E+00  0.00000000000E+00  0.44567811057E+02  0.44567811057E+02  0.00000000000E+00 0.  1.
          2   -1    0    0  501    0  0.00000000000E+00 -0.00000000000E+00 -0.35708184686E+03  0.35708184686E+03  0.00000000000E+00 0. -1.
         25    2    1    2    0    0 -0.59534109934E+01 -0.43710784078E+02 -0.26154190780E+03  0.29325312953E+03  0.12508857940E+03 0.  0.
          5    1    3    3  502    0 -0.62076213185E+02 -0.36607335962E+02 -0.17986749089E+03  0.19381264140E+03  0.41800000000E+01 0.  1.
         -5    1    3    3    0  502  0.56122802192E+02 -0.71034481154E+01 -0.81674416910E+02  0.99440488125E+02  0.41800000000E+01 0.  1.
        -11    1    1    2    0    0  0.12692049232E+02  0.25261177826E+02  0.20082291687E+02  0.34677278703E+02  0.00000000000E+00 0.  1.
         11    1    1    2    0    0 -0.67386382390E+01  0.18449606252E+02 -0.71054419691E+02  0.73719249683E+02  0.00000000000E+00 0. -1.
</event>
<event>
 7    1  0.2556591E-009  0.1356055E+03  0.7561462E-02  0.1219367E+00
         -1   -1    0    0    0  501 -0.00000000000E+00  0.00000000000E+00  0.92416491369E+02  0.92416491369E+02  0.00000000000E+00 0.  1.
          1   -1    0    0  501    0  0.00000000000E+00 -0.00000000000E+00 -0.51459902735E+03  0.51459902735E+03  0.00000000000E+00 0. -1.
         25    2    1    2    0    0 -0.82936823498E+02  0.89508663680E+02 -0.42199414627E+03  0.45674506617E+03  0.12508668364E+03 0.  0.
          5    1    3    3  502    0 -0.43285205512E+01  0.54716873640E+02 -0.31331940597E+03  0.31811820902E+03  0.41800000000E+01 0.  1.
         -5    1    3    3    0  502 -0.78608302947E+02  0.34791790040E+02 -0.10867474030E+03  0.13862685716E+03  0.41800000000E+01 0.  1.
        -11    1    1    2    0    0  0.24307676718E+02 -0.59420387730E+02 -0.37692116746E+02  0.74446902489E+02  0.00000000000E+00 0. -1.
         11    1    1    2    0    0  0.58629146780E+02 -0.30088275950E+02  0.37503727033E+02  0.75823550056E+02  0.00000000000E+00 0.  1.
</event>
<event>
 7    1  0.2556591E-009  0.1407989E+03  0.7561462E-02  0.1212258E+00
          4   -1    0    0  501    0  0.00000000000E+00  0.00000000000E+00  0.72876326085E+02  0.72876326085E+02  0.00000000000E+00 0. -1.
         -4   -1    0    0    0  501 -0.00000000000E+00 -0.00000000000E+00 -0.30228111448E+03  0.30228111448E+03  0.00000000000E+00 0.  1.
         25    2    1    2    0    0  0.98823251104E+02  0.34007747060E+01 -0.10306588309E+03  0.18986036835E+03  0.12508710159E+03 0.  0.
          5    1    3    3  502    0  0.86380169201E+02 -0.52645718463E+02 -0.73778331104E+02  0.12527497693E+03  0.41800000000E+01 0.  1.
         -5    1    3    3    0  502  0.12443081904E+02  0.56046493169E+02 -0.29287551986E+02  0.64585391422E+02  0.41800000000E+01 0.  1.
        -11    1    1    2    0    0  0.11854508765E+02 -0.24635688238E+01 -0.48491335431E+02  0.49980077644E+02  0.00000000000E+00 0.  1.
         11    1    1    2    0    0 -0.11067775987E+03 -0.93720588216E+00 -0.77847569871E+02  0.13531699457E+03  0.00000000000E+00 0. -1.
</event>
<event>
 7    1  0.2556591E-009  0.1311324E+03  0.7561462E-02  0.1225785E+00
          2   -1    0    0  501    0  0.00000000000E+00  0.00000000000E+00  0.75888311844E+03  0.75888311844E+03  0.00000000000E+00 0.  1.
         -2   -1    0    0    0  501 -0.00000000000E+00 -0.00000000000E+00 -0.34096438171E+02  0.34096438171E+02  0.00000000000E+00 0. -1.
         25    2    1    2    0    0 -0.32226866129E+02 -0.10183056120E+03  0.51289237043E+03  0.53862208707E+03  0.12508850844E+03 0.  0.
          5    1    3    3  502    0 -0.73295885122E+02 -0.75907072646E+02  0.25228022721E+03  0.27349032139E+03  0.41800000000E+01 0.  1.
         -5    1    3    3    0  502  0.41069018993E+02 -0.25923488551E+02  0.26061214322E+03  0.26513176568E+03  0.41800000000E+01 0.  1.
        -11    1    1    2    0    0  0.57531237556E+00  0.22477941643E+02 -0.33918624029E+01  0.22739691629E+02  0.00000000000E+00 0. -1.
         11    1    1    2    0    0  0.31651553753E+02  0.79352619554E+02  0.21528617225E+03  0.23161777791E+03  0.00000000000E+00 0.  1.
</event>
<event>
 7    1  0.2556591E-009  0.1402390E+03  0.7561462E-02  0.1213008E+00
         -2   -1    0    0    0  501 -0.00000000000E+00  0.00000000000E+00  0.56774673030E+02  0.56774673030E+02  0.00000000000E+00 0.  1.
          2   -1    0    0  501    0  0.00000000000E+00 -0.00000000000E+00 -0.61828041283E+03  0.61828041283E+03  0.00000000000E+00 0. -1.
         25    2    1    2    0    0 -0.87409591711E+01  0.99265168494E+02 -0.48236340323E+03  0.50818475368E+03  0.12508922034E+03 0.  0.
          5    1    3    3  502    0  0.45876030343E+02  0.57673414648E+02 -0.13294185325E+03  0.15205867835E+03  0.41800000000E+01 0. -1.
         -5    1    3    3    0  502 -0.54616989514E+02  0.41591753846E+02 -0.34942154998E+03  0.35612607532E+03  0.41800000000E+01 0. -1.
        -11    1    1    2    0    0  0.39460426257E+02 -0.99636516943E+02 -0.34314950854E+02  0.11252589302E+03  0.00000000000E+00 0.  1.
         11    1    1    2    0    0 -0.30719467086E+02  0.37134844970E+00 -0.44827385710E+02  0.54344439157E+02  0.00000000000E+00 0. -1.
</event>
<event>
 7    1  0.2556591E-009  0.2318596E+03  0.7561462E-02  0.1125338E+00
          2   -1    0    0  501    0  0.00000000000E+00  0.00000000000E+00  0.33718842206E+03  0.33718842206E+03  0.00000000000E+00 0. -1.
         -2   -1    0    0    0  501 -0.00000000000E+00 -0.00000000000E+00 -0.16619494913E+03  0.16619494913E+03  0.00000000000E+00 0.  1.
         25    2    1    2    0    0  0.20908146385E+03  0.15319700921E+01  0.11075052189E+03  0.26763903074E+03  0.12509023631E+03 0.  0.
          5    1    3    3  502    0  0.46949703620E+01  0.28876453636E+02 -0.66848946466E+01  0.30299381805E+02  0.41800000000E+01 0. -1.
         -5    1    3    3    0  502  0.20438649348E+03 -0.27344483544E+02  0.11743541654E+03  0.23733964894E+03  0.41800000000E+01 0. -1.
        -11    1    1    2    0    0 -0.48614072428E+02 -0.39939803775E+02  0.16414963971E+02  0.65022819116E+02  0.00000000000E+00 0. -1.
         11    1    1    2    0    0 -0.16046739142E+03  0.38407833683E+02  0.43827987055E+02  0.17072152133E+03  0.00000000000E+00 0.  1.
</event>
<event>
 7    1  0.2556591E-009  0.1213165E+03  0.7561462E-02  0.1240941E+00
          1   -1    0    0  501    0  0.00000000000E+00  0.00000000000E+00  0.27980043873E+03  0.27980043873E+03  0.00000000000E+00 0. -1.
         -1   -1    0    0    0  501 -0.00000000000E+00 -0.00000000000E+00 -0.92850951509E+02  0.92850951509E+02  0.00000000000E+00 0.  1.
         25    2    1    2    0    0 -0.90593472007E+01 -0.11543274753E+03  0.51908568193E+02  0.17819375989E+03  0.12510685688E+03 0.  0.
          5    1    3    3  502    0 -0.23559964900E+02 -0.39554183946E+02 -0.37812809882E+02  0.59723415885E+02  0.41800000000E+01 0. -1.
         -5    1    3    3    0  502  0.14500617700E+02 -0.75878563579E+02  0.89721378075E+02  0.11847034400E+03  0.41800000000E+01 0. -1.
        -11    1    1    2    0    0  0.14122866890E+02  0.27074359470E+02 -0.27842918951E+01  0.30663147119E+02  0.00000000000E+00 0.  1.
         11    1    1    2    0    0 -0.50635196896E+01  0.88358388055E+02  0.13782521093E+03  0.16379448324E+03  0.00000000000E+00 0. -1.
</event>
<event>
 7    1  0.2556591E-009  0.1358162E+03  0.7561462E-02  0.1219072E+00
          1   -1    0    0  501    0  0.00000000000E+00  0.00000000000E+00  0.16335295146E+03  0.16335295146E+03  0.00000000000E+00 0. -1.
         -1   -1    0    0    0  501 -0.00000000000E+00 -0.00000000000E+00 -0.16280289842E+03  0.16280289842E+03  0.00000000000E+00 0.  1.
         25    2    1    2    0    0 -0.76774946545E+02  0.90904220312E+02  0.23430696036E+02  0.17421974488E+03  0.12508218219E+03 0.  0.
          5    1    3    3  502    0 -0.34229062494E+02  0.67451565130E+02 -0.46559173599E+02  0.88918903524E+02  0.41800000000E+01 0. -1.
         -5    1    3    3    0  502 -0.42545884051E+02  0.23452655182E+02  0.69989869635E+02  0.85300841357E+02  0.41800000000E+01 0. -1.
        -11    1    1    2    0    0  0.19857712106E+02 -0.87905092773E+02 -0.28856893086E+02  0.94627450267E+02  0.00000000000E+00 0.  1.
         11    1    1    2    0    0  0.56917234439E+02 -0.29991275397E+01  0.59762500898E+01  0.57308654733E+02  0.00000000000E+00 0. -1.
</event>
<event>
 7    1  0.2556591E-009  0.1090332E+03  0.7561462E-02  0.1262371E+00
         -4   -1    0    0    0  501 -0.00000000000E+00  0.00000000000E+00  0.16937285610E+02  0.16937285610E+02  0.00000000000E+00 0.  1.
          4   -1    0    0  501    0  0.00000000000E+00 -0.00000000000E+00 -0.74272914430E+03  0.74272914430E+03  0.00000000000E+00 0. -1.
         25    2    1    2    0    0 -0.18875108249E+01  0.28267278707E+02 -0.39230645706E+03  0.41274077500E+03  0.12509192360E+03 0.  0.
          5    1    3    3  502    0 -0.35870658724E+02  0.63862901693E+02 -0.28999646084E+03  0.29913307084E+03  0.41800000000E+01 0.  1.
         -5    1    3    3    0  502  0.33983147899E+02 -0.35595622986E+02 -0.10230999622E+03  0.11360770416E+03  0.41800000000E+01 0.  1.
        -11    1    1    2    0    0  0.76809707861E+01 -0.61296718258E+02 -0.22935198499E+03  0.23752603647E+03  0.00000000000E+00 0. -1.
         11    1    1    2    0    0 -0.57934599612E+01  0.33029439550E+02 -0.10413341663E+03  0.10939961844E+03  0.00000000000E+00 0.  1.
</event>
<event>
 7    1  0.2556591E-009  0.1157862E+03  0.7561462E-02  0.1250215E+00
          1   -1    0    0  501    0  0.00000000000E+00  0.00000000000E+00  0.23488094813E+03  0.23488094813E+03  0.00000000000E+00 0. -1.
         -1   -1    0    0    0  501 -0.00000000000E+00 -0.00000000000E+00 -0.85561301476E+02  0.85561301476E+02  0.00000000000E+00 0.  1.
         25    2    1    2    0    0  0.81882708029E+02 -0.38434966803E+02  0.10325269705E+03  0.18571622202E+03  0.12508945250E+03 0.  0.
          5    1    3    3  502    0  0.96287560623E+01 -0.35734150016E+02 -0.20362390798E+02  0.42446928978E+02  0.41800000000E+01 0.  1.
         -5    1    3    3    0  502  0.72253951966E+02 -0.27008167868E+01  0.12361508785E+03  0.14326929305E+03  0.41800000000E+01 0.  1.
        -11    1    1    2    0    0 -0.32955830089E+02  0.59984134454E+02  0.75969802388E+01  0.68861435011E+02  0.00000000000E+00 0.  1.
         11    1    1    2    0    0 -0.48926877939E+02 -0.21549167651E+02  0.38469969362E+02  0.65864592567E+02  0.00000000000E+00 0. -1.
</event>
<event>
 7    1  0.2556591E-009  0.1131301E+03  0.7561462E-02  0.1254881E+00
         -2   -1    0    0    0  501 -0.00000000000E+00  0.00000000000E+00  0.13021231511E+03  0.13021231511E+03  0.00000000000E+00 0.  1.
          2   -1    0    0  501    0  0.00000000000E+00 -0.00000000000E+00 -0.12537912813E+03  0.12537912813E+03  0.00000000000E+00 0. -1.
         25    2    1    2    0    0 -0.50263229428E+02 -0.35513280167E+02 -0.22008577007E+02  0.14113611522E+03  0.12508972882E+03 0.  0.
          5    1    3    3  502    0 -0.82032423090E+02 -0.13597187798E+02  0.18224031707E+02  0.85227869184E+02  0.41800000000E+01 0. -1.
         -5    1    3    3    0  502  0.31769193662E+02 -0.21916092369E+02 -0.40232608715E+02  0.55908246034E+02  0.41800000000E+01 0. -1.
        -11    1    1    2    0    0  0.61166876389E+02 -0.58126690387E+01 -0.42701425102E+01  0.61590648686E+02  0.00000000000E+00 0. -1.
         11    1    1    2    0    0 -0.10903646961E+02  0.41325949205E+02  0.31111906499E+02  0.52864679331E+02  0.00000000000E+00 0.  1.
</event>
<event>
 7    1  0.2556591E-009  0.1216075E+03  0.7561462E-02  0.1240468E+00
         -1   -1    0    0    0  501 -0.00000000000E+00  0.00000000000E+00  0.28938584855E+03  0.28938584855E+03  0.00000000000E+00 0. -1.
          1   -1    0    0  501    0  0.00000000000E+00 -0.00000000000E+00 -0.62725337692E+02  0.62725337692E+02  0.00000000000E+00 0.  1.
         25    2    1    2    0    0 -0.73946677102E+01 -0.74643545391E+02  0.87271638474E+02  0.16996950605E+03  0.12508778567E+03 0.  0.
          5    1    3    3  502    0 -0.53769277194E+02 -0.30361842161E+02  0.37020052844E+00  0.61891728670E+02  0.41800000000E+01 0. -1.
         -5    1    3    3    0  502  0.46374609484E+02 -0.44281703230E+02  0.86901437946E+02  0.10807777738E+03  0.41800000000E+01 0. -1.
        -11    1    1    2    0    0  0.45155477957E+02  0.63078853027E+02  0.87564377076E+02  0.11698495212E+03  0.00000000000E+00 0.  1.
         11    1    1    2    0    0 -0.37760810247E+02  0.11564692364E+02  0.51824495309E+02  0.65156728080E+02  0.00000000000E+00 0. -1.
</event>
<event>
 7    1  0.2556591E-009  0.4655140E+02  0.7561462E-02  0.1464883E+00
          1   -1    0    0  501    0  0.00000000000E+00  0.00000000000E+00  0.26593316577E+03  0.26593316577E+03  0.00000000000E+00 0. -1.
         -1   -1    0    0    0  501 -0.00000000000E+00 -0.00000000000E+00 -0.50076507953E+02  0.50076507953E+02  0.00000000000E+00 0.  1.
         25    2    1    2    0    0 -0.34209095642E+02  0.15543316465E+02  0.10230172995E+03  0.16589422188E+03  0.12507354633E+03 0.  0.
          5    1    3    3  502    0  0.34275555653E+01  0.11189204566E+02 -0.27731969742E+02  0.30388829885E+02  0.41800000000E+01 0. -1.
         -5    1    3    3    0  502 -0.37636651207E+02  0.43541118993E+01  0.13003369969E+03  0.13550539200E+03  0.41800000000E+01 0. -1.
        -11    1    1    2    0    0  0.19321226522E+02 -0.19188963144E+02  0.12690213567E+03  0.12979090160E+03  0.00000000000E+00 0. -1.
         11    1    1    2    0    0  0.14887869120E+02  0.36456466785E+01 -0.13347207798E+02  0.20324550244E+02  0.00000000000E+00 0.  1.
</event>
<event>
 7    1  0.2556591E-009  0.1730983E+03  0.7561462E-02  0.1174655E+00
          3   -1    0    0  501    0  0.00000000000E+00  0.00000000000E+00  0.11331537563E+03  0.11331537563E+03  0.00000000000E+00 0. -1.
         -3   -1    0    0    0  501 -0.00000000000E+00 -0.00000000000E+00 -0.37827579269E+03  0.37827579269E+03  0.00000000000E+00 0.  1.
         25    2    1    2    0    0 -0.67040593582E+02  0.14520913467E+03 -0.53466200123E+02  0.20997651577E+03  0.12510543010E+03 0.  0.
          5    1    3    3  502    0 -0.70353675936E+02  0.12588469640E+03  0.88234816461E+01  0.14454038444E+03  0.41800000000E+01 0. -1.
         -5    1    3    3    0  502  0.33130823535E+01  0.19324438268E+02 -0.62289681769E+02  0.65436131334E+02  0.41800000000E+01 0. -1.
        -11    1    1    2    0    0 -0.16870688053E+02 -0.59849149638E+02 -0.10161722339E+03  0.11913270297E+03  0.00000000000E+00 0.  1.
         11    1    1    2    0    0  0.83911281635E+02 -0.85359985029E+02 -0.10987699354E+03  0.16248194958E+03  0.00000000000E+00 0. -1.
</event>
<event>
 7    1  0.2556591E-009  0.1620262E+03  0.7561462E-02  0.1186428E+00
          1   -1    0    0  501    0  0.00000000000E+00  0.00000000000E+00  0.21021355918E+03  0.21021355918E+03  0.00000000000E+00 0. -1.
         -1   -1    0    0    0  501 -0.00000000000E+00 -0.00000000000E+00 -0.13210954700E+03  0.13210954700E+03  0.00000000000E+00 0.  1.
         25    2    1    2    0    0  0.22592057988E+02  0.12213965759E+03  0.22243648808E+02  0.17768104865E+03  0.12508908064E+03 0.  0.
          5    1    3    3  502    0  0.40934324615E+02 -0.95345101989E+01  0.13667112716E+02  0.44393560191E+02  0.41800000000E+01 0. -1.
         -5    1    3    3    0  502 -0.18342266627E+02  0.13167416779E+03  0.85765360916E+01  0.13328748846E+03  0.41800000000E+01 0. -1.
        -11    1    1    2    0    0  0.27013758636E+02 -0.77487811027E+02  0.78713622772E+01  0.82438233590E+02  0.00000000000E+00 0. -1.
         11    1    1    2    0    0 -0.49605816623E+02 -0.44651846562E+02  0.47989001093E+02  0.82203823939E+02  0.00000000000E+00 0.  1.
</event>
<event>
 7    1  0.2556591E-009  0.1871094E+03  0.7561462E-02  0.1161095E+00
         -2   -1    0    0    0  501 -0.00000000000E+00  0.00000000000E+00  0.68533781528E+03  0.68533781528E+03  0.00000000000E+00 0.  1.
          2   -1    0    0  501    0  0.00000000000E+00 -0.00000000000E+00 -0.85393704069E+02  0.85393704069E+02  0.00000000000E+00 0. -1.
         25    2    1    2    0    0 -0.51553508229E+02  0.16540496056E+03  0.10533055647E+03  0.23823683625E+03  0.12508276792E+03 0.  0.
          5    1    3    3  502    0  0.12597939096E+02  0.12199608138E+03  0.10367602624E+03  0.16064850687E+03  0.41800000000E+01 0.  1.
         -5    1    3    3    0  502 -0.64151447326E+02  0.43408879182E+02  0.16545302220E+01  0.77588329381E+02  0.41800000000E+01 0.  1.
        -11    1    1    2    0    0  0.32465546056E+02 -0.78368149114E+02  0.36812570318E+03  0.37777256626E+03  0.00000000000E+00 0.  1.
         11    1    1    2    0    0  0.19087962173E+02 -0.87036811445E+02  0.12648785156E+03  0.15472211683E+03  0.00000000000E+00 0. -1.
</event>
<event>
 7    1  0.2556591E-009  0.2574886E+03  0.7561462E-02  0.1108662E+00
         -2   -1    0    0    0  501 -0.00000000000E+00  0.00000000000E+00  0.58584318100E+02  0.58584318100E+02  0.00000000000E+00 0.  1.
          2   -1    0    0  501    0  0.00000000000E+00 -0.00000000000E+00 -0.11838142421E+04  0.11838142421E+04  0.00000000000E+00 0. -1.
         25    2    1    2    0    0 -0.74237592505E+02 -0.22552444945E+03 -0.49595228079E+03  0.56390491485E+03  0.12509033029E+03 0.  0.
          5    1    3    3  502    0 -0.80113088842E+02 -0.72599392635E+02 -0.27099060964E+03  0.29179129824E+03  0.41800000000E+01 0. -1.
         -5    1    3    3    0  502  0.58754963368E+01 -0.15292505682E+03 -0.22496167115E+03  0.27211361661E+03  0.41800000000E+01 0.  1.
        -11    1    1    2    0    0 -0.20913571426E+02  0.36591395619E+02 -0.10704958954E+03  0.11504747857E+03  0.00000000000E+00 0.  1.
         11    1    1    2    0    0  0.95151163931E+02  0.18893305383E+03 -0.52222805368E+03  0.56344616680E+03  0.00000000000E+00 0. -1.
</event>
<event>
 7    1  0.2556591E-009  0.8837318E+02  0.7561462E-02  0.1306840E+00
         -1   -1    0    0    0  501 -0.00000000000E+00  0.00000000000E+00  0.63644346082E+02  0.63644346082E+02  0.00000000000E+00 0.  1.
          1   -1    0    0  501    0  0.00000000000E+00 -0.00000000000E+00 -0.25934892432E+03  0.25934892432E+03  0.00000000000E+00 0. -1.
         25    2    1    2    0    0 -0.40123874673E+01 -0.23884991051E+02 -0.19483648381E+03  0.23279930352E+03  0.12509064013E+03 0.  0.
          5    1    3    3  502    0 -0.31650749825E+02 -0.43015372141E+02 -0.19139806769E+03  0.19875307525E+03  0.41800000000E+01 0.  1.
         -5    1    3    3    0  502  0.27638362357E+02  0.19130381090E+02 -0.34384161200E+01  0.34046228277E+02  0.41800000000E+01 0.  1.
        -11    1    1    2    0    0 -0.32394498876E+02  0.38288003948E+02  0.57647506523E+01  0.50483731576E+02  0.00000000000E+00 0.  1.
         11    1    1    2    0    0  0.36406886343E+02 -0.14403012897E+02 -0.66328450772E+01  0.39710235299E+02  0.00000000000E+00 0. -1.
</event>
<event>
 7    1  0.2556591E-009  0.9124077E+02  0.7561462E-02  0.1299875E+00
         -2   -1    0    0    0  501 -0.00000000000E+00  0.00000000000E+00  0.31913669897E+02  0.31913669897E+02  0.00000000000E+00 0.  1.
          2   -1    0    0  501    0  0.00000000000E+00 -0.00000000000E+00 -0.41382023980E+03  0.41382023980E+03  0.00000000000E+00 0. -1.
         25    2    1    2    0    0  0.28883706459E+02  0.19251148605E+02 -0.23205111658E+03  0.26589474475E+03  0.12508964529E+03 0.  0.
          5    1    3    3  502    0 -0.18749828799E+02 -0.23685673257E+02 -0.62551656393E+01  0.31131442222E+02  0.41800000000E+01 0. -1.
         -5    1    3    3    0  502  0.47633535258E+02  0.42936821862E+02 -0.22579595094E+03  0.23476330253E+03  0.41800000000E+01 0. -1.
        -11    1    1    2    0    0 -0.12422435040E+02 -0.50712769847E+02 -0.12776207912E+03  0.13801902325E+03  0.00000000000E+00 0. -1.
         11    1    1    2    0    0 -0.16461271418E+02  0.31461621241E+02 -0.22093374203E+02  0.41820141696E+02  0.00000000000E+00 0.  1.
</event>
<event>
 7    1  0.2556591E-009  0.1677748E+03  0.7561462E-02  0.1180188E+00
         -2   -1    0    0    0  501 -0.00000000000E+00  0.00000000000E+00  0.93230120106E+02  0.93230120106E+02  0.00000000000E+00 0.  1.
          2   -1    0    0  501    0  0.00000000000E+00 -0.00000000000E+00 -0.32703891424E+03  0.32703891424E+03  0.00000000000E+00 0. -1.
         25    2    1    2    0    0  0.12576992315E+03 -0.44527293456E+02 -0.88316506923E+02  0.20309038007E+03  0.12508054865E+03 0.  0.
          5    1    3    3  502    0  0.12313075568E+03 -0.75836894974E+02 -0.91586136561E+02  0.17122473666E+03  0.41800000000E+01 0.  1.
         -5    1    3    3    0  502  0.26391674709E+01  0.31309601518E+02  0.32696296382E+01  0.31865643413E+02  0.41800000000E+01 0.  1.
        -11    1    1    2    0    0 -0.33645674564E+01 -0.20362718158E+02 -0.32035570368E+02  0.38108245482E+02  0.00000000000E+00 0. -1.
         11    1    1    2    0    0 -0.12240535569E+03  0.64890011614E+02 -0.11345671685E+03  0.17907040880E+03  0.00000000000E+00 0.  1.
</event>
<event>
 7    1  0.2556591E-009  0.9188242E+02  0.7561462E-02  0.1298356E+00
         -1   -1    0    0    0  501 -0.00000000000E+00  0.00000000000E+00  0.56348415048E+02  0.56348415048E+02  0.00000000000E+00 0.  1.
          1   -1    0    0  501    0  0.00000000000E+00 -0.00000000000E+00 -0.24697824661E+03  0.24697824661E+03  0.00000000000E+00 0. -1.
         25    2    1    2    0    0 -0.16935286430E+02  0.34718525398E+02 -0.14127317026E+03  0.19260770954E+03  0.12508973262E+03 0.  0.
          5    1    3    3  502    0  0.14826522820E+02 -0.24760084252E+02  0.67189877185E+01  0.29924985331E+02  0.41800000000E+01 0. -1.
         -5    1    3    3    0  502 -0.31761809249E+02  0.59478609650E+02 -0.14799215798E+03  0.16268272421E+03  0.41800000000E+01 0. -1.
        -11    1    1    2    0    0  0.47773218932E+02 -0.28369865299E+02 -0.42680631156E+01  0.55725632046E+02  0.00000000000E+00 0. -1.
         11    1    1    2    0    0 -0.30837932502E+02 -0.63486600986E+01 -0.45088598182E+02  0.54993320067E+02  0.00000000000E+00 0.  1.
</event>
<event>
 7    1  0.2556591E-009  0.1238215E+03  0.7561462E-02  0.1236923E+00
         -1   -1    0    0    0  501 -0.00000000000E+00  0.00000000000E+00  0.39073346570E+02  0.39073346570E+02  0.00000000000E+00 0.  1.
          1   -1    0    0  501    0  0.00000000000E+00 -0.00000000000E+00 -0.55445177178E+03  0.55445177178E+03  0.00000000000E+00 0. -1.
         25    2    1    2    0    0 -0.23803562674E+02  0.94990453826E+02 -0.20900418507E+03  0.26252442852E+03  0.12508609147E+03 0.  0.
          5    1    3    3  502    0 -0.26197630098E+02 -0.17693230024E+02 -0.93754354742E+01  0.33237590192E+02  0.41800000000E+01 0. -1.
         -5    1    3    3    0  502  0.23940674238E+01  0.11268368385E+03 -0.19962874960E+03  0.22928683833E+03  0.41800000000E+01 0. -1.
        -11    1    1    2    0    0  0.29124040734E+02 -0.51589550779E+02 -0.75225923312E+02  0.95752968812E+02  0.00000000000E+00 0.  1.
         11    1    1    2    0    0 -0.53204780594E+01 -0.43400903047E+02 -0.23114831682E+03  0.23524772101E+03  0.00000000000E+00 0. -1.
</event>
<event>
 7    1  0.2556591E-009  0.8821085E+02  0.7561462E-02  0.1307243E+00
          1   -1    0    0  501    0  0.00000000000E+00  0.00000000000E+00  0.19931013718E+03  0.19931013718E+03  0.00000000000E+00 0. -1.
         -1   -1    0    0    0  501 -0.00000000000E+00 -0.00000000000E+00 -0.68511110551E+02  0.68511110551E+02  0.00000000000E+00 0.  1.
         25    2    1    2    0    0  0.21430861593E+02  0.20858343029E+02  0.11682118064E+03  0.17375119527E+03  0.12509171559E+03 0.  0.
          5    1    3    3  502    0  0.53366499360E+02  0.56944783159E+02  0.86901291595E+02  0.11687599610E+03  0.41800000000E+01 0. -1.
         -5    1    3    3    0  502 -0.31935637767E+02 -0.36086440129E+02  0.29919889041E+02  0.56875199174E+02  0.41800000000E+01 0. -1.
        -11    1    1    2    0    0 -0.78140633588E+01 -0.31601424153E+02  0.46763997342E+02  0.56978777120E+02  0.00000000000E+00 0. -1.
         11    1    1    2    0    0 -0.13616798235E+02  0.10743081123E+02 -0.32786151348E+02  0.37091275341E+02  0.00000000000E+00 0.  1.
</event>
<event>
 7    1  0.2556591E-009  0.1091854E+03  0.7561462E-02  0.1262086E+00
          2   -1    0    0  501    0  0.00000000000E+00  0.00000000000E+00  0.10422952888E+03  0.10422952888E+03  0.00000000000E+00 0. -1.
         -2   -1    0    0    0  501 -0.00000000000E+00 -0.00000000000E+00 -0.11845328446E+03  0.11845328446E+03  0.00000000000E+00 0.  1.
         25    2    1    2    0    0 -0.60366365800E+01 -0.24928337396E+02  0.73677827730E+01  0.12790741504E+03  0.12509260415E+03 0.  0.
          5    1    3    3  502    0 -0.69412065323E+01  0.50630918702E+02  0.97308126509E+01  0.52190338105E+02  0.41800000000E+01 0.  1.
         -5    1    3    3    0  502  0.90456995229E+00 -0.75559256098E+02 -0.23630298779E+01  0.75717076931E+02  0.41800000000E+01 0.  1.
        -11    1    1    2    0    0  0.23268159751E+02  0.53335790580E+02 -0.19930247270E+02  0.61508768247E+02  0.00000000000E+00 0. -1.
         11    1    1    2    0    0 -0.17231523171E+02 -0.28407453184E+02 -0.16612910925E+01  0.33266630056E+02  0.00000000000E+00 0.  1.
</event>
<event>
 7    1  0.2556591E-009  0.9189165E+02  0.7561462E-02  0.1298334E+00
         -1   -1    0    0    0  501 -0.00000000000E+00  0.00000000000E+00  0.42837311100E+02  0.42837311100E+02  0.00000000000E+00 0.  1.
          1   -1    0    0  501    0  0.00000000000E+00 -0.00000000000E+00 -0.34148981086E+03  0.34148981086E+03  0.00000000000E+00 0. -1.
         25    2    1    2    0    0  0.51686733256E+02 -0.12383102529E+02 -0.14737373010E+03  0.20047062935E+03  0.12507836457E+03 0.  0.
          5    1    3    3  502    0  0.52375269290E+02  0.35255691797E+02 -0.23180337976E+02  0.67386446011E+02  0.41800000000E+01 0. -1.
         -5    1    3    3    0  502 -0.68853603390E+00 -0.47638794327E+02 -0.12419339213E+03  0.13308418334E+03  0.41800000000E+01 0. -1.
        -11    1    1    2    0    0 -0.23895909135E+02 -0.19170534605E+02 -0.42441308585E+01  0.30927924553E+02  0.00000000000E+00 0.  1.
         11    1    1    2    0    0 -0.27790824121E+02  0.31553637134E+02 -0.14703463880E+03  0.15292856806E+03  0.00000000000E+00 0. -1.
</event>
<event>
 7    1  0.2556591E-009  0.1393854E+03  0.7561462E-02  0.1214158E+00
          2   -1    0    0  501    0  0.00000000000E+00  0.00000000000E+00  0.92969428126E+03  0.92969428126E+03  0.00000000000E+00 0. -1.
         -2   -1    0    0    0  501 -0.00000000000E+00 -0.00000000000E+00 -0.29485073562E+02  0.29485073562E+02  0.00000000000E+00 0.  1.
         25    2    1    2    0    0  0.20252853483E+01  0.10527205816E+03  0.69429250951E+03  0.71328516293E+03  0.12508927564E+03 0.  0.
          5    1    3    3  502    0  0.60147999083E+02  0.68459851702E+02  0.32233731296E+03  0.33499753554E+03  0.41800000000E+01 0.  1.
         -5    1    3    3    0  502 -0.58122713735E+02  0.36812206460E+02  0.37195519655E+03  0.37828762739E+03  0.41800000000E+01 0.  1.
        -11    1    1    2    0    0 -0.13586492598E+02 -0.90804920571E+00 -0.12119442152E+01  0.13670630683E+02  0.00000000000E+00 0.  1.
         11    1    1    2    0    0  0.11561207250E+02 -0.10436400896E+03  0.20712864240E+03  0.23222356121E+03  0.00000000000E+00 0. -1.
</event>
<event>
 7    1  0.2556591E-009  0.1450691E+03  0.7561462E-02  0.1206666E+00
          2   -1    0    0  501    0  0.00000000000E+00  0.00000000000E+00  0.26211004872E+03  0.26211004872E+03  0.00000000000E+00 0.  1.
         -2   -1    0    0    0  501 -0.00000000000E+00 -0.00000000000E+00 -0.19151565585E+03  0.19151565585E+03  0.00000000000E+00 0. -1.
         25    2    1    2    0    0 -0.11623670768E+03 -0.59934577822E+02  0.18367711385E+03  0.25785415650E+03  0.12509339726E+03 0.  0.
          5    1    3    3  502    0 -0.70104390558E+02 -0.43305598736E+02  0.17235221132E+02  0.84288348571E+02  0.41800000000E+01 0.  1.
         -5    1    3    3    0  502 -0.46132317123E+02 -0.16628979087E+02  0.16644189272E+03  0.17356580793E+03  0.41800000000E+01 0.  1.
        -11    1    1    2    0    0  0.19346769966E+02  0.58391108929E+02 -0.56708404318E+02  0.83663984070E+02  0.00000000000E+00 0. -1.
         11    1    1    2    0    0  0.96889937715E+02  0.15434688930E+01 -0.56374316662E+02  0.11210756400E+03  0.00000000000E+00 0.  1.
</event>
<event>
 7    1  0.2556591E-009  0.1036200E+03  0.7561462E-02  0.1272863E+00
         -4   -1    0    0    0  501 -0.00000000000E+00  0.00000000000E+00  0.36509797252E+02  0.36509797252E+02  0.00000000000E+00 0.  1.
          4   -1    0    0  501    0  0.00000000000E+00 -0.00000000000E+00 -0.33208787886E+03  0.33208787886E+03  0.00000000000E+00 0. -1.
         25    2    1    2    0    0 -0.45680033903E+01  0.11583596902E+02 -0.14793939724E+03  0.19413657346E+03  0.12509155658E+03 0.  0.
          5    1    3    3  502    0  0.54094681343E+02  0.13636931687E+02 -0.32850739225E+02  0.64875603451E+02  0.41800000000E+01 0.  1.
         -5    1    3    3    0  502 -0.58662684734E+02 -0.20533347849E+01 -0.11508865801E+03  0.12926097001E+03  0.41800000000E+01 0.  1.
        -11    1    1    2    0    0 -0.36061159101E+02 -0.30874802928E+02 -0.66761344307E+02  0.81919092678E+02  0.00000000000E+00 0.  1.
         11    1    1    2    0    0  0.40629162491E+02  0.19291206026E+02 -0.80877340066E+02  0.92542009978E+02  0.00000000000E+00 0. -1.
</event>
<event>
 7    1  0.2556591E-009  0.1171208E+03  0.7561462E-02  0.1247924E+00
         -2   -1    0    0    0  501 -0.00000000000E+00  0.00000000000E+00  0.57504415132E+02  0.57504415132E+02  0.00000000000E+00 0.  1.
          2   -1    0    0  501    0  0.00000000000E+00 -0.00000000000E+00 -0.42514975741E+03  0.42514975741E+03  0.00000000000E+00 0. -1.
         25    2    1    2    0    0 -0.68139942878E+02 -0.58215824502E+02 -0.30126253875E+03  0.33828833575E+03  0.12509095415E+03 0.  0.
          5    1    3    3  502    0 -0.98969383551E+02 -0.54840053322E+02 -0.27513304072E+03  0.29751980241E+03  0.41800000000E+01 0.  1.
         -5    1    3    3    0  502  0.30829440673E+02 -0.33757711797E+01 -0.26129498027E+02  0.40768533336E+02  0.41800000000E+01 0.  1.
        -11    1    1    2    0    0  0.42914231995E+02  0.33939946632E+02  0.14183386392E+02  0.56521851833E+02  0.00000000000E+00 0.  1.
         11    1    1    2    0    0  0.25225710882E+02  0.24275877870E+02 -0.80566189920E+02  0.87843984962E+02  0.00000000000E+00 0. -1.
</event>
<event>
 7    1  0.2556591E-009  0.1111177E+03  0.7561462E-02  0.1258514E+00
         -2   -1    0    0    0  501 -0.00000000000E+00  0.00000000000E+00  0.24751013411E+03  0.24751013411E+03  0.00000000000E+00 0.  1.
          2   -1    0    0  501    0  0.00000000000E+00 -0.00000000000E+00 -0.80078719921E+02  0.80078719921E+02  0.00000000000E+00 0. -1.
         25    2    1    2    0    0 -0.50864975937E+02  0.28927336722E+02  0.17346114510E+03  0.22172047872E+03  0.12508862954E+03 0.  0.
          5    1    3    3  502    0  0.12869182317E+02 -0.31139266371E+02  0.10537716366E+03  0.11071173734E+03  0.41800000000E+01 0.  1.
         -5    1    3    3    0  502 -0.63734158254E+02  0.60066603094E+02  0.68083981444E+02  0.11100874139E+03  0.41800000000E+01 0.  1.
        -11    1    1    2    0    0  0.26477115666E+01  0.26790183964E+02 -0.16301708883E+02  0.31471734077E+02  0.00000000000E+00 0.  1.
         11    1    1    2    0    0  0.48217264371E+02 -0.55717520686E+02  0.10271977973E+02  0.74396641230E+02  0.00000000000E+00 0. -1.
</event>
<event>
 7    1  0.2556591E-009  0.1201833E+03  0.7561462E-02  0.1242795E+00
         -3   -1    0    0    0  501 -0.00000000000E+00  0.00000000000E+00  0.63460920317E+03  0.63460920317E+03  0.00000000000E+00 0. -1.
          3   -1    0    0  501    0  0.00000000000E+00 -0.00000000000E+00 -0.24152994765E+02  0.24152994765E+02  0.00000000000E+00 0.  1.
         25    2    1    2    0    0  0.52460088762E+02 -0.23650970530E+02  0.28991840898E+03  0.32095425176E+03  0.12509004171E+03 0.  0.
          5    1    3    3  502    0 -0.57407294043E+01 -0.64651776860E+02  0.16069155830E+03  0.17335529277E+03  0.41800000000E+01 0. -1.
         -5    1    3    3    0  502  0.58200818166E+02  0.41000806329E+02  0.12922685069E+03  0.14759895898E+03  0.41800000000E+01 0. -1.
        -11    1    1    2    0    0  0.22131807628E+02  0.19177517928E+02  0.59992521221E+02  0.66758495379E+02  0.00000000000E+00 0.  1.
         11    1    1    2    0    0 -0.74591896390E+02  0.44734526022E+01  0.26054527820E+03  0.27104945080E+03  0.00000000000E+00 0. -1.
</event>
<event>
 7    1  0.2556591E-009  0.1138530E+03  0.7561462E-02  0.1253597E+00
          1   -1    0    0  501    0  0.00000000000E+00  0.00000000000E+00  0.15112527667E+04  0.15112527667E+04  0.00000000000E+00 0. -1.
         -1   -1    0    0    0  501 -0.00000000000E+00 -0.00000000000E+00 -0.15244520365E+02  0.15244520365E+02  0.00000000000E+00 0.  1.
         25    2    1    2    0    0  0.65885548964E+02  0.34056933931E+01  0.12254915941E+04  0.12336246838E+04  0.12509080350E+03 0.  0.
          5    1    3    3  502    0  0.11042922065E+02  0.59273847701E+02  0.65277940902E+03  0.65557132670E+03  0.41800000000E+01 0. -1.
         -5    1    3    3    0  502  0.54842626899E+02 -0.55868154308E+02  0.57271218505E+03  0.57805335713E+03  0.41800000000E+01 0. -1.
        -11    1    1    2    0    0  0.11233958584E+02  0.25481920086E+01  0.45580277894E-02  0.11519337166E+02  0.00000000000E+00 0.  1.
         11    1    1    2    0    0 -0.77119507548E+02 -0.59538854017E+01  0.27051209421E+03  0.28135326604E+03  0.00000000000E+00 0. -1.
</event>
<event>
 7    1  0.2556591E-009  0.1424867E+03  0.7561462E-02  0.1210022E+00
          1   -1    0    0  501    0  0.00000000000E+00  0.00000000000E+00  0.93579450941E+02  0.93579450941E+02  0.00000000000E+00 0. -1.
         -1   -1    0    0    0  501 -0.00000000000E+00 -0.00000000000E+00 -0.24895284609E+03  0.24895284609E+03  0.00000000000E+00 0.  1.
         25    2    1    2    0    0  0.82899122840E+02  0.69064845048E+02 -0.91588886691E+02  0.18888707265E+03  0.12509030601E+03 0.  0.
          5    1    3    3  502    0 -0.15122001742E+02 -0.18470149650E+02 -0.41751389505E+02  0.48274965462E+02  0.41800000000E+01 0. -1.
         -5    1    3    3    0  502  0.98021124581E+02  0.87534994698E+02 -0.49837497186E+02  0.14061210718E+03  0.41800000000E+01 0. -1.
        -11    1    1    2    0    0 -0.95210221150E+02 -0.52844562332E+02 -0.27938856802E+02  0.11241936532E+03  0.00000000000E+00 0. -1.
         11    1    1    2    0    0  0.12311098311E+02 -0.16220282716E+02 -0.35845651658E+02  0.41225859067E+02  0.00000000000E+00 0.  1.
</event>
<event>
 7    1  0.2556591E-009  0.4618874E+02  0.7561462E-02  0.1467054E+00
          2   -1    0    0  501    0  0.00000000000E+00  0.00000000000E+00  0.26669182857E+03  0.26669182857E+03  0.00000000000E+00 0. -1.
         -2   -1    0    0    0  501 -0.00000000000E+00 -0.00000000000E+00 -0.43171075180E+02  0.43171075180E+02  0.00000000000E+00 0.  1.
         25    2    1    2    0    0  0.85535381341E+01  0.75524042466E+01  0.14737877913E+03  0.19365199967E+03  0.12510152124E+03 0.  0.
          5    1    3    3  502    0 -0.96936379192E+01  0.17098178950E+02  0.16500561075E+03  0.16622466219E+03  0.41800000000E+01 0.  1.
         -5    1    3    3    0  502  0.18247176053E+02 -0.95457747031E+01 -0.17626831624E+02  0.27427337488E+02  0.41800000000E+01 0.  1.
        -11    1    1    2    0    0 -0.29627016001E+02 -0.39101170673E+01 -0.67229369595E+01  0.30630817390E+02  0.00000000000E+00 0.  1.
         11    1    1    2    0    0  0.21073477867E+02 -0.36422871793E+01  0.82864911221E+02  0.85580086684E+02  0.00000000000E+00 0. -1.
</event>
<event>
 7    1  0.2556591E-009  0.1399655E+03  0.7561462E-02  0.1213375E+00
         -1   -1    0    0    0  501 -0.00000000000E+00  0.00000000000E+00  0.50512543006E+02  0.50512543006E+02  0.00000000000E+00 0.  1.
          1   -1    0    0  501    0  0.00000000000E+00 -0.00000000000E+00 -0.55962095164E+03  0.55962095164E+03  0.00000000000E+00 0. -1.
         25    2    1    2    0    0  0.91420845629E+02  0.82903491713E+02 -0.22164729457E+03  0.28285262972E+03  0.12508927611E+03 0.  0.
          5    1    3    3  502    0  0.22117983832E+02  0.20152526595E+02  0.10949096284E+02  0.32135411097E+02  0.41800000000E+01 0. -1.
         -5    1    3    3    0  502  0.69302861797E+02  0.62750965118E+02 -0.23259639085E+03  0.25071721862E+03  0.41800000000E+01 0. -1.
        -11    1    1    2    0    0 -0.53615713028E+02  0.11153611948E+02 -0.11103957293E+03  0.12380967046E+03  0.00000000000E+00 0.  1.
         11    1    1    2    0    0 -0.37805132601E+02 -0.94057103662E+02 -0.17642154114E+03  0.20347119447E+03  0.00000000000E+00 0. -1.
</event>
<event>
 7    1  0.2815293E-009  0.1138426E+03  0.7561462E-02  0.1253615E+00
         -1   -1    0    0    0  501 -0.00000000000E+00  0.00000000000E+00  0.14279357505E+02  0.14279357505E+02  0.00000000000E+00 0.  1.
          1   -1    0    0  501    0  0.00000000000E+00 -0.00000000000E+00 -0.14375916481E+04  0.14375916481E+04  0.00000000000E+00 0. -1.
         25    2    1    2    0    0 -0.58844920661E+02  0.47743448730E+02 -0.10506107446E+04  0.10607417703E+04  0.12509198609E+03 0.  0.
          5    1    3    3  502    0 -0.60678961444E+02 -0.37002540697E+00 -0.91051038015E+03  0.91253969670E+03  0.41800000000E+01 0. -1.
         -5    1    3    3    0  502  0.18340407827E+01  0.48113474137E+02 -0.14010036445E+03  0.14820207360E+03  0.41800000000E+01 0. -1.
        -11    1    1    2    0    0  0.71631501638E+02 -0.26716160091E+01 -0.23351291827E+03  0.24426725641E+03  0.00000000000E+00 0.  1.
         11    1    1    2    0    0 -0.12786580977E+02 -0.45071832721E+02 -0.13918862773E+03  0.14686197891E+03  0.00000000000E+00 0. -1.
</event>
<event>
 7    1  0.2556591E-009  0.1667182E+03  0.7561462E-02  0.1181314E+00
         -2   -1    0    0    0  501 -0.00000000000E+00  0.00000000000E+00  0.10359544595E+03  0.10359544595E+03  0.00000000000E+00 0.  1.
          2   -1    0    0  501    0  0.00000000000E+00 -0.00000000000E+00 -0.32312356466E+03  0.32312356466E+03  0.00000000000E+00 0. -1.
         25    2    1    2    0    0 -0.83207757103E+02 -0.10184203079E+03 -0.39358435749E+02  0.18572146136E+03  0.12509214471E+03 0.  0.
          5    1    3    3  502    0 -0.42024037598E+02 -0.12386792337E+03 -0.45230080134E+02  0.13846485014E+03  0.41800000000E+01 0. -1.
         -5    1    3    3    0  502 -0.41183719505E+02  0.22025892581E+02  0.58716443845E+01  0.47256611220E+02  0.41800000000E+01 0. -1.
        -11    1    1    2    0    0  0.52167494209E+02  0.31993553432E+01 -0.35552957609E+02  0.63211518898E+02  0.00000000000E+00 0.  1.
         11    1    1    2    0    0  0.31040262894E+02  0.98642675443E+02 -0.14461672534E+03  0.17778603035E+03  0.00000000000E+00 0. -1.
</event>
<event>
 7    1  0.2556591E-009  0.1624144E+03  0.7561462E-02  0.1185998E+00
          3   -1    0    0  501    0  0.00000000000E+00  0.00000000000E+00  0.57362588270E+03  0.57362588270E+03  0.00000000000E+00 0. -1.
         -3   -1    0    0    0  501 -0.00000000000E+00 -0.00000000000E+00 -0.63325678871E+02  0.63325678871E+02  0.00000000000E+00 0.  1.
         25    2    1    2    0    0  0.11767717065E+03 -0.94273306512E+02  0.23399816744E+03  0.30518427916E+03  0.12508768551E+03 0.  0.
          5    1    3    3  502    0 -0.67552339604E-01  0.70886737761E+01  0.98937383035E+02  0.99279061342E+02  0.41800000000E+01 0.  1.
         -5    1    3    3    0  502  0.11774472299E+03 -0.10136198029E+03  0.13506078441E+03  0.20590521782E+03  0.41800000000E+01 0.  1.
        -11    1    1    2    0    0 -0.10036935993E+03  0.46984864999E+02  0.10299599442E+03  0.15129362451E+03  0.00000000000E+00 0.  1.
         11    1    1    2    0    0 -0.17307810726E+02  0.47288441512E+02  0.17330604197E+03  0.18047365790E+03  0.00000000000E+00 0. -1.
</event>
<event>
 7    1  0.2556591E-009  0.8239064E+02  0.7561462E-02  0.1322401E+00
         -2   -1    0    0    0  501 -0.00000000000E+00  0.00000000000E+00  0.28007136105E+02  0.28007136105E+02  0.00000000000E+00 0.  1.
          2   -1    0    0  501    0  0.00000000000E+00 -0.00000000000E+00 -0.55907586132E+03  0.55907586132E+03  0.00000000000E+00 0. -1.
         25    2    1    2    0    0 -0.13164602502E+02  0.52088609399E+02 -0.36237942457E+03  0.38711341584E+03  0.12510563291E+03 0.  0.
          5    1    3    3  502    0 -0.50568671721E+02  0.13623220350E+02 -0.30070767513E+03  0.30526277365E+03  0.41800000000E+01 0. -1.
         -5    1    3    3    0  502  0.37404069219E+02  0.38465389049E+02 -0.61671749439E+02  0.81850642194E+02  0.41800000000E+01 0. -1.
        -11    1    1    2    0    0  0.11895088081E+02 -0.80326767771E+01  0.89694789902E+01  0.16925382418E+02  0.00000000000E+00 0.  1.
         11    1    1    2    0    0  0.12695144213E+01 -0.44055932622E+02 -0.17765877964E+03  0.18304419917E+03  0.00000000000E+00 0. -1.
</event>
<event>
 7    1  0.2556591E-009  0.1007149E+03  0.7561462E-02  0.1278800E+00
         -1   -1    0    0    0  501 -0.00000000000E+00  0.00000000000E+00  0.43809896650E+02  0.43809896650E+02  0.00000000000E+00 0.  1.
          1   -1    0    0  501    0  0.00000000000E+00 -0.00000000000E+00 -0.28622396425E+03  0.28622396425E+03  0.00000000000E+00 0. -1.
         25    2    1    2    0    0  0.68975389879E+01 -0.28427106169E+02 -0.16834933994E+03  0.21176408382E+03  0.12508737158E+03 0.  0.
          5    1    3    3  502    0  0.59169485474E+02 -0.94785425086E+01 -0.13248885692E+03  0.14547041070E+03  0.41800000000E+01 0. -1.
         -5    1    3    3    0  502 -0.52271946486E+02 -0.18948563660E+02 -0.35860483020E+02  0.66293673127E+02  0.41800000000E+01 0. -1.
        -11    1    1    2    0    0 -0.12030865101E+02  0.56142038788E+02 -0.68774490310E+02  0.89591298415E+02  0.00000000000E+00 0. -1.
         11    1    1    2    0    0  0.51333261129E+01 -0.27714932619E+02 -0.52902373441E+01  0.28678478659E+02  0.00000000000E+00 0.  1.
</event>
<event>
 7    1  0.2556591E-009  0.1448811E+03  0.7561462E-02  0.1206908E+00
         -2   -1    0    0    0  501 -0.00000000000E+00  0.00000000000E+00  0.17206641604E+03  0.17206641604E+03  0.00000000000E+00 0. -1.
          2   -1    0    0  501    0  0.00000000000E+00 -0.00000000000E+00 -0.17809558993E+03  0.17809558993E+03  0.00000000000E+00 0.  1.
         25    2    1    2    0    0  0.98906514063E+02  0.55879178320E+02  0.64795556412E+02  0.18097356013E+03  0.12509190318E+03 0.  0.
          5    1    3    3  502    0  0.87564894475E+01 -0.17501534306E+02  0.61432620258E+02  0.64609744174E+02  0.41800000000E+01 0. -1.
         -5    1    3    3    0  502  0.90150024616E+02  0.73380712626E+02  0.33629361538E+01  0.11636381595E+03  0.41800000000E+01 0. -1.
        -11    1    1    2    0    0 -0.52493438064E+02  0.26559178820E+02 -0.22825668759E+02  0.63102790538E+02  0.00000000000E+00 0. -1.
         11    1    1    2    0    0 -0.46413075999E+02 -0.82438357140E+02 -0.47999061551E+02  0.10608565530E+03  0.00000000000E+00 0.  1.
</event>
<event>
 7    1  0.2556591E-009  0.1021363E+03  0.7561462E-02  0.1275867E+00
          1   -1    0    0  501    0  0.00000000000E+00  0.00000000000E+00  0.24866439493E+03  0.24866439493E+03  0.00000000000E+00 0. -1.
         -1   -1    0    0    0  501 -0.00000000000E+00 -0.00000000000E+00 -0.86801260988E+02  0.86801260988E+02  0.00000000000E+00 0.  1.
         25    2    1    2    0    0 -0.75628272943E+02 -0.51673687157E+02  0.13064652505E+03  0.20273395472E+03  0.12507092498E+03 0.  0.
          5    1    3    3  502    0 -0.19394342832E+02  0.13603708861E+02 -0.18562516956E+02  0.30384878877E+02  0.41800000000E+01 0.  1.
         -5    1    3    3    0  502 -0.56233930111E+02 -0.65277396018E+02  0.14920904201E+03  0.17234907584E+03  0.41800000000E+01 0.  1.
        -11    1    1    2    0    0  0.51616736150E+02  0.22868285408E+02 -0.27705996815E+02  0.62887742747E+02  0.00000000000E+00 0.  1.
         11    1    1    2    0    0  0.24011536793E+02  0.28805401749E+02  0.58922605703E+02  0.69843958449E+02  0.00000000000E+00 0. -1.
</event>
<event>
 7    1  0.2556591E-009  0.2110293E+03  0.7561462E-02  0.1140753E+00
          2   -1    0    0  501    0  0.00000000000E+00  0.00000000000E+00  0.92815008887E+02  0.92815008887E+02  0.00000000000E+00 0. -1.
         -2   -1    0    0    0  501 -0.00000000000E+00 -0.00000000000E+00 -0.68278931641E+03  0.68278931641E+03  0.00000000000E+00 0.  1.
         25    2    1    2    0    0 -0.88660811295E+02  0.17963600400E+03 -0.14043325083E+03  0.27477108147E+03  0.12509123022E+03 0.  0.
          5    1    3    3  502    0 -0.84613736362E+02  0.16283435908E+03 -0.16338561665E+03  0.24573734963E+03  0.41800000000E+01 0.  1.
         -5    1    3    3    0  502 -0.40470749329E+01  0.16801644926E+02  0.22952365817E+02  0.29033731836E+02  0.41800000000E+01 0.  1.
        -11    1    1    2    0    0  0.99037007713E+02 -0.18439562793E+03 -0.42881695110E+03  0.47717298127E+03  0.00000000000E+00 0.  1.
         11    1    1    2    0    0 -0.10376196418E+02  0.47596239305E+01 -0.20724105590E+02  0.23660262563E+02  0.00000000000E+00 0. -1.
</event>
<event>
 7    1  0.2556591E-009  0.8026562E+02  0.7561462E-02  0.1328299E+00
         -2   -1    0    0    0  501 -0.00000000000E+00  0.00000000000E+00  0.25648645390E+03  0.25648645390E+03  0.00000000000E+00 0.  1.
          2   -1    0    0  501    0  0.00000000000E+00 -0.00000000000E+00 -0.48871656177E+02  0.48871656177E+02  0.00000000000E+00 0. -1.
         25    2    1    2    0    0 -0.21098897822E+02  0.20970045111E+02  0.14592389228E+03  0.19449020479E+03  0.12509097145E+03 0.  0.
          5    1    3    3  502    0 -0.40954034623E+02  0.42268598481E+02  0.15798629236E+02  0.61081392054E+02  0.41800000000E+01 0.  1.
         -5    1    3    3    0  502  0.19855136801E+02 -0.21298553370E+02  0.13012526304E+03  0.13340881273E+03  0.41800000000E+01 0.  1.
        -11    1    1    2    0    0 -0.46151357614E+01  0.21758564394E+02  0.56510448433E+02  0.60730267451E+02  0.00000000000E+00 0.  1.
         11    1    1    2    0    0  0.25714033584E+02 -0.42728609505E+02  0.51804570132E+01  0.50137637841E+02  0.00000000000E+00 0. -1.
</event>
<event>
 7    1  0.2556591E-009  0.1127290E+03  0.7561462E-02  0.1255598E+00
          2   -1    0    0  501    0  0.00000000000E+00  0.00000000000E+00  0.10216197876E+04  0.10216197876E+04  0.00000000000E+00 0. -1.
         -2   -1    0    0    0  501 -0.00000000000E+00 -0.00000000000E+00 -0.15476311341E+02  0.15476311341E+02  0.00000000000E+00 0.  1.
         25    2    1    2    0    0 -0.14039088151E+02 -0.10940826565E+02  0.75124216232E+03  0.76179171703E+03  0.12508011834E+03 0.  0.
          5    1    3    3  502    0 -0.69041879010E+02  0.34734340210E+01  0.42471326539E+03  0.43032275794E+03  0.41800000000E+01 0. -1.
         -5    1    3    3    0  502  0.55002790859E+02 -0.14414260586E+02  0.32652889694E+03  0.33146895910E+03  0.41800000000E+01 0. -1.
        -11    1    1    2    0    0  0.56260289679E+02  0.84840160763E+01  0.18552393953E+03  0.19405239205E+03  0.00000000000E+00 0.  1.
         11    1    1    2    0    0 -0.42221201528E+02  0.24568104888E+01  0.69377374423E+02  0.81251989872E+02  0.00000000000E+00 0. -1.
</event>
<event>
 7    1  0.2556591E-009  0.9281575E+02  0.7561462E-02  0.1296173E+00
          1   -1    0    0  501    0  0.00000000000E+00  0.00000000000E+00  0.13121028785E+03  0.13121028785E+03  0.00000000000E+00 0. -1.
         -1   -1    0    0    0  501 -0.00000000000E+00 -0.00000000000E+00 -0.21687225718E+03  0.21687225718E+03  0.00000000000E+00 0.  1.
         25    2    1    2    0    0 -0.62675192383E+02  0.44731009183E+01  0.65529921094E+02  0.15456533965E+03  0.12509230707E+03 0.  0.
          5    1    3    3  502    0 -0.83902765917E+01  0.29479707175E+02  0.85886725511E+02  0.91287742306E+02  0.41800000000E+01 0.  1.
         -5    1    3    3    0  502 -0.54284915791E+02 -0.25006606257E+02 -0.20356804416E+02  0.63277597339E+02  0.41800000000E+01 0.  1.
        -11    1    1    2    0    0  0.78461426601E+02 -0.70932502599E+01 -0.15766765414E+03  0.17625435831E+03  0.00000000000E+00 0.  1.
         11    1    1    2    0    0 -0.15786234218E+02  0.26201493416E+01  0.64757637192E+01  0.17262847074E+02  0.00000000000E+00 0. -1.
</event>
<event>
 7    1  0.2556591E-009  0.1118298E+03  0.7561462E-02  0.1257218E+00
         -2   -1    0    0    0  501 -0.00000000000E+00  0.00000000000E+00  0.13630626733E+03  0.13630626733E+03  0.00000000000E+00 0. -1.
          2   -1    0    0  501    0  0.00000000000E+00 -0.00000000000E+00 -0.15683206730E+03  0.15683206730E+03  0.00000000000E+00 0.  1.
         25    2    1    2    0    0  0.76443535342E+02 -0.48701090353E+02 -0.50967100621E+02  0.16266729950E+03  0.12509034608E+03 0.  0.
          5    1    3    3  502    0  0.16347947358E+01  0.11404106579E+02 -0.64509118025E+02  0.65662964516E+02  0.41800000000E+01 0. -1.
         -5    1    3    3    0  502  0.74808740606E+02 -0.60105196932E+02  0.13542017404E+02  0.97004334979E+02  0.41800000000E+01 0. -1.
        -11    1    1    2    0    0 -0.35785932188E+02  0.62830294942E+02 -0.80171211685E+01  0.72749935649E+02  0.00000000000E+00 0.  1.
         11    1    1    2    0    0 -0.40657603153E+02 -0.14129204589E+02  0.38458421822E+02  0.57721099483E+02  0.00000000000E+00 0. -1.
</event>
<event>
 7    1  0.2556591E-009  0.1089899E+03  0.7561462E-02  0.1262452E+00
          1   -1    0    0  501    0  0.00000000000E+00  0.00000000000E+00  0.63499308777E+03  0.63499308777E+03  0.00000000000E+00 0. -1.
         -1   -1    0    0    0  501 -0.00000000000E+00 -0.00000000000E+00 -0.22623148850E+02  0.22623148850E+02  0.00000000000E+00 0.  1.
         25    2    1    2    0    0 -0.36310082687E+01  0.48122146362E+02  0.39642732705E+03  0.41848612380E+03  0.12508830878E+03 0.  0.
          5    1    3    3  502    0 -0.60011270500E+02  0.35866295869E+02  0.15282164095E+03  0.16810612752E+03  0.41800000000E+01 0.  1.
         -5    1    3    3    0  502  0.56380262231E+02  0.12255850493E+02  0.24360568610E+03  0.25037999629E+03  0.41800000000E+01 0.  1.
        -11    1    1    2    0    0  0.26743905592E+02 -0.58828443460E+02  0.19716404431E+03  0.20748417437E+03  0.00000000000E+00 0. -1.
         11    1    1    2    0    0 -0.23112897323E+02  0.10706297098E+02  0.18778567553E+02  0.31645938437E+02  0.00000000000E+00 0.  1.
</event>
<event>
 7    1  0.2556591E-009  0.1501533E+03  0.7561462E-02  0.1200285E+00
          2   -1    0    0  501    0  0.00000000000E+00  0.00000000000E+00  0.58463328810E+03  0.58463328810E+03  0.00000000000E+00 0.  1.
         -2   -1    0    0    0  501 -0.00000000000E+00 -0.00000000000E+00 -0.67817967442E+02  0.67817967442E+02  0.00000000000E+00 0. -1.
         25    2    1    2    0    0 -0.12976442320E+03  0.53847244364E+02  0.40884742415E+03  0.45004610116E+03  0.12508775193E+03 0.  0.
          5    1    3    3  502    0 -0.92963938930E+02  0.96183801528E+01  0.10441250298E+03  0.14019361739E+03  0.41800000000E+01 0. -1.
         -5    1    3    3    0  502 -0.36800484270E+02  0.44228864211E+02  0.30443492117E+03  0.30985248377E+03  0.41800000000E+01 0. -1.
        -11    1    1    2    0    0  0.11182821039E+03 -0.24204281151E+02  0.11992681995E+03  0.16575233937E+03  0.00000000000E+00 0.  1.
         11    1    1    2    0    0  0.17936212814E+02 -0.29642963213E+02 -0.11958923441E+02  0.36652815009E+02  0.00000000000E+00 0. -1.
</event>
<event>
 7    1  0.2556591E-009  0.5770545E+02  0.7561462E-02  0.1407721E+00
         -1   -1    0    0    0  501 -0.00000000000E+00  0.00000000000E+00  0.24275947571E+03  0.24275947571E+03  0.00000000000E+00 0.  1.
          1   -1    0    0  501    0  0.00000000000E+00 -0.00000000000E+00 -0.62345503102E+02  0.62345503102E+02  0.00000000000E+00 0. -1.
         25    2    1    2    0    0  0.24862373213E+02 -0.69601431988E+01  0.35692311931E+02  0.13262997093E+03  0.12510070688E+03 0.  0.
          5    1    3    3  502    0  0.17526529511E+02  0.13028326030E+02 -0.44396838318E+02  0.49653480930E+02  0.41800000000E+01 0.  1.
         -5    1    3    3    0  502  0.73358437022E+01 -0.19988469229E+02  0.80089150249E+02  0.82976489999E+02  0.41800000000E+01 0.  1.
        -11    1    1    2    0    0 -0.42818763604E+02  0.21922389501E+02  0.14078013485E+03  0.14877191955E+03  0.00000000000E+00 0.  1.
         11    1    1    2    0    0  0.17956390392E+02 -0.14962246302E+02  0.39415258183E+01  0.23703088324E+02  0.00000000000E+00 0. -1.
</event>
