<event>
 7    1  0.6387485E-006  0.1294226E+03  0.7546771E-02  0.1243317E+00
         -1   -1    0    0    0  501 -0.00000000000E+00  0.00000000000E+00  0.76476267368E+02  0.76476267368E+02  0.00000000000E+00 0.  1.
          1   -1    0    0  501    0  0.00000000000E+00 -0.00000000000E+00 -0.16627338238E+03  0.16627338238E+03  0.00000000000E+00 0. -1.
         23    2    1    2    0    0 -0.29801928038E+02  0.15346026364E+02 -0.62265142429E+02  0.14362161643E+03  0.12500626107E+03 0.  0.
          5    1    3    3  502    0  0.30421864209E+02 -0.96256291484E+01  0.20455624108E+02  0.38192474600E+02  0.47000000000E+01 0.  1.
         -5    1    3    3    0  502 -0.60223792247E+02  0.24971655512E+02 -0.82720766537E+02  0.10542914183E+03  0.47000000000E+01 0.  1.
        -11    1    1    2    0    0 -0.17377408949E+02 -0.19087107963E+02 -0.42296684786E+02  0.49550999749E+02  0.00000000000E+00 0. -1.
         11    1    1    2    0    0  0.47179336987E+02  0.37410815991E+01  0.14764712208E+02  0.49577033560E+02  0.00000000000E+00 0.  1.
<mgrwt>
<rscale>  0 0.11986676E+03</rscale>
<asrwt>0</asrwt>
<pdfrwt beam="2">  1        1 0.25580520E-01 0.12942264E+03</pdfrwt>
<pdfrwt beam="1">  1       -1 0.11765580E-01 0.12942264E+03</pdfrwt>
<totfact> 0.82676716E+03</totfact>
</mgrwt>
</event>
<event>
 7    1  0.6387485E-006  0.1528801E+03  0.7546771E-02  0.1205557E+00
          2   -1    0    0  501    0  0.00000000000E+00  0.00000000000E+00  0.17457193912E+03  0.17457193912E+03  0.00000000000E+00 0. -1.
         -2   -1    0    0    0  501 -0.00000000000E+00 -0.00000000000E+00 -0.11835421150E+03  0.11835421150E+03  0.00000000000E+00 0.  1.
         23    2    1    2    0    0  0.87931831698E+02  0.38186947233E+01 -0.28668061783E+01  0.15290694291E+03  0.12500290059E+03 0.  0.
          5    1    3    3  502    0 -0.97539113967E+01  0.45049421586E+02  0.42950078757E+01  0.46530917307E+02  0.47000000000E+01 0.  1.
         -5    1    3    3    0  502  0.97685743095E+02 -0.41230726863E+02 -0.71618140540E+01  0.10637602560E+03  0.47000000000E+01 0.  1.
        -11    1    1    2    0    0 -0.33847976437E+02 -0.43476005092E+02  0.79189353923E+01  0.55664693167E+02  0.00000000000E+00 0. -1.
         11    1    1    2    0    0 -0.54083855261E+02  0.39657310368E+02  0.51165598401E+02  0.84354514552E+02  0.00000000000E+00 0.  1.
<mgrwt>
<rscale>  0 0.14593683E+03</rscale>
<asrwt>0</asrwt>
<pdfrwt beam="1">  1        2 0.26857221E-01 0.15288007E+03</pdfrwt>
<pdfrwt beam="2">  1       -2 0.18208340E-01 0.15288007E+03</pdfrwt>
<totfact> 0.47201258E+03</totfact>
</mgrwt>
</event>
<event>
 7    1  0.6387485E-006  0.1469224E+03  0.7546771E-02  0.1214374E+00
         -2   -1    0    0    0  501 -0.00000000000E+00  0.00000000000E+00  0.49536166717E+03  0.49536166717E+03  0.00000000000E+00 0.  1.
          2   -1    0    0  501    0  0.00000000000E+00 -0.00000000000E+00 -0.35579466691E+02  0.35579466691E+02  0.00000000000E+00 0. -1.
         23    2    1    2    0    0  0.41489665451E+02  0.65078751477E+02  0.26247934568E+03  0.30080159970E+03  0.12501823563E+03 0.  0.
          5    1    3    3  502    0  0.23153522589E+02 -0.27423718824E+02  0.14823092477E+03  0.15258650995E+03  0.47000000000E+01 0. -1.
         -5    1    3    3    0  502  0.18336142862E+02  0.92502470301E+02  0.11424842092E+03  0.14821508975E+03  0.47000000000E+01 0. -1.
        -11    1    1    2    0    0 -0.17765768793E+02  0.10046620108E+02  0.11270932273E+03  0.11454234390E+03  0.00000000000E+00 0.  1.
         11    1    1    2    0    0 -0.23723896658E+02 -0.75125371585E+02  0.84593532064E+02  0.11559719026E+03  0.00000000000E+00 0. -1.
<mgrwt>
<rscale>  0 0.13922609E+03</rscale>
<asrwt>0</asrwt>
<pdfrwt beam="2">  1        2 0.54737644E-02 0.14692241E+03</pdfrwt>
<pdfrwt beam="1">  1       -2 0.76209483E-01 0.14692241E+03</pdfrwt>
<totfact> 0.21343984E+03</totfact>
</mgrwt>
</event>
<event>
 7    1  0.6387485E-006  0.2290618E+03  0.7546771E-02  0.1130317E+00
         -2   -1    0    0    0  501 -0.00000000000E+00  0.00000000000E+00  0.10206040805E+03  0.10206040805E+03  0.00000000000E+00 0.  1.
          2   -1    0    0  501    0  0.00000000000E+00 -0.00000000000E+00 -0.48258243225E+03  0.48258243225E+03  0.00000000000E+00 0. -1.
         23    2    1    2    0    0 -0.79481214676E+02 -0.17471726306E+03 -0.16876037275E+03  0.28451600894E+03  0.12500364168E+03 0.  0.
          5    1    3    3  502    0 -0.63033454974E+02 -0.16274750345E+03 -0.18768657543E+03  0.25633631604E+03  0.47000000000E+01 0.  1.
         -5    1    3    3    0  502 -0.16447759701E+02 -0.11969759614E+02  0.18926202673E+02  0.28179692902E+02  0.47000000000E+01 0.  1.
        -11    1    1    2    0    0  0.34069951866E+02  0.14276765735E+03 -0.10726367589E+03  0.18179345910E+03  0.00000000000E+00 0.  1.
         11    1    1    2    0    0  0.45411262810E+02  0.31949605715E+02 -0.10449797556E+03  0.11833337226E+03  0.00000000000E+00 0. -1.
<mgrwt>
<rscale>  0 0.22485188E+03</rscale>
<asrwt>0</asrwt>
<pdfrwt beam="2">  1        2 0.74243453E-01 0.22906177E+03</pdfrwt>
<pdfrwt beam="1">  1       -2 0.15701601E-01 0.22906177E+03</pdfrwt>
<totfact> 0.20437978E+03</totfact>
</mgrwt>
</event>
<event>
 7    1  0.6387485E-006  0.1502257E+03  0.7546771E-02  0.1209052E+00
         -4   -1    0    0    0  501 -0.00000000000E+00  0.00000000000E+00  0.22223076492E+03  0.22223076492E+03  0.00000000000E+00 0.  1.
          4   -1    0    0  501    0  0.00000000000E+00 -0.00000000000E+00 -0.86319547712E+02  0.86319547712E+02  0.00000000000E+00 0. -1.
         23    2    1    2    0    0  0.68643277666E+02  0.47177533813E+02  0.95499763499E+02  0.17801110949E+03  0.12502052234E+03 0.  0.
          5    1    3    3  502    0  0.79726201792E+02  0.13387192002E+02  0.11225901174E+03  0.13841842319E+03  0.47000000000E+01 0.  1.
         -5    1    3    3    0  502 -0.11082924125E+02  0.33790341811E+02 -0.16759248238E+02  0.39592686299E+02  0.47000000000E+01 0.  1.
        -11    1    1    2    0    0 -0.78248477715E+02 -0.24705858439E+01  0.28175419728E+02  0.83203259166E+02  0.00000000000E+00 0.  1.
         11    1    1    2    0    0  0.96052000485E+01 -0.44706947969E+02  0.12236033982E+02  0.47335943978E+02  0.00000000000E+00 0. -1.
<mgrwt>
<rscale>  0 0.14322679E+03</rscale>
<asrwt>0</asrwt>
<pdfrwt beam="2">  1        4 0.13279931E-01 0.15022566E+03</pdfrwt>
<pdfrwt beam="1">  1       -4 0.34189348E-01 0.15022566E+03</pdfrwt>
<totfact> 0.65168185E+02</totfact>
</mgrwt>
</event>
<event>
 6    1  0.6387485E-006  0.1700074E+03  0.7546771E-02  0.1199735E+00
          1   -1    0    0  501    0  0.00000000000E+00  0.00000000000E+00  0.21420970020E+03  0.21420970020E+03  0.00000000000E+00 0. -1.
         -1   -1    0    0    0  501 -0.00000000000E+00 -0.00000000000E+00 -0.96622796120E+02  0.96622796120E+02  0.00000000000E+00 0.  1.
          5    1    1    2  502    0 -0.10416468499E+02  0.53047291058E+02  0.67286219151E+02  0.86440980976E+02  0.47000000000E+01 0. -1.
         -5    1    1    2    0  502  0.64259627016E+02 -0.38932128274E+02 -0.40786796619E+02  0.85619291369E+02  0.47000000000E+01 0.  1.
        -11    1    1    2    0    0 -0.21595761426E+02  0.11555435483E+02  0.94300856407E+02  0.97429751718E+02  0.00000000000E+00 0. -1.
         11    1    1    2    0    0 -0.32247397091E+02 -0.25670598266E+02 -0.32133748572E+01  0.41342472259E+02  0.00000000000E+00 0.  1.
<mgrwt>
<rscale>  0 0.15060215E+03</rscale>
<asrwt>0</asrwt>
<pdfrwt beam="1">  1        1 0.32955338E-01 0.17000741E+03</pdfrwt>
<pdfrwt beam="2">  1       -1 0.14865046E-01 0.17000741E+03</pdfrwt>
<totfact> 0.42590293E+03</totfact>
</mgrwt>
</event>
<event>
 7    1  0.6387485E-006  0.3069952E+03  0.7546771E-02  0.1082754E+00
          3   -1    0    0  501    0  0.00000000000E+00  0.00000000000E+00  0.33371706070E+03  0.33371706070E+03  0.00000000000E+00 0. -1.
         -3   -1    0    0    0  501 -0.00000000000E+00 -0.00000000000E+00 -0.35974894558E+03  0.35974894558E+03  0.00000000000E+00 0.  1.
         23    2    1    2    0    0 -0.27863300072E+03  0.31376145004E+02 -0.18113930159E+03  0.35645123520E+03  0.12500089971E+03 0.  0.
          5    1    3    3  502    0 -0.16889954589E+02  0.22380278302E+02 -0.62969763932E+02  0.69090003564E+02  0.47000000000E+01 0.  1.
         -5    1    3    3    0  502 -0.26174304613E+03  0.89958667020E+01 -0.11816953766E+03  0.28736123163E+03  0.47000000000E+01 0.  1.
        -11    1    1    2    0    0  0.67287000902E+02  0.32334653669E+02  0.16785291931E+02  0.76516771648E+02  0.00000000000E+00 0.  1.
         11    1    1    2    0    0  0.21134599981E+03 -0.63710798673E+02  0.13832212479E+03  0.26049799944E+03  0.00000000000E+00 0. -1.
<mgrwt>
<rscale>  0 0.30502755E+03</rscale>
<asrwt>0</asrwt>
<pdfrwt beam="1">  1        3 0.51341087E-01 0.30699517E+03</pdfrwt>
<pdfrwt beam="2">  1       -3 0.55345991E-01 0.30699517E+03</pdfrwt>
<totfact> 0.30842478E+01</totfact>
</mgrwt>
</event>
<event>
 7    1  0.6387485E-006  0.2378894E+03  0.7546771E-02  0.1123905E+00
          2   -1    0    0  501    0  0.00000000000E+00  0.00000000000E+00  0.10177941384E+04  0.10177941384E+04  0.00000000000E+00 0. -1.
         -2   -1    0    0    0  501 -0.00000000000E+00 -0.00000000000E+00 -0.83599124046E+02  0.83599124046E+02  0.00000000000E+00 0.  1.
         23    2    1    2    0    0  0.20089087208E+03  0.24778008794E+02  0.13867062964E+03  0.27535592940E+03  0.12498100705E+03 0.  0.
          5    1    3    3  502    0  0.13332871645E+03 -0.44857048699E+02  0.81738529684E+02  0.16276356682E+03  0.47000000000E+01 0.  1.
         -5    1    3    3    0  502  0.67562155633E+02  0.69635057493E+02  0.56932099957E+02  0.11259236258E+03  0.47000000000E+01 0.  1.
        -11    1    1    2    0    0 -0.73863222550E+02  0.13886710272E+02  0.15976825734E+03  0.17656305509E+03  0.00000000000E+00 0. -1.
         11    1    1    2    0    0 -0.12702764953E+03 -0.38664719066E+02  0.63575612740E+03  0.64947427799E+03  0.00000000000E+00 0.  1.
<mgrwt>
<rscale>  0 0.23392868E+03</rscale>
<asrwt>0</asrwt>
<pdfrwt beam="1">  1        2 0.15658370E+00 0.23788935E+03</pdfrwt>
<pdfrwt beam="2">  1       -2 0.12861404E-01 0.23788935E+03</pdfrwt>
<totfact> 0.11326782E+03</totfact>
</mgrwt>
</event>
<event>
 7    1  0.6387485E-006  0.1685394E+03  0.7546771E-02  0.1184801E+00
         -1   -1    0    0    0  501 -0.00000000000E+00  0.00000000000E+00  0.10750466962E+04  0.10750466962E+04  0.00000000000E+00 0.  1.
          1   -1    0    0  501    0  0.00000000000E+00 -0.00000000000E+00 -0.41951266799E+02  0.41951266799E+02  0.00000000000E+00 0. -1.
         23    2    1    2    0    0 -0.11302423763E+03 -0.24170605251E+01  0.90422162637E+03  0.91979469250E+03  0.12500082508E+03 0.  0.
          5    1    3    3  502    0 -0.61687213281E+02  0.37200571304E+02  0.73461520155E+03  0.73815362841E+03  0.47000000000E+01 0.  1.
         -5    1    3    3    0  502 -0.51337024354E+02 -0.39617631829E+02  0.16960642483E+03  0.18164106409E+03  0.47000000000E+01 0.  1.
        -11    1    1    2    0    0  0.10163502597E+03 -0.33964824448E+02  0.73380786322E+02  0.12987697103E+03  0.00000000000E+00 0. -1.
         11    1    1    2    0    0  0.11389211664E+02  0.36381884973E+02  0.55493016697E+02  0.67326299458E+02  0.00000000000E+00 0.  1.
<mgrwt>
<rscale>  0 0.16349975E+03</rscale>
<asrwt>0</asrwt>
<pdfrwt beam="2">  1        1 0.64540418E-02 0.16853939E+03</pdfrwt>
<pdfrwt beam="1">  1       -1 0.16539178E+00 0.16853939E+03</pdfrwt>
<totfact> 0.34009703E+02</totfact>
</mgrwt>
</event>
<event>
 7    1  0.6387485E-006  0.1323930E+03  0.7546771E-02  0.1236952E+00
         -1   -1    0    0    0  501 -0.00000000000E+00  0.00000000000E+00  0.50705127306E+02  0.50705127306E+02  0.00000000000E+00 0.  1.
          1   -1    0    0  501    0  0.00000000000E+00 -0.00000000000E+00 -0.27011193183E+03  0.27011193183E+03  0.00000000000E+00 0. -1.
         23    2    1    2    0    0 -0.21307607911E+02  0.38077977910E+02 -0.11462636580E+03  0.17512026680E+03  0.12499583013E+03 0.  0.
          5    1    3    3  502    0 -0.42609209665E+02 -0.28339247431E+02 -0.84713969178E+02  0.99081805934E+02  0.47000000000E+01 0. -1.
         -5    1    3    3    0  502  0.21301601753E+02  0.66417225341E+02 -0.29912396623E+02  0.76038460867E+02  0.47000000000E+01 0. -1.
        -11    1    1    2    0    0  0.26220792625E+01  0.10822750530E+02  0.12813997726E+02  0.16976624117E+02  0.00000000000E+00 0.  1.
         11    1    1    2    0    0  0.18685528649E+02 -0.48900728440E+02 -0.11759443645E+03  0.12872016822E+03  0.00000000000E+00 0. -1.
<mgrwt>
<rscale>  0 0.12380321E+03</rscale>
<asrwt>0</asrwt>
<pdfrwt beam="2">  1        1 0.41555681E-01 0.13239299E+03</pdfrwt>
<pdfrwt beam="1">  1       -1 0.78007889E-02 0.13239299E+03</pdfrwt>
<totfact> 0.84781277E+03</totfact>
</mgrwt>
</event>
<event>
 6    1  0.6387485E-006  0.1553663E+03  0.7546771E-02  0.1207660E+00
         -2   -1    0    0    0  501 -0.00000000000E+00  0.00000000000E+00  0.16411117164E+03  0.16411117164E+03  0.00000000000E+00 0.  1.
          2   -1    0    0  501    0  0.00000000000E+00 -0.00000000000E+00 -0.11763765126E+03  0.11763765126E+03  0.00000000000E+00 0. -1.
          5    1    1    2  502    0  0.19899383619E+02  0.10019245941E+02 -0.36977209754E+02  0.43425508620E+02  0.47000000000E+01 0. -1.
         -5    1    1    2    0  502 -0.35078204559E+02 -0.69096239731E+02  0.94378407333E+02  0.12220533765E+03  0.47000000000E+01 0.  1.
        -11    1    1    2    0    0  0.19017164994E+02  0.83515589282E+02 -0.22861314503E+02  0.88651824112E+02  0.00000000000E+00 0. -1.
         11    1    1    2    0    0 -0.38383440540E+01 -0.24438595492E+02  0.11933637301E+02  0.27466152514E+02  0.00000000000E+00 0.  1.
<mgrwt>
<rscale>  0 0.14429773E+03</rscale>
<asrwt>0</asrwt>
<pdfrwt beam="2">  1        2 0.18098100E-01 0.15536628E+03</pdfrwt>
<pdfrwt beam="1">  1       -2 0.25247873E-01 0.15536628E+03</pdfrwt>
<totfact> 0.42032038E+03</totfact>
</mgrwt>
</event>
<event>
 7    1  0.6387485E-006  0.1250097E+03  0.7546771E-02  0.1250445E+00
         -1   -1    0    0    0  501 -0.00000000000E+00  0.00000000000E+00  0.45134246515E+02  0.45134246515E+02  0.00000000000E+00 0.  1.
          1   -1    0    0  501    0  0.00000000000E+00 -0.00000000000E+00 -0.32246828720E+03  0.32246828720E+03  0.00000000000E+00 0. -1.
         23    2    1    2    0    0  0.85565772012E+00  0.13092218927E+01 -0.75694534075E+02  0.14614060148E+03  0.12499986680E+03 0.  0.
          5    1    3    3  502    0 -0.43438043840E+01  0.29606237834E+02 -0.10228948925E+03  0.10668002421E+03  0.47000000000E+01 0. -1.
         -5    1    3    3    0  502  0.51994621041E+01 -0.28297015942E+02  0.26594955176E+02  0.39460577266E+02  0.47000000000E+01 0. -1.
        -11    1    1    2    0    0 -0.74788968386E+01  0.44505957458E+02 -0.93030107408E+02  0.10339881543E+03  0.00000000000E+00 0.  1.
         11    1    1    2    0    0  0.66232391185E+01 -0.45815179351E+02 -0.10860939920E+03  0.11806311680E+03  0.00000000000E+00 0. -1.
<mgrwt>
<rscale>  0 0.11565324E+03</rscale>
<asrwt>0</asrwt>
<pdfrwt beam="2">  1        1 0.49610506E-01 0.12500965E+03</pdfrwt>
<pdfrwt beam="1">  1       -1 0.69437302E-02 0.12500965E+03</pdfrwt>
<totfact> 0.80772900E+03</totfact>
</mgrwt>
</event>
<event>
 7    1  0.6387485E-006  0.1861616E+03  0.7546771E-02  0.1170008E+00
          1   -1    0    0  501    0  0.00000000000E+00  0.00000000000E+00  0.27504220960E+03  0.27504220960E+03  0.00000000000E+00 0. -1.
         -1   -1    0    0    0  501 -0.00000000000E+00 -0.00000000000E+00 -0.10794474926E+03  0.10794474926E+03  0.00000000000E+00 0.  1.
         23    2    1    2    0    0  0.68994285627E+01  0.13777816451E+03  0.63012615443E+02  0.19653681326E+03  0.12500281810E+03 0.  0.
          5    1    3    3  502    0  0.54512410062E+02  0.12267135986E+03  0.33910349575E+02  0.13853471475E+03  0.47000000000E+01 0.  1.
         -5    1    3    3    0  502 -0.47612981500E+02  0.15106804647E+02  0.29102265868E+02  0.58002098519E+02  0.47000000000E+01 0.  1.
        -11    1    1    2    0    0 -0.20035480079E+01 -0.70562894792E+02  0.10868038594E+02  0.71423039623E+02  0.00000000000E+00 0.  1.
         11    1    1    2    0    0 -0.48958805548E+01 -0.67215269717E+02  0.93216806312E+02  0.11502710597E+03  0.00000000000E+00 0. -1.
<mgrwt>
<rscale>  0 0.17774008E+03</rscale>
<asrwt>0</asrwt>
<pdfrwt beam="1">  1        1 0.42314186E-01 0.18616157E+03</pdfrwt>
<pdfrwt beam="2">  1       -1 0.16606885E-01 0.18616157E+03</pdfrwt>
<totfact> 0.26267392E+03</totfact>
</mgrwt>
</event>
<event>
 7    1  0.6387485E-006  0.1470396E+03  0.7546771E-02  0.1214166E+00
         -1   -1    0    0    0  501 -0.00000000000E+00  0.00000000000E+00  0.26857673995E+03  0.26857673995E+03  0.00000000000E+00 0.  1.
          1   -1    0    0  501    0  0.00000000000E+00 -0.00000000000E+00 -0.65793955503E+02  0.65793955503E+02  0.00000000000E+00 0. -1.
         23    2    1    2    0    0  0.77360233325E+02  0.32977070743E+01  0.11697017213E+03  0.18789006033E+03  0.12500069213E+03 0.  0.
          5    1    3    3  502    0  0.20090841861E+02 -0.56741980222E+02  0.69953366344E+02  0.92405939793E+02  0.47000000000E+01 0. -1.
         -5    1    3    3    0  502  0.57269391465E+02  0.60039687296E+02  0.47016805784E+02  0.95484120541E+02  0.47000000000E+01 0. -1.
        -11    1    1    2    0    0 -0.18433078995E+02  0.36778086590E+02  0.55387533090E+02  0.68994093053E+02  0.00000000000E+00 0.  1.
         11    1    1    2    0    0 -0.58927154331E+02 -0.40075793665E+02  0.30425079231E+02  0.77486542067E+02  0.00000000000E+00 0. -1.
<mgrwt>
<rscale>  0 0.13937997E+03</rscale>
<asrwt>0</asrwt>
<pdfrwt beam="2">  1        1 0.10122147E-01 0.14703963E+03</pdfrwt>
<pdfrwt beam="1">  1       -1 0.41319498E-01 0.14703963E+03</pdfrwt>
<totfact> 0.35483498E+03</totfact>
</mgrwt>
</event>
<event>
 7    1  0.6387485E-006  0.1436095E+03  0.7546771E-02  0.1219111E+00
          2   -1    0    0  501    0  0.00000000000E+00  0.00000000000E+00  0.10375546339E+04  0.10375546339E+04  0.00000000000E+00 0. -1.
         -2   -1    0    0    0  501 -0.00000000000E+00 -0.00000000000E+00 -0.18200971842E+02  0.18200971842E+02  0.00000000000E+00 0.  1.
         23    2    1    2    0    0  0.65069779666E+02 -0.27660223577E+02  0.38107090391E+03  0.40723301909E+03  0.12499813531E+03 0.  0.
          5    1    3    3  502    0 -0.14792228871E+02  0.20131382295E+02  0.21749004579E+03  0.21897052908E+03  0.47000000000E+01 0. -1.
         -5    1    3    3    0  502  0.79862008537E+02 -0.47791605872E+02  0.16358085812E+03  0.18826249001E+03  0.47000000000E+01 0. -1.
        -11    1    1    2    0    0  0.21097605838E+02  0.18463294373E+02  0.16776536672E+03  0.17009180016E+03  0.00000000000E+00 0.  1.
         11    1    1    2    0    0 -0.86167385504E+02  0.91969292039E+01  0.47051739141E+03  0.47843078648E+03  0.00000000000E+00 0. -1.
<mgrwt>
<rscale>  0 0.13578855E+03</rscale>
<asrwt>0</asrwt>
<pdfrwt beam="1">  1        2 0.15962374E+00 0.14360953E+03</pdfrwt>
<pdfrwt beam="2">  1       -2 0.28001503E-02 0.14360953E+03</pdfrwt>
<totfact> 0.11297874E+04</totfact>
</mgrwt>
</event>
<event>
 7    1  0.6387485E-006  0.1391305E+03  0.7546771E-02  0.1225582E+00
          2   -1    0    0  501    0  0.00000000000E+00  0.00000000000E+00  0.11236568008E+04  0.11236568008E+04  0.00000000000E+00 0. -1.
         -2   -1    0    0    0  501 -0.00000000000E+00 -0.00000000000E+00 -0.13873767972E+02  0.13873767972E+02  0.00000000000E+00 0.  1.
         23    2    1    2    0    0 -0.15831958309E+02  0.59002938570E+02  0.64789310882E+03  0.66266338762E+03  0.12500114872E+03 0.  0.
          5    1    3    3  502    0 -0.29633209487E+02  0.22299441042E+02  0.45104441138E+02  0.58582358996E+02  0.47000000000E+01 0.  1.
         -5    1    3    3    0  502  0.13801251178E+02  0.36703497528E+02  0.60278866768E+03  0.60408102863E+03  0.47000000000E+01 0.  1.
        -11    1    1    2    0    0  0.51006452700E+02 -0.40318808808E+02  0.35263725056E+03  0.35858094629E+03  0.00000000000E+00 0. -1.
         11    1    1    2    0    0 -0.35174494391E+02 -0.18684129761E+02  0.10925267342E+03  0.11628623482E+03  0.00000000000E+00 0.  1.
<mgrwt>
<rscale>  0 0.13127073E+03</rscale>
<asrwt>0</asrwt>
<pdfrwt beam="1">  1        2 0.17287020E+00 0.13913046E+03</pdfrwt>
<pdfrwt beam="2">  1       -2 0.21344267E-02 0.13913046E+03</pdfrwt>
<totfact> 0.14954009E+04</totfact>
</mgrwt>
</event>
<event>
 7    1  0.6387485E-006  0.1658906E+03  0.7546771E-02  0.1188444E+00
         -3   -1    0    0    0  501 -0.00000000000E+00  0.00000000000E+00  0.27606917802E+03  0.27606917802E+03  0.00000000000E+00 0.  1.
          3   -1    0    0  501    0  0.00000000000E+00 -0.00000000000E+00 -0.11304331998E+03  0.11304331998E+03  0.00000000000E+00 0. -1.
         23    2    1    2    0    0 -0.80505382549E+02  0.73581712407E+02  0.17878813528E+03  0.24389520927E+03  0.12499716304E+03 0.  0.
          5    1    3    3  502    0 -0.69243211128E+02  0.18542335404E+01  0.25047850315E+02  0.73807487931E+02  0.47000000000E+01 0. -1.
         -5    1    3    3    0  502 -0.11262171422E+02  0.71727478867E+02  0.15374028496E+03  0.17008772134E+03  0.47000000000E+01 0. -1.
        -11    1    1    2    0    0 -0.75292601258E+01 -0.53513534445E+02 -0.45768510393E+01  0.54234082386E+02  0.00000000000E+00 0.  1.
         11    1    1    2    0    0  0.88034642675E+02 -0.20068177963E+02 -0.11185426202E+02  0.90983206346E+02  0.00000000000E+00 0. -1.
<mgrwt>
<rscale>  0 0.16022395E+03</rscale>
<asrwt>0</asrwt>
<pdfrwt beam="2">  1        3 0.17391280E-01 0.16589055E+03</pdfrwt>
<pdfrwt beam="1">  1       -3 0.42472181E-01 0.16589055E+03</pdfrwt>
<totfact> 0.37860508E+02</totfact>
</mgrwt>
</event>
<event>
 7    1  0.6387485E-006  0.1749185E+03  0.7546771E-02  0.1178698E+00
         -2   -1    0    0    0  501 -0.00000000000E+00  0.00000000000E+00  0.25547236602E+03  0.25547236602E+03  0.00000000000E+00 0.  1.
          2   -1    0    0  501    0  0.00000000000E+00 -0.00000000000E+00 -0.11687658209E+03  0.11687658209E+03  0.00000000000E+00 0. -1.
         23    2    1    2    0    0  0.69944820381E+02  0.10039583161E+03  0.13195724178E+03  0.21911001537E+03  0.12499953711E+03 0.  0.
          5    1    3    3  502    0  0.19023362946E+02 -0.22124178756E+02 -0.31104126811E+01  0.29717541797E+02  0.47000000000E+01 0.  1.
         -5    1    3    3    0  502  0.50921457434E+02  0.12252001036E+03  0.13506765446E+03  0.18939247358E+03  0.47000000000E+01 0.  1.
        -11    1    1    2    0    0  0.14110573265E+02 -0.28858028876E+02  0.25813089366E+02  0.41209339853E+02  0.00000000000E+00 0.  1.
         11    1    1    2    0    0 -0.84055393646E+02 -0.71537802730E+02 -0.19174547220E+02  0.11202959288E+03  0.00000000000E+00 0. -1.
<mgrwt>
<rscale>  0 0.16918705E+03</rscale>
<asrwt>0</asrwt>
<pdfrwt beam="2">  1        2 0.17981013E-01 0.17491851E+03</pdfrwt>
<pdfrwt beam="1">  1       -2 0.39303441E-01 0.17491851E+03</pdfrwt>
<totfact> 0.19018205E+03</totfact>
</mgrwt>
</event>
<event>
 7    1  0.6387485E-006  0.1436826E+03  0.7546771E-02  0.1218639E+00
          2   -1    0    0  501    0  0.00000000000E+00  0.00000000000E+00  0.41975139605E+03  0.41975139605E+03  0.00000000000E+00 0. -1.
         -2   -1    0    0    0  501 -0.00000000000E+00 -0.00000000000E+00 -0.46746726861E+02  0.46746726861E+02  0.00000000000E+00 0.  1.
         23    2    1    2    0    0  0.30338775716E+02 -0.64076665181E+02  0.11613101450E+03  0.18474603753E+03  0.12497369932E+03 0.  0.
          5    1    3    3  502    0 -0.28095383701E+02 -0.36191071670E+02  0.11034540751E+03  0.11957149833E+03  0.47000000000E+01 0. -1.
         -5    1    3    3    0  502  0.58434159417E+02 -0.27885593511E+02  0.57856069896E+01  0.65174539204E+02  0.47000000000E+01 0. -1.
        -11    1    1    2    0    0 -0.57369629576E+02  0.44274606531E+02  0.22138552525E+03  0.23294434093E+03  0.00000000000E+00 0.  1.
         11    1    1    2    0    0  0.27030853860E+02  0.19802058650E+02  0.35488129444E+02  0.48807744453E+02  0.00000000000E+00 0. -1.
<mgrwt>
<rscale>  0 0.13612625E+03</rscale>
<asrwt>0</asrwt>
<pdfrwt beam="1">  1        2 0.64577135E-01 0.14368259E+03</pdfrwt>
<pdfrwt beam="2">  1       -2 0.71918044E-02 0.14368259E+03</pdfrwt>
<totfact> 0.80944749E+03</totfact>
</mgrwt>
</event>
<event>
 7    1  0.6387485E-006  0.1627658E+03  0.7546771E-02  0.1192874E+00
         -2   -1    0    0    0  501 -0.00000000000E+00  0.00000000000E+00  0.24713432639E+03  0.24713432639E+03  0.00000000000E+00 0.  1.
          2   -1    0    0  501    0  0.00000000000E+00 -0.00000000000E+00 -0.10245305812E+03  0.10245305812E+03  0.00000000000E+00 0. -1.
         23    2    1    2    0    0 -0.89255887874E+02  0.53865027111E+02  0.13354659667E+03  0.21054072927E+03  0.12499860213E+03 0.  0.
          5    1    3    3  502    0 -0.18935457239E+01  0.59726249627E+02  0.12762382947E+02  0.61284409342E+02  0.47000000000E+01 0. -1.
         -5    1    3    3    0  502 -0.87362342150E+02 -0.58612225162E+01  0.12078421372E+03  0.14925631993E+03  0.47000000000E+01 0. -1.
        -11    1    1    2    0    0  0.64584208970E+02 -0.12954214611E+02 -0.33293760314E+02  0.73806545782E+02  0.00000000000E+00 0.  1.
         11    1    1    2    0    0  0.24671678904E+02 -0.40910812500E+02  0.44428431919E+02  0.65240109458E+02  0.00000000000E+00 0. -1.
<mgrwt>
<rscale>  0 0.15635554E+03</rscale>
<asrwt>0</asrwt>
<pdfrwt beam="2">  1        2 0.15762009E-01 0.16276580E+03</pdfrwt>
<pdfrwt beam="1">  1       -2 0.38020665E-01 0.16276580E+03</pdfrwt>
<totfact> 0.23524507E+03</totfact>
</mgrwt>
</event>
<event>
 7    1  0.6387485E-006  0.3540231E+03  0.7546771E-02  0.1061532E+00
         -1   -1    0    0    0  501 -0.00000000000E+00  0.00000000000E+00  0.22310297025E+03  0.22310297025E+03  0.00000000000E+00 0.  1.
          1   -1    0    0  501    0  0.00000000000E+00 -0.00000000000E+00 -0.63056322176E+03  0.63056322176E+03  0.00000000000E+00 0. -1.
         23    2    1    2    0    0  0.31109491821E+03 -0.11369602995E+03 -0.55559801875E+02  0.35835629139E+03  0.12500201851E+03 0.  0.
          5    1    3    3  502    0  0.21547187573E+03 -0.26105189149E+02  0.25906969265E+00  0.21709851969E+03  0.47000000000E+01 0.  1.
         -5    1    3    3    0  502  0.95623042481E+02 -0.87590840797E+02 -0.55818871568E+02  0.14125777171E+03  0.47000000000E+01 0.  1.
        -11    1    1    2    0    0 -0.19616345359E+03  0.63519880352E+02 -0.28899235848E+03  0.35500909704E+03  0.00000000000E+00 0. -1.
         11    1    1    2    0    0 -0.11493146462E+03  0.50176149594E+02 -0.62908091159E+02  0.14030080357E+03  0.00000000000E+00 0.  1.
<mgrwt>
<rscale>  0 0.35265075E+03</rscale>
<asrwt>0</asrwt>
<pdfrwt beam="2">  1        1 0.97009725E-01 0.35402308E+03</pdfrwt>
<pdfrwt beam="1">  1       -1 0.34323534E-01 0.35402308E+03</pdfrwt>
<totfact> 0.26546585E+02</totfact>
</mgrwt>
</event>
<event>
 7    1  0.6387485E-006  0.1685424E+03  0.7546771E-02  0.1186165E+00
         -1   -1    0    0    0  501 -0.00000000000E+00  0.00000000000E+00  0.74530078751E+02  0.74530078751E+02  0.00000000000E+00 0.  1.
          1   -1    0    0  501    0  0.00000000000E+00 -0.00000000000E+00 -0.34605209557E+03  0.34605209557E+03  0.00000000000E+00 0. -1.
         23    2    1    2    0    0 -0.80761000391E+01 -0.11276781437E+03 -0.99453123466E+02  0.19569740309E+03  0.12499898583E+03 0.  0.
          5    1    3    3  502    0  0.29110355984E+02 -0.24567556191E+02 -0.91868464852E+02  0.99563459547E+02  0.47000000000E+01 0. -1.
         -5    1    3    3    0  502 -0.37186456023E+02 -0.88200258180E+02 -0.75846586139E+01  0.96133943541E+02  0.47000000000E+01 0. -1.
        -11    1    1    2    0    0  0.31351246352E+01  0.31535079759E+02  0.29922362069E+01  0.31831489745E+02  0.00000000000E+00 0.  1.
         11    1    1    2    0    0  0.49409754039E+01  0.81232734613E+02 -0.17506112956E+03  0.19305328148E+03  0.00000000000E+00 0. -1.
<mgrwt>
<rscale>  0 0.16226318E+03</rscale>
<asrwt>0</asrwt>
<pdfrwt beam="2">  1        1 0.53238783E-01 0.16854243E+03</pdfrwt>
<pdfrwt beam="1">  1       -1 0.11466166E-01 0.16854243E+03</pdfrwt>
<totfact> 0.35101867E+03</totfact>
</mgrwt>
</event>
<event>
 7    1  0.6387485E-006  0.2100528E+03  0.7546771E-02  0.1145336E+00
         -2   -1    0    0    0  501 -0.00000000000E+00  0.00000000000E+00  0.56001872570E+03  0.56001872570E+03  0.00000000000E+00 0.  1.
          2   -1    0    0  501    0  0.00000000000E+00 -0.00000000000E+00 -0.73189540833E+02  0.73189540833E+02  0.00000000000E+00 0. -1.
         23    2    1    2    0    0  0.21432967184E+01 -0.16879806175E+03  0.29370502466E+03  0.36108839549E+03  0.12499923391E+03 0.  0.
          5    1    3    3  502    0  0.52546721719E+02 -0.95478257170E+02  0.21959926727E+03  0.24520029311E+03  0.47000000000E+01 0. -1.
         -5    1    3    3    0  502 -0.50403425001E+02 -0.73319804576E+02  0.74105757387E+02  0.11588810238E+03  0.47000000000E+01 0. -1.
        -11    1    1    2    0    0 -0.24837958943E+02  0.12985005285E+03  0.18327025720E+03  0.22597775909E+03  0.00000000000E+00 0.  1.
         11    1    1    2    0    0  0.22694662224E+02  0.38948008898E+02  0.98539030004E+01  0.46142111947E+02  0.00000000000E+00 0. -1.
<mgrwt>
<rscale>  0 0.20530850E+03</rscale>
<asrwt>0</asrwt>
<pdfrwt beam="2">  1        2 0.11259930E-01 0.21005282E+03</pdfrwt>
<pdfrwt beam="1">  1       -2 0.86156724E-01 0.21005282E+03</pdfrwt>
<totfact> 0.66345345E+02</totfact>
</mgrwt>
</event>
<event>
 7    1  0.6387485E-006  0.1311946E+03  0.7546771E-02  0.1239701E+00
         -1   -1    0    0    0  501 -0.00000000000E+00  0.00000000000E+00  0.86137355675E+02  0.86137355675E+02  0.00000000000E+00 0.  1.
          1   -1    0    0  501    0  0.00000000000E+00 -0.00000000000E+00 -0.15571382233E+03  0.15571382233E+03  0.00000000000E+00 0. -1.
         23    2    1    2    0    0 -0.37709664449E+02  0.12629229522E+02 -0.23735390439E+02  0.13332437951E+03  0.12502201879E+03 0.  0.
          5    1    3    3  502    0 -0.12379097506E+02 -0.10084408039E+02 -0.72104995131E+02  0.74001065286E+02  0.47000000000E+01 0.  1.
         -5    1    3    3    0  502 -0.25330566942E+02  0.22713637561E+02  0.48369604692E+02  0.59323314227E+02  0.47000000000E+01 0.  1.
        -11    1    1    2    0    0 -0.19827937597E+02 -0.44894573494E+01  0.14332851938E+02  0.24874343837E+02  0.00000000000E+00 0.  1.
         11    1    1    2    0    0  0.57537602046E+02 -0.81397721725E+01 -0.60173928150E+02  0.83652454651E+02  0.00000000000E+00 0. -1.
<mgrwt>
<rscale>  0 0.12208228E+03</rscale>
<asrwt>0</asrwt>
<pdfrwt beam="2">  1        1 0.23955972E-01 0.13119459E+03</pdfrwt>
<pdfrwt beam="1">  1       -1 0.13251901E-01 0.13119459E+03</pdfrwt>
<totfact> 0.74771701E+03</totfact>
</mgrwt>
</event>
<event>
 7    1  0.6387485E-006  0.2170941E+03  0.7546771E-02  0.1139734E+00
         -1   -1    0    0    0  501 -0.00000000000E+00  0.00000000000E+00  0.26794977645E+02  0.26794977645E+02  0.00000000000E+00 0.  1.
          1   -1    0    0  501    0  0.00000000000E+00 -0.00000000000E+00 -0.16185666266E+04  0.16185666266E+04  0.00000000000E+00 0. -1.
         23    2    1    2    0    0 -0.48477660484E+02  0.17074388245E+03 -0.88061617320E+03  0.90698107603E+03  0.12500508313E+03 0.  0.
          5    1    3    3  502    0 -0.72728208753E+02  0.94186226302E+02 -0.68816633645E+03  0.69839489846E+03  0.47000000000E+01 0.  1.
         -5    1    3    3    0  502  0.24250548269E+02  0.76557656147E+02 -0.19244983675E+03  0.20858617757E+03  0.47000000000E+01 0.  1.
        -11    1    1    2    0    0  0.26493604412E+02 -0.14200631991E+01 -0.69381104491E+02  0.74280988918E+02  0.00000000000E+00 0.  1.
         11    1    1    2    0    0  0.21984056072E+02 -0.16932381925E+03 -0.64177437125E+03  0.66409953929E+03  0.00000000000E+00 0. -1.
<mgrwt>
<rscale>  0 0.21232966E+03</rscale>
<asrwt>0</asrwt>
<pdfrwt beam="2">  1        1 0.24901022E+00 0.21709405E+03</pdfrwt>
<pdfrwt beam="1">  1       -1 0.41223047E-02 0.21709405E+03</pdfrwt>
<totfact> 0.14085510E+03</totfact>
</mgrwt>
</event>
<event>
 7    1  0.6387485E-006  0.1589765E+03  0.7546771E-02  0.1197682E+00
         -1   -1    0    0    0  501 -0.00000000000E+00  0.00000000000E+00  0.31932927863E+02  0.31932927863E+02  0.00000000000E+00 0. -1.
          1   -1    0    0  501    0  0.00000000000E+00 -0.00000000000E+00 -0.69371058668E+03  0.69371058668E+03  0.00000000000E+00 0.  1.
         23    2    1    2    0    0 -0.62302275745E+02 -0.75962306719E+02 -0.29359639980E+03  0.33387480162E+03  0.12498676561E+03 0.  0.
          5    1    3    3  502    0  0.65111983922E+01  0.48029476481E+01 -0.17269220440E+03  0.17294551591E+03  0.47000000000E+01 0.  1.
         -5    1    3    3    0  502 -0.68813474137E+02 -0.80765254367E+02 -0.12090419539E+03  0.16092928571E+03  0.47000000000E+01 0.  1.
        -11    1    1    2    0    0  0.51407106869E+02 -0.48178684482E+01 -0.12316825983E+03  0.13355269643E+03  0.00000000000E+00 0. -1.
         11    1    1    2    0    0  0.10895168876E+02  0.80780175167E+02 -0.24501299919E+03  0.25821601650E+03  0.00000000000E+00 0.  1.
<mgrwt>
<rscale>  0 0.15229408E+03</rscale>
<asrwt>0</asrwt>
<pdfrwt beam="2">  1        1 0.10672470E+00 0.15897653E+03</pdfrwt>
<pdfrwt beam="1">  1       -1 0.49127586E-02 0.15897653E+03</pdfrwt>
<totfact> 0.50400117E+03</totfact>
</mgrwt>
</event>
<event>
 7    1  0.6387485E-006  0.2678573E+03  0.7546771E-02  0.1104455E+00
          2   -1    0    0  501    0  0.00000000000E+00  0.00000000000E+00  0.68260000275E+02  0.68260000275E+02  0.00000000000E+00 0. -1.
         -2   -1    0    0    0  501 -0.00000000000E+00 -0.00000000000E+00 -0.10367036683E+04  0.10367036683E+04  0.00000000000E+00 0.  1.
         23    2    1    2    0    0  0.51810124282E+02  0.23116768273E+03 -0.59930251004E+03  0.65643813507E+03  0.12499896046E+03 0.  0.
          5    1    3    3  502    0  0.18231942532E+02  0.23267989751E+03 -0.50936112362E+03  0.56030632933E+03  0.47000000000E+01 0. -1.
         -5    1    3    3    0  502  0.33578181749E+02 -0.15122147786E+01 -0.89941386427E+02  0.96131805744E+02  0.47000000000E+01 0. -1.
        -11    1    1    2    0    0 -0.23761883299E+02 -0.17760619251E+03 -0.19812791513E+03  0.26713902274E+03  0.00000000000E+00 0. -1.
         11    1    1    2    0    0 -0.28048240982E+02 -0.53561490218E+02 -0.17101324290E+03  0.18138651081E+03  0.00000000000E+00 0.  1.
<mgrwt>
<rscale>  0 0.26452487E+03</rscale>
<asrwt>0</asrwt>
<pdfrwt beam="1">  1        2 0.10501538E-01 0.26785729E+03</pdfrwt>
<pdfrwt beam="2">  1       -2 0.15949288E+00 0.26785729E+03</pdfrwt>
<totfact> 0.16290481E+02</totfact>
</mgrwt>
</event>
<event>
 7    1  0.6387485E-006  0.1366579E+03  0.7546771E-02  0.1232474E+00
          2   -1    0    0  501    0  0.00000000000E+00  0.00000000000E+00  0.14400672169E+03  0.14400672169E+03  0.00000000000E+00 0. -1.
         -2   -1    0    0    0  501 -0.00000000000E+00 -0.00000000000E+00 -0.11387909259E+03  0.11387909259E+03  0.00000000000E+00 0.  1.
         23    2    1    2    0    0  0.43781421901E+02 -0.33659896817E+02 -0.30715447180E+02  0.14006717464E+03  0.12500229261E+03 0.  0.
          5    1    3    3  502    0  0.92786943943E+01 -0.37699671804E+02  0.43192642950E+02  0.58267090444E+02  0.47000000000E+01 0.  1.
         -5    1    3    3    0  502  0.34502727507E+02  0.40397749868E+01 -0.73908090130E+02  0.81800084194E+02  0.47000000000E+01 0.  1.
        -11    1    1    2    0    0  0.16829076063E+02  0.15308936518E+02  0.48117923752E+02  0.53225143726E+02  0.00000000000E+00 0. -1.
         11    1    1    2    0    0 -0.60610497964E+02  0.18350960299E+02  0.12725152524E+02  0.64593495912E+02  0.00000000000E+00 0.  1.
<mgrwt>
<rscale>  0 0.12667503E+03</rscale>
<asrwt>0</asrwt>
<pdfrwt beam="1">  1        2 0.22154880E-01 0.13665787E+03</pdfrwt>
<pdfrwt beam="2">  1       -2 0.17519860E-01 0.13665787E+03</pdfrwt>
<totfact> 0.61868468E+03</totfact>
</mgrwt>
</event>
<event>
 7    1  0.6387485E-006  0.1623707E+03  0.7546771E-02  0.1193582E+00
         -2   -1    0    0    0  501 -0.00000000000E+00  0.00000000000E+00  0.58835738333E+02  0.58835738333E+02  0.00000000000E+00 0. -1.
          2   -1    0    0  501    0  0.00000000000E+00 -0.00000000000E+00 -0.38738870825E+03  0.38738870825E+03  0.00000000000E+00 0.  1.
         23    2    1    2    0    0  0.18894992416E+02  0.10189190212E+03 -0.20398635127E+03  0.26071954194E+03  0.12500107037E+03 0.  0.
          5    1    3    3  502    0  0.53027174004E+02 -0.16301194051E+01 -0.65890919707E+02  0.84724505144E+02  0.47000000000E+01 0.  1.
         -5    1    3    3    0  502 -0.34132181587E+02  0.10352202153E+03 -0.13809543156E+03  0.17599503680E+03  0.47000000000E+01 0.  1.
        -11    1    1    2    0    0 -0.78294627190E+01 -0.23105077864E+02 -0.98964362522E+02  0.10192688634E+03  0.00000000000E+00 0.  1.
         11    1    1    2    0    0 -0.11065529697E+02 -0.78786824257E+02 -0.25602256130E+02  0.83578018299E+02  0.00000000000E+00 0. -1.
<mgrwt>
<rscale>  0 0.15574883E+03</rscale>
<asrwt>0</asrwt>
<pdfrwt beam="2">  1        2 0.59598264E-01 0.16237071E+03</pdfrwt>
<pdfrwt beam="1">  1       -2 0.90516519E-02 0.16237071E+03</pdfrwt>
<totfact> 0.62232700E+03</totfact>
</mgrwt>
</event>
<event>
 7    1  0.6387485E-006  0.1342973E+03  0.7546771E-02  0.1234715E+00
          2   -1    0    0  501    0  0.00000000000E+00  0.00000000000E+00  0.78838562186E+02  0.78838562186E+02  0.00000000000E+00 0. -1.
         -2   -1    0    0    0  501 -0.00000000000E+00 -0.00000000000E+00 -0.18592797803E+03  0.18592797803E+03  0.00000000000E+00 0.  1.
         23    2    1    2    0    0  0.41262955545E+02  0.26563849119E+02 -0.90364478610E+02  0.16186874682E+03  0.12500993009E+03 0.  0.
          5    1    3    3  502    0  0.16749153531E+02 -0.50201782787E+02 -0.29486174092E+02  0.60764114423E+02  0.47000000000E+01 0. -1.
         -5    1    3    3    0  502  0.24513802013E+02  0.76765631906E+02 -0.60878304518E+02  0.10110463240E+03  0.47000000000E+01 0. -1.
        -11    1    1    2    0    0 -0.12828956791E+02 -0.36749405220E+02  0.28690961414E+02  0.48355684084E+02  0.00000000000E+00 0. -1.
         11    1    1    2    0    0 -0.28433998753E+02  0.10185556101E+02 -0.45415898647E+02  0.54542109311E+02  0.00000000000E+00 0.  1.
<mgrwt>
<rscale>  0 0.12522711E+03</rscale>
<asrwt>0</asrwt>
<pdfrwt beam="1">  1        2 0.12129010E-01 0.13429725E+03</pdfrwt>
<pdfrwt beam="2">  1       -2 0.28604304E-01 0.13429725E+03</pdfrwt>
<totfact> 0.53434690E+03</totfact>
</mgrwt>
</event>
<event>
 7    1  0.6387485E-006  0.1382168E+03  0.7546771E-02  0.1227331E+00
         -2   -1    0    0    0  501 -0.00000000000E+00  0.00000000000E+00  0.46384901641E+02  0.46384901641E+02  0.00000000000E+00 0.  1.
          2   -1    0    0  501    0  0.00000000000E+00 -0.00000000000E+00 -0.42968123282E+03  0.42968123282E+03  0.00000000000E+00 0. -1.
         23    2    1    2    0    0 -0.14008439045E+01 -0.58958753654E+02 -0.94108667055E+02  0.16721341485E+03  0.12500315154E+03 0.  0.
          5    1    3    3  502    0  0.25932394988E+02  0.21163704389E+02  0.77565370531E+01  0.34679177619E+02  0.47000000000E+01 0. -1.
         -5    1    3    3    0  502 -0.27333238893E+02 -0.80122458043E+02 -0.10186520411E+03  0.13253423723E+03  0.47000000000E+01 0. -1.
        -11    1    1    2    0    0 -0.31031448126E+02  0.25575959222E+02 -0.45342764457E+02  0.60605666001E+02  0.00000000000E+00 0.  1.
         11    1    1    2    0    0  0.32432292030E+02  0.33382794432E+02 -0.24384489967E+03  0.24824705360E+03  0.00000000000E+00 0. -1.
<mgrwt>
<rscale>  0 0.13008399E+03</rscale>
<asrwt>0</asrwt>
<pdfrwt beam="2">  1        2 0.66104809E-01 0.13821680E+03</pdfrwt>
<pdfrwt beam="1">  1       -2 0.71361383E-02 0.13821680E+03</pdfrwt>
<totfact> 0.79682242E+03</totfact>
</mgrwt>
</event>
<event>
 7    1  0.6387485E-006  0.1266179E+03  0.7546771E-02  0.1248285E+00
          2   -1    0    0  501    0  0.00000000000E+00  0.00000000000E+00  0.25385411771E+03  0.25385411771E+03  0.00000000000E+00 0. -1.
         -2   -1    0    0    0  501 -0.00000000000E+00 -0.00000000000E+00 -0.47638029154E+02  0.47638029154E+02  0.00000000000E+00 0.  1.
         23    2    1    2    0    0  0.15781741025E+02 -0.12665233782E+02  0.10310746713E+03  0.16328884992E+03  0.12499050857E+03 0.  0.
          5    1    3    3  502    0 -0.15879024593E+02 -0.54846501889E+02  0.93227392349E+02  0.10942448938E+03  0.47000000000E+01 0.  1.
         -5    1    3    3    0  502  0.31660765618E+02  0.42181268107E+02  0.98800747853E+01  0.53864360540E+02  0.47000000000E+01 0.  1.
        -11    1    1    2    0    0 -0.10551100406E+02 -0.10316515747E+02 -0.13036831476E+02  0.19690484805E+02  0.00000000000E+00 0.  1.
         11    1    1    2    0    0 -0.52306406185E+01  0.22981749529E+02  0.11614545290E+03  0.11851281214E+03  0.00000000000E+00 0. -1.
<mgrwt>
<rscale>  0 0.11690925E+03</rscale>
<asrwt>0</asrwt>
<pdfrwt beam="1">  1        2 0.39054479E-01 0.12661792E+03</pdfrwt>
<pdfrwt beam="2">  1       -2 0.73289278E-02 0.12661792E+03</pdfrwt>
<totfact> 0.13291656E+04</totfact>
</mgrwt>
</event>
<event>
 7    1  0.6387485E-006  0.1903378E+03  0.7546771E-02  0.1162916E+00
         -2   -1    0    0    0  501 -0.00000000000E+00  0.00000000000E+00  0.58203028650E+02  0.58203028650E+02  0.00000000000E+00 0.  1.
          2   -1    0    0  501    0  0.00000000000E+00 -0.00000000000E+00 -0.56846129108E+03  0.56846129108E+03  0.00000000000E+00 0. -1.
         23    2    1    2    0    0 -0.10773474509E+03  0.94871335393E+02 -0.22851749876E+03  0.29740333557E+03  0.12498460382E+03 0.  0.
          5    1    3    3  502    0 -0.20820226248E+02  0.14899590486E+02  0.12564088287E+02  0.28903735609E+02  0.47000000000E+01 0.  1.
         -5    1    3    3    0  502 -0.86914518839E+02  0.79971744908E+02 -0.24108158705E+03  0.26849959996E+03  0.47000000000E+01 0.  1.
        -11    1    1    2    0    0  0.87450994274E+02 -0.16255343437E+02 -0.13824671586E+03  0.16438998460E+03  0.00000000000E+00 0. -1.
         11    1    1    2    0    0  0.20283750813E+02 -0.78615991956E+02 -0.14349404782E+03  0.16487099956E+03  0.00000000000E+00 0.  1.
<mgrwt>
<rscale>  0 0.18514372E+03</rscale>
<asrwt>0</asrwt>
<pdfrwt beam="2">  1        2 0.87455584E-01 0.19033785E+03</pdfrwt>
<pdfrwt beam="1">  1       -2 0.89543121E-02 0.19033785E+03</pdfrwt>
<totfact> 0.41817072E+03</totfact>
</mgrwt>
</event>
<event>
 7    1  0.6387485E-006  0.1281911E+03  0.7546771E-02  0.1245121E+00
         -1   -1    0    0    0  501 -0.00000000000E+00  0.00000000000E+00  0.22120661310E+02  0.22120661310E+02  0.00000000000E+00 0. -1.
          1   -1    0    0  501    0  0.00000000000E+00 -0.00000000000E+00 -0.56070833203E+03  0.56070833203E+03  0.00000000000E+00 0.  1.
         23    2    1    2    0    0 -0.28326206008E+02 -0.24682411145E+01 -0.30389991715E+03  0.32983042346E+03  0.12499792972E+03 0.  0.
          5    1    3    3  502    0  0.15550827126E+02 -0.69704246198E+01  0.45123882607E+01  0.18244634595E+02  0.47000000000E+01 0.  1.
         -5    1    3    3    0  502 -0.43877033134E+02  0.45021835053E+01 -0.30841230541E+03  0.31158578886E+03  0.47000000000E+01 0.  1.
        -11    1    1    2    0    0  0.80253086977E+01  0.36085353333E+02 -0.18975742350E+03  0.19332469598E+03  0.00000000000E+00 0.  1.
         11    1    1    2    0    0  0.20300897311E+02 -0.33617112219E+02 -0.44930330074E+02  0.59673873899E+02  0.00000000000E+00 0. -1.
<mgrwt>
<rscale>  0 0.11878165E+03</rscale>
<asrwt>0</asrwt>
<pdfrwt beam="2">  1        1 0.86262818E-01 0.12819106E+03</pdfrwt>
<pdfrwt beam="1">  1       -1 0.34031788E-02 0.12819106E+03</pdfrwt>
<totfact> 0.11459722E+04</totfact>
</mgrwt>
</event>
<event>
 7    1  0.6387485E-006  0.1333201E+03  0.7546771E-02  0.1234952E+00
         -2   -1    0    0    0  501 -0.00000000000E+00  0.00000000000E+00  0.69803321396E+02  0.69803321396E+02  0.00000000000E+00 0.  1.
          2   -1    0    0  501    0  0.00000000000E+00 -0.00000000000E+00 -0.21720956080E+03  0.21720956080E+03  0.00000000000E+00 0. -1.
         23    2    1    2    0    0  0.12687566227E+02 -0.44587706283E+02 -0.42817101511E+02  0.14002692688E+03  0.12500079273E+03 0.  0.
          5    1    3    3  502    0 -0.28893236649E+02 -0.75610412703E+02 -0.29298142602E+02  0.86210352007E+02  0.47000000000E+01 0.  1.
         -5    1    3    3    0  502  0.41580802876E+02  0.31022706420E+02 -0.13518958909E+02  0.53816574876E+02  0.47000000000E+01 0.  1.
        -11    1    1    2    0    0 -0.10599127304E+02  0.22343467637E+02 -0.11824344638E+03  0.12080184046E+03  0.00000000000E+00 0. -1.
         11    1    1    2    0    0 -0.20884389231E+01  0.22244238645E+02  0.13654308494E+02  0.26184114850E+02  0.00000000000E+00 0.  1.
<mgrwt>
<rscale>  0 0.12507535E+03</rscale>
<asrwt>0</asrwt>
<pdfrwt beam="2">  1        2 0.33416855E-01 0.13332005E+03</pdfrwt>
<pdfrwt beam="1">  1       -2 0.10738973E-01 0.13332005E+03</pdfrwt>
<totfact> 0.87029579E+03</totfact>
</mgrwt>
</event>
<event>
 7    1  0.6387485E-006  0.1362506E+03  0.7546771E-02  0.1231087E+00
          3   -1    0    0  501    0  0.00000000000E+00  0.00000000000E+00  0.35723642468E+02  0.35723642468E+02  0.00000000000E+00 0. -1.
         -3   -1    0    0    0  501 -0.00000000000E+00 -0.00000000000E+00 -0.41793756640E+03  0.41793756640E+03  0.00000000000E+00 0.  1.
         23    2    1    2    0    0 -0.52456352009E+02  0.13720462830E+02 -0.25266567686E+03  0.28706126841E+03  0.12499723033E+03 0.  0.
          5    1    3    3  502    0 -0.36324290398E+02  0.67854157633E+02 -0.17177831524E+03  0.18829105228E+03  0.47000000000E+01 0.  1.
         -5    1    3    3    0  502 -0.16132061611E+02 -0.54133694803E+02 -0.80887361617E+02  0.98770216129E+02  0.47000000000E+01 0.  1.
        -11    1    1    2    0    0  0.68867327475E+01 -0.29194966799E+02 -0.11106972690E+03  0.11504893484E+03  0.00000000000E+00 0.  1.
         11    1    1    2    0    0  0.45569619261E+02  0.15474503969E+02 -0.18478520174E+02  0.51551005621E+02  0.00000000000E+00 0. -1.
<mgrwt>
<rscale>  0 0.12758320E+03</rscale>
<asrwt>0</asrwt>
<pdfrwt beam="1">  1        3 0.54959451E-02 0.13625061E+03</pdfrwt>
<pdfrwt beam="2">  1       -3 0.64298086E-01 0.13625061E+03</pdfrwt>
<totfact> 0.10770277E+03</totfact>
</mgrwt>
</event>
<event>
 7    1  0.6387485E-006  0.1307372E+03  0.7546771E-02  0.1240889E+00
          2   -1    0    0  501    0  0.00000000000E+00  0.00000000000E+00  0.98836982179E+02  0.98836982179E+02  0.00000000000E+00 0. -1.
         -2   -1    0    0    0  501 -0.00000000000E+00 -0.00000000000E+00 -0.15887674428E+03  0.15887674428E+03  0.00000000000E+00 0.  1.
         23    2    1    2    0    0  0.24586938590E+02  0.29375670782E+02 -0.86954416760E+02  0.15701363732E+03  0.12499905650E+03 0.  0.
          5    1    3    3  502    0  0.70385072335E+02 -0.70609179961E+01 -0.57748678049E+02  0.91438037966E+02  0.47000000000E+01 0. -1.
         -5    1    3    3    0  502 -0.45798133745E+02  0.36436588779E+02 -0.29205738711E+02  0.65575599349E+02  0.47000000000E+01 0. -1.
        -11    1    1    2    0    0  0.29110252674E+02 -0.66475857138E+01  0.29976523880E+02  0.42310627394E+02  0.00000000000E+00 0.  1.
         11    1    1    2    0    0 -0.53697191264E+02 -0.22728085069E+02 -0.30618692230E+01  0.58389461752E+02  0.00000000000E+00 0. -1.
<mgrwt>
<rscale>  0 0.12134819E+03</rscale>
<asrwt>0</asrwt>
<pdfrwt beam="1">  1        2 0.15205690E-01 0.13073719E+03</pdfrwt>
<pdfrwt beam="2">  1       -2 0.24442576E-01 0.13073719E+03</pdfrwt>
<totfact> 0.53828988E+03</totfact>
</mgrwt>
</event>
<event>
 6    1  0.6387485E-006  0.1857873E+03  0.7546771E-02  0.1173789E+00
         -1   -1    0    0    0  501 -0.00000000000E+00  0.00000000000E+00  0.32522358674E+02  0.32522358674E+02  0.00000000000E+00 0.  1.
          1   -1    0    0  501    0  0.00000000000E+00 -0.00000000000E+00 -0.90096352501E+03  0.90096352501E+03  0.00000000000E+00 0. -1.
          5    1    1    2  502    0 -0.71149713600E+02  0.29431397452E+02 -0.17760687790E+03  0.19363569397E+03  0.47000000000E+01 0. -1.
         -5    1    1    2    0  502 -0.10797310910E+02 -0.10619215158E+03 -0.17887832329E+03  0.20835762411E+03  0.47000000000E+01 0.  1.
        -11    1    1    2    0    0  0.10032727600E+03  0.70597430280E+02 -0.42189848380E+03  0.43937215445E+03  0.00000000000E+00 0. -1.
         11    1    1    2    0    0 -0.18380251495E+02  0.61633238506E+01 -0.90057481339E+02  0.92120411153E+02  0.00000000000E+00 0.  1.
<mgrwt>
<rscale>  0 0.17395105E+03</rscale>
<asrwt>0</asrwt>
<pdfrwt beam="2">  1        1 0.13860974E+00 0.18578732E+03</pdfrwt>
<pdfrwt beam="1">  1       -1 0.50034411E-02 0.18578732E+03</pdfrwt>
<totfact> 0.33180625E+03</totfact>
</mgrwt>
</event>
<event>
 7    1  0.6387485E-006  0.1545951E+03  0.7546771E-02  0.1203294E+00
         -4   -1    0    0    0  501 -0.00000000000E+00  0.00000000000E+00  0.18835113512E+03  0.18835113512E+03  0.00000000000E+00 0.  1.
          4   -1    0    0  501    0  0.00000000000E+00 -0.00000000000E+00 -0.34884911596E+03  0.34884911596E+03  0.00000000000E+00 0. -1.
         23    2    1    2    0    0  0.87177565575E+02 -0.25995973970E+02  0.14104084898E+03  0.20926576366E+03  0.12499568054E+03 0.  0.
          5    1    3    3  502    0 -0.10919509482E+02  0.33529546859E+02  0.14592455878E+02  0.38451215435E+02  0.47000000000E+01 0.  1.
         -5    1    3    3    0  502  0.98097075057E+02 -0.59525520829E+02  0.12644839311E+03  0.17081454822E+03  0.47000000000E+01 0.  1.
        -11    1    1    2    0    0 -0.24587925506E+01  0.40606516519E+02 -0.70162663654E+02  0.81103231845E+02  0.00000000000E+00 0.  1.
         11    1    1    2    0    0 -0.84718773025E+02 -0.14610542550E+02 -0.23137616617E+03  0.24683125558E+03  0.00000000000E+00 0. -1.
<mgrwt>
<rscale>  0 0.14772720E+03</rscale>
<asrwt>0</asrwt>
<pdfrwt beam="2">  1        4 0.53669094E-01 0.15459508E+03</pdfrwt>
<pdfrwt beam="1">  1       -4 0.28977098E-01 0.15459508E+03</pdfrwt>
<totfact> 0.65297180E+01</totfact>
</mgrwt>
</event>
<event>
 7    1  0.6387485E-006  0.1332410E+03  0.7546771E-02  0.1235926E+00
         -1   -1    0    0    0  501 -0.00000000000E+00  0.00000000000E+00  0.44552676985E+02  0.44552676985E+02  0.00000000000E+00 0.  1.
          1   -1    0    0  501    0  0.00000000000E+00 -0.00000000000E+00 -0.30984592673E+03  0.30984592673E+03  0.00000000000E+00 0. -1.
         23    2    1    2    0    0  0.38152817361E+02 -0.25967173926E+02 -0.14135127624E+03  0.19425071896E+03  0.12499290752E+03 0.  0.
          5    1    3    3  502    0 -0.13482033689E+02 -0.64039131514E+02 -0.49845719080E+02  0.82398187529E+02  0.47000000000E+01 0. -1.
         -5    1    3    3    0  502  0.51634851050E+02  0.38071957588E+02 -0.91505557159E+02  0.11185253144E+03  0.47000000000E+01 0. -1.
        -11    1    1    2    0    0  0.56577611061E+01  0.48279869691E+02 -0.40375367129E+02  0.63191188855E+02  0.00000000000E+00 0. -1.
         11    1    1    2    0    0 -0.43810578467E+02 -0.22312695765E+02 -0.83566606376E+02  0.96956695896E+02  0.00000000000E+00 0.  1.
<mgrwt>
<rscale>  0 0.12445369E+03</rscale>
<asrwt>0</asrwt>
<pdfrwt beam="2">  1        1 0.47668602E-01 0.13324098E+03</pdfrwt>
<pdfrwt beam="1">  1       -1 0.68542583E-02 0.13324098E+03</pdfrwt>
<totfact> 0.86931455E+03</totfact>
</mgrwt>
</event>
<event>
 7    1  0.6387485E-006  0.1816626E+03  0.7546771E-02  0.1171843E+00
          1   -1    0    0  501    0  0.00000000000E+00  0.00000000000E+00  0.39445447440E+03  0.39445447440E+03  0.00000000000E+00 0. -1.
         -1   -1    0    0    0  501 -0.00000000000E+00 -0.00000000000E+00 -0.75769946754E+02  0.75769946754E+02  0.00000000000E+00 0.  1.
         23    2    1    2    0    0  0.25842777060E+02 -0.12925074691E+03  0.20691238541E+03  0.27534350971E+03  0.12501083313E+03 0.  0.
          5    1    3    3  502    0  0.10422301871E+02 -0.12496907211E+03  0.22058050570E+03  0.25377892516E+03  0.47000000000E+01 0. -1.
         -5    1    3    3    0  502  0.15420475189E+02 -0.42816748031E+01 -0.13668120296E+02  0.21564584545E+02  0.47000000000E+01 0. -1.
        -11    1    1    2    0    0 -0.17384389262E+02  0.37509926001E+01  0.53264344461E+02  0.56154940356E+02  0.00000000000E+00 0. -1.
         11    1    1    2    0    0 -0.84583877977E+01  0.12549975431E+03  0.58507797782E+02  0.13872597110E+03  0.00000000000E+00 0.  1.
<mgrwt>
<rscale>  0 0.17588790E+03</rscale>
<asrwt>0</asrwt>
<pdfrwt beam="1">  1        1 0.60685303E-01 0.18166264E+03</pdfrwt>
<pdfrwt beam="2">  1       -1 0.11656915E-01 0.18166264E+03</pdfrwt>
<totfact> 0.29087834E+03</totfact>
</mgrwt>
</event>
<event>
 6    1  0.6387485E-006  0.1388186E+03  0.7546771E-02  0.1235779E+00
         -1   -1    0    0    0  501 -0.00000000000E+00  0.00000000000E+00  0.95597941044E+02  0.95597941044E+02  0.00000000000E+00 0.  1.
          1   -1    0    0  501    0  0.00000000000E+00 -0.00000000000E+00 -0.31585795294E+03  0.31585795294E+03  0.00000000000E+00 0. -1.
          5    1    1    2  502    0  0.29436891647E+02  0.59864388745E+02 -0.84565634741E+01  0.67408301384E+02  0.47000000000E+01 0. -1.
         -5    1    1    2    0  502 -0.50001393117E+02 -0.37757096188E+02  0.41465266268E+02  0.75280780634E+02  0.47000000000E+01 0.  1.
        -11    1    1    2    0    0  0.15154890279E+02 -0.43804344979E+02 -0.23601337320E+03  0.24052194009E+03  0.00000000000E+00 0. -1.
         11    1    1    2    0    0  0.54096111903E+01  0.21697052422E+02 -0.17255341495E+02  0.28244871873E+02  0.00000000000E+00 0.  1.
<mgrwt>
<rscale>  0 0.12454693E+03</rscale>
<asrwt>0</asrwt>
<pdfrwt beam="2">  1        1 0.48593532E-01 0.13881859E+03</pdfrwt>
<pdfrwt beam="1">  1       -1 0.14707375E-01 0.13881859E+03</pdfrwt>
<totfact> 0.26491280E+03</totfact>
</mgrwt>
</event>
<event>
 6    1  0.6387485E-006  0.1603386E+03  0.7546771E-02  0.1204229E+00
         -1   -1    0    0    0  501 -0.00000000000E+00  0.00000000000E+00  0.23377861214E+02  0.23377861214E+02  0.00000000000E+00 0.  1.
          1   -1    0    0  501    0  0.00000000000E+00 -0.00000000000E+00 -0.89589388589E+03  0.89589388589E+03  0.00000000000E+00 0. -1.
          5    1    1    2  502    0  0.17621171223E+02 -0.51697495591E+01 -0.27565155542E+03  0.27630255517E+03  0.47000000000E+01 0. -1.
         -5    1    1    2    0  502 -0.47758955841E+02  0.65062851782E+02 -0.79599100972E+02  0.11345571568E+03  0.47000000000E+01 0.  1.
        -11    1    1    2    0    0 -0.20186382043E+02  0.13273849175E+02 -0.96386761817E+02  0.99368470580E+02  0.00000000000E+00 0.  1.
         11    1    1    2    0    0  0.50324166660E+02 -0.73166951398E+02 -0.42087860646E+03  0.43014500567E+03  0.00000000000E+00 0. -1.
<mgrwt>
<rscale>  0 0.14698369E+03</rscale>
<asrwt>0</asrwt>
<pdfrwt beam="2">  1        1 0.13782983E+00 0.16033864E+03</pdfrwt>
<pdfrwt beam="1">  1       -1 0.35965939E-02 0.16033864E+03</pdfrwt>
<totfact> 0.54314928E+03</totfact>
</mgrwt>
</event>
<event>
 7    1  0.6387485E-006  0.1790661E+03  0.7546771E-02  0.1173808E+00
         -1   -1    0    0    0  501 -0.00000000000E+00  0.00000000000E+00  0.26883038024E+03  0.26883038024E+03  0.00000000000E+00 0.  1.
          1   -1    0    0  501    0  0.00000000000E+00 -0.00000000000E+00 -0.11212668551E+03  0.11212668551E+03  0.00000000000E+00 0. -1.
         23    2    1    2    0    0  0.11950925744E+03 -0.46443249394E+02  0.12515317140E+03  0.21846733181E+03  0.12500088291E+03 0.  0.
          5    1    3    3  502    0 -0.11114476065E+02 -0.23364684411E+02  0.69923770520E+02  0.74705178800E+02  0.47000000000E+01 0.  1.
         -5    1    3    3    0  502  0.13062373350E+03 -0.23078564983E+02  0.55229400879E+02  0.14376215301E+03  0.47000000000E+01 0.  1.
        -11    1    1    2    0    0 -0.10575142641E+03  0.29289880550E+02  0.61146569182E+02  0.12561912359E+03  0.00000000000E+00 0.  1.
         11    1    1    2    0    0 -0.13757831033E+02  0.17153368844E+02 -0.29596045846E+02  0.36870610345E+02  0.00000000000E+00 0. -1.
<mgrwt>
<rscale>  0 0.17393228E+03</rscale>
<asrwt>0</asrwt>
<pdfrwt beam="2">  1        1 0.17250259E-01 0.17906607E+03</pdfrwt>
<pdfrwt beam="1">  1       -1 0.41358520E-01 0.17906607E+03</pdfrwt>
<totfact> 0.17761992E+03</totfact>
</mgrwt>
</event>
<event>
 7    1  0.6387485E-006  0.1861984E+03  0.7546771E-02  0.1166752E+00
         -1   -1    0    0    0  501 -0.00000000000E+00  0.00000000000E+00  0.74285605890E+02  0.74285605890E+02  0.00000000000E+00 0.  1.
          1   -1    0    0  501    0  0.00000000000E+00 -0.00000000000E+00 -0.42478796035E+03  0.42478796035E+03  0.00000000000E+00 0. -1.
         23    2    1    2    0    0  0.13605605115E+03 -0.23016285864E+02 -0.15541305596E+03  0.24253469935E+03  0.12501545487E+03 0.  0.
          5    1    3    3  502    0  0.14874389070E+03  0.10914150188E+02 -0.11789911476E+03  0.19017401231E+03  0.47000000000E+01 0.  1.
         -5    1    3    3    0  502 -0.12687839555E+02 -0.33930436053E+02 -0.37513941192E+02  0.52360687038E+02  0.47000000000E+01 0.  1.
        -11    1    1    2    0    0 -0.80856232195E+02  0.49113815560E+02 -0.71141507375E+02  0.11836811748E+03  0.00000000000E+00 0.  1.
         11    1    1    2    0    0 -0.55199818951E+02 -0.26097529696E+02 -0.12394779113E+03  0.13817074941E+03  0.00000000000E+00 0. -1.
<mgrwt>
<rscale>  0 0.18109002E+03</rscale>
<asrwt>0</asrwt>
<pdfrwt beam="2">  1        1 0.65351994E-01 0.18619845E+03</pdfrwt>
<pdfrwt beam="1">  1       -1 0.11428555E-01 0.18619845E+03</pdfrwt>
<totfact> 0.27309706E+03</totfact>
</mgrwt>
</event>
<event>
 7    1  0.6387485E-006  0.1387933E+03  0.7546771E-02  0.1226165E+00
          4   -1    0    0  501    0  0.00000000000E+00  0.00000000000E+00  0.52055106613E+02  0.52055106613E+02  0.00000000000E+00 0. -1.
         -4   -1    0    0    0  501 -0.00000000000E+00 -0.00000000000E+00 -0.87483792334E+03  0.87483792334E+03  0.00000000000E+00 0.  1.
         23    2    1    2    0    0 -0.58364038144E+02  0.15243535032E+02 -0.80360846437E+03  0.81550607466E+03  0.12499946994E+03 0.  0.
          5    1    3    3  502    0  0.20894778782E+01  0.61489877711E+02 -0.40419358631E+03  0.40887640699E+03  0.47000000000E+01 0. -1.
         -5    1    3    3    0  502 -0.60453516022E+02 -0.46246342679E+02 -0.39941487806E+03  0.40662966767E+03  0.47000000000E+01 0. -1.
        -11    1    1    2    0    0  0.36270476449E+02 -0.52689320803E+02 -0.22435994640E+02  0.67787062512E+02  0.00000000000E+00 0. -1.
         11    1    1    2    0    0  0.22093561695E+02  0.37445785771E+02  0.32616422857E+01  0.43599892784E+02  0.00000000000E+00 0.  1.
<mgrwt>
<rscale>  0 0.13087361E+03</rscale>
<asrwt>0</asrwt>
<pdfrwt beam="1">  1        4 0.80084778E-02 0.13879335E+03</pdfrwt>
<pdfrwt beam="2">  1       -4 0.13459045E+00 0.13879335E+03</pdfrwt>
<totfact> 0.77932378E+01</totfact>
</mgrwt>
</event>
<event>
 7    1  0.6387485E-006  0.1457359E+03  0.7546771E-02  0.1218005E+00
          3   -1    0    0  501    0  0.00000000000E+00  0.00000000000E+00  0.81093584413E+03  0.81093584413E+03  0.00000000000E+00 0. -1.
         -3   -1    0    0    0  501 -0.00000000000E+00 -0.00000000000E+00 -0.20605799507E+02  0.20605799507E+02  0.00000000000E+00 0.  1.
         23    2    1    2    0    0  0.45112492060E+01 -0.74789439492E+02  0.46814536058E+03  0.49030503546E+03  0.12500055012E+03 0.  0.
          5    1    3    3  502    0 -0.38768569165E+02 -0.11608549623E+02  0.32808941267E+03  0.33060930581E+03  0.47000000000E+01 0.  1.
         -5    1    3    3    0  502  0.43279818371E+02 -0.63180889870E+02  0.14005594791E+03  0.15969572965E+03  0.47000000000E+01 0.  1.
        -11    1    1    2    0    0  0.32271619573E+02  0.56880123060E+02  0.24844813603E+03  0.25691103933E+03  0.00000000000E+00 0. -1.
         11    1    1    2    0    0 -0.36782868779E+02  0.17909316432E+02  0.73736548011E+02  0.84325568858E+02  0.00000000000E+00 0.  1.
<mgrwt>
<rscale>  0 0.13658120E+03</rscale>
<asrwt>0</asrwt>
<pdfrwt beam="1">  1        3 0.12475934E+00 0.14573589E+03</pdfrwt>
<pdfrwt beam="2">  1       -3 0.31701236E-02 0.14573589E+03</pdfrwt>
<totfact> 0.59206664E+02</totfact>
</mgrwt>
</event>
<event>
 7    1  0.6387485E-006  0.1250382E+03  0.7546771E-02  0.1250436E+00
         -2   -1    0    0    0  501 -0.00000000000E+00  0.00000000000E+00  0.40167884964E+02  0.40167884964E+02  0.00000000000E+00 0.  1.
          2   -1    0    0  501    0  0.00000000000E+00 -0.00000000000E+00 -0.29328590744E+03  0.29328590744E+03  0.00000000000E+00 0. -1.
         23    2    1    2    0    0 -0.19504456225E+01 -0.23679923510E+01 -0.13480971140E+03  0.18387009808E+03  0.12500057221E+03 0.  0.
          5    1    3    3  502    0 -0.14026443003E+02  0.50920722447E+02 -0.11305218926E+03  0.12487012683E+03  0.47000000000E+01 0.  1.
         -5    1    3    3    0  502  0.12075997381E+02 -0.53288714798E+02 -0.21757522146E+02  0.58999971250E+02  0.47000000000E+01 0.  1.
        -11    1    1    2    0    0  0.23157604946E+02  0.18859173449E+02 -0.11901990998E+03  0.12270974721E+03  0.00000000000E+00 0. -1.
         11    1    1    2    0    0 -0.21207159323E+02 -0.16491181098E+02  0.71159890278E+00  0.26873947115E+02  0.00000000000E+00 0.  1.
<mgrwt>
<rscale>  0 0.11565845E+03</rscale>
<asrwt>0</asrwt>
<pdfrwt beam="2">  1        2 0.45120910E-01 0.12503821E+03</pdfrwt>
<pdfrwt beam="1">  1       -2 0.61796745E-02 0.12503821E+03</pdfrwt>
<totfact> 0.14778334E+04</totfact>
</mgrwt>
</event>
<event>
 7    1  0.6387485E-006  0.1559819E+03  0.7546771E-02  0.1202024E+00
         -2   -1    0    0    0  501 -0.00000000000E+00  0.00000000000E+00  0.11235854055E+03  0.11235854055E+03  0.00000000000E+00 0.  1.
          2   -1    0    0  501    0  0.00000000000E+00 -0.00000000000E+00 -0.27033562688E+03  0.27033562688E+03  0.00000000000E+00 0. -1.
         23    2    1    2    0    0 -0.66512011920E+02  0.65408635443E+02  0.25869040616E+02  0.15811253938E+03  0.12501292144E+03 0.  0.
          5    1    3    3  502    0 -0.38345374290E+02  0.23004484074E+02 -0.49607420522E+02  0.66951924452E+02  0.47000000000E+01 0. -1.
         -5    1    3    3    0  502 -0.28166637629E+02  0.42404151368E+02  0.75476461138E+02  0.91160614931E+02  0.47000000000E+01 0. -1.
        -11    1    1    2    0    0  0.72980418252E+01 -0.21405967755E+02 -0.13317700204E+03  0.13508364350E+03  0.00000000000E+00 0. -1.
         11    1    1    2    0    0  0.59213970094E+02 -0.44002667688E+02 -0.50669124914E+02  0.89497984545E+02  0.00000000000E+00 0.  1.
<mgrwt>
<rscale>  0 0.14874480E+03</rscale>
<asrwt>0</asrwt>
<pdfrwt beam="2">  1        2 0.41590096E-01 0.15598195E+03</pdfrwt>
<pdfrwt beam="1">  1       -2 0.17285930E-01 0.15598195E+03</pdfrwt>
<totfact> 0.32141533E+03</totfact>
</mgrwt>
</event>
<event>
 7    1  0.6387485E-006  0.1347335E+03  0.7546771E-02  0.1232933E+00
          1   -1    0    0  501    0  0.00000000000E+00  0.00000000000E+00  0.65324589565E+02  0.65324589565E+02  0.00000000000E+00 0. -1.
         -1   -1    0    0    0  501 -0.00000000000E+00 -0.00000000000E+00 -0.22497329103E+03  0.22497329103E+03  0.00000000000E+00 0.  1.
         23    2    1    2    0    0  0.49229422514E+02 -0.10364242153E+02 -0.11385044667E+03  0.17639457357E+03  0.12498867077E+03 0.  0.
          5    1    3    3  502    0 -0.34772239464E+02 -0.18818099502E+02 -0.71467949430E+02  0.81810679633E+02  0.47000000000E+01 0.  1.
         -5    1    3    3    0  502  0.84001661978E+02  0.84538573496E+01 -0.42382497244E+02  0.94583893935E+02  0.47000000000E+01 0.  1.
        -11    1    1    2    0    0 -0.31026165921E+00 -0.35703269397E+02 -0.24910734875E+02  0.43535783213E+02  0.00000000000E+00 0.  1.
         11    1    1    2    0    0 -0.48919160855E+02  0.46067511550E+02 -0.20887519913E+02  0.70367523811E+02  0.00000000000E+00 0. -1.
<mgrwt>
<rscale>  0 0.12637693E+03</rscale>
<asrwt>0</asrwt>
<pdfrwt beam="1">  1        1 0.10049937E-01 0.13473352E+03</pdfrwt>
<pdfrwt beam="2">  1       -1 0.34611276E-01 0.13473352E+03</pdfrwt>
<totfact> 0.48489797E+03</totfact>
</mgrwt>
</event>
<event>
 7    1  0.6387485E-006  0.1554651E+03  0.7546771E-02  0.1202528E+00
         -1   -1    0    0    0  501 -0.00000000000E+00  0.00000000000E+00  0.10321892356E+03  0.10321892356E+03  0.00000000000E+00 0.  1.
          1   -1    0    0  501    0  0.00000000000E+00 -0.00000000000E+00 -0.19588752814E+03  0.19588752814E+03  0.00000000000E+00 0. -1.
         23    2    1    2    0    0  0.40800471170E+02  0.82948953166E+02 -0.47582271244E+02  0.16258372189E+03  0.12499674719E+03 0.  0.
          5    1    3    3  502    0 -0.32584876654E+02 -0.12162100620E+02 -0.13715231159E+02  0.37681407136E+02  0.47000000000E+01 0.  1.
         -5    1    3    3    0  502  0.73385347823E+02  0.95111053786E+02 -0.33867040086E+02  0.12490231476E+03  0.47000000000E+01 0.  1.
        -11    1    1    2    0    0  0.80501541133E+01 -0.65914147591E+02  0.21896639294E+01  0.66440006487E+02  0.00000000000E+00 0.  1.
         11    1    1    2    0    0 -0.48850625283E+02 -0.17034805576E+02 -0.47275997263E+02  0.70082723326E+02  0.00000000000E+00 0. -1.
<mgrwt>
<rscale>  0 0.14833948E+03</rscale>
<asrwt>0</asrwt>
<pdfrwt beam="2">  1        1 0.30136543E-01 0.15546509E+03</pdfrwt>
<pdfrwt beam="1">  1       -1 0.15879834E-01 0.15546509E+03</pdfrwt>
<totfact> 0.42712171E+03</totfact>
</mgrwt>
</event>
<event>
 7    1  0.6387485E-006  0.1152753E+03  0.7546771E-02  0.1262097E+00
          1   -1    0    0  501    0  0.00000000000E+00  0.00000000000E+00  0.19540695503E+03  0.19540695503E+03  0.00000000000E+00 0. -1.
         -1   -1    0    0    0  501 -0.00000000000E+00 -0.00000000000E+00 -0.65916976965E+02  0.65916976965E+02  0.00000000000E+00 0.  1.
         23    2    1    2    0    0 -0.20230818341E+02 -0.32101330945E+01  0.18621373684E+02  0.11676968951E+03  0.11344079454E+03 0.  0.
          5    1    3    3  502    0 -0.41928350229E+02 -0.48627569135E+02  0.14890675118E+02  0.66079113480E+02  0.47000000000E+01 0. -1.
         -5    1    3    3    0  502  0.21697531888E+02  0.45417436040E+02  0.37306985660E+01  0.50690576030E+02  0.47000000000E+01 0.  1.
        -11    1    1    2    0    0 -0.95201868839E+01  0.37816213996E+02  0.22306723156E+02  0.44925381437E+02  0.00000000000E+00 0.  1.
         11    1    1    2    0    0  0.29751005225E+02 -0.34606080902E+02  0.88561881225E+02  0.99628861046E+02  0.00000000000E+00 0. -1.
<mgrwt>
<rscale>  0 0.10917932E+03</rscale>
<asrwt>0</asrwt>
<pdfrwt beam="1">  1        1 0.30062608E-01 0.11527534E+03</pdfrwt>
<pdfrwt beam="2">  1       -1 0.10141073E-01 0.11527534E+03</pdfrwt>
<totfact> 0.84135145E+03</totfact>
</mgrwt>
</event>
<event>
 7    1  0.6387485E-006  0.1699551E+03  0.7546771E-02  0.1183836E+00
         -1   -1    0    0    0  501 -0.00000000000E+00  0.00000000000E+00  0.10815524401E+03  0.10815524401E+03  0.00000000000E+00 0.  1.
          1   -1    0    0  501    0  0.00000000000E+00 -0.00000000000E+00 -0.30097532181E+03  0.30097532181E+03  0.00000000000E+00 0. -1.
         23    2    1    2    0    0 -0.78939841903E+02  0.83840692432E+02 -0.56372610480E+01  0.17004858167E+03  0.12499592420E+03 0.  0.
          5    1    3    3  502    0 -0.47581868998E+02 -0.25611394124E+02 -0.13270820728E+02  0.55840688114E+02  0.47000000000E+01 0.  1.
         -5    1    3    3    0  502 -0.31357972905E+02  0.10945208656E+03  0.76335596797E+01  0.11420789355E+03  0.47000000000E+01 0.  1.
        -11    1    1    2    0    0 -0.61241922194E+01 -0.60112966376E+02 -0.75459892278E+02  0.96670935650E+02  0.00000000000E+00 0. -1.
         11    1    1    2    0    0  0.85064034122E+02 -0.23727726057E+02 -0.11172292447E+03  0.14241104850E+03  0.00000000000E+00 0.  1.
<mgrwt>
<rscale>  0 0.16438253E+03</rscale>
<asrwt>0</asrwt>
<pdfrwt beam="2">  1        1 0.46303896E-01 0.16995512E+03</pdfrwt>
<pdfrwt beam="1">  1       -1 0.16639268E-01 0.16995512E+03</pdfrwt>
<totfact> 0.23328733E+03</totfact>
</mgrwt>
</event>
<event>
 7    1  0.6387485E-006  0.1321765E+03  0.7546771E-02  0.1239212E+00
         -2   -1    0    0    0  501 -0.00000000000E+00  0.00000000000E+00  0.78473630490E+02  0.78473630490E+02  0.00000000000E+00 0.  1.
          2   -1    0    0  501    0  0.00000000000E+00 -0.00000000000E+00 -0.23976448341E+03  0.23976448341E+03  0.00000000000E+00 0. -1.
         23    2    1    2    0    0 -0.42300546268E+02  0.73485921150E+01 -0.26401453408E+01  0.13220290638E+03  0.12500919993E+03 0.  0.
          5    1    3    3  502    0  0.19390202062E+02 -0.41821767935E+02 -0.21304235082E+02  0.51000006290E+02  0.47000000000E+01 0.  1.
         -5    1    3    3    0  502 -0.61690748330E+02  0.49170360050E+02  0.18664089741E+02  0.81202900089E+02  0.47000000000E+01 0.  1.
        -11    1    1    2    0    0  0.41965978769E+02  0.13734995134E+02 -0.15892693612E+03  0.16494715666E+03  0.00000000000E+00 0.  1.
         11    1    1    2    0    0  0.33456749903E+00 -0.21083587249E+02  0.27622854633E+00  0.21088050856E+02  0.00000000000E+00 0. -1.
<mgrwt>
<rscale>  0 0.12238603E+03</rscale>
<asrwt>0</asrwt>
<pdfrwt beam="2">  1        2 0.36886844E-01 0.13217654E+03</pdfrwt>
<pdfrwt beam="1">  1       -2 0.12072866E-01 0.13217654E+03</pdfrwt>
<totfact> 0.64972846E+03</totfact>
</mgrwt>
</event>
<event>
 7    1  0.6387485E-006  0.1422349E+03  0.7546771E-02  0.1220842E+00
          2   -1    0    0  501    0  0.00000000000E+00  0.00000000000E+00  0.41394731124E+03  0.41394731124E+03  0.00000000000E+00 0. -1.
         -2   -1    0    0    0  501 -0.00000000000E+00 -0.00000000000E+00 -0.39856277680E+02  0.39856277680E+02  0.00000000000E+00 0.  1.
         23    2    1    2    0    0 -0.67750412839E+02 -0.39112236770E+01  0.22451600329E+03  0.26577849058E+03  0.12500141683E+03 0.  0.
          5    1    3    3  502    0 -0.69400702355E+02 -0.45474831961E+02  0.20159537669E+03  0.21805321307E+03  0.47000000000E+01 0.  1.
         -5    1    3    3    0  502  0.16502895161E+01  0.41563608284E+02  0.22920626600E+02  0.47725277504E+02  0.47000000000E+01 0.  1.
        -11    1    1    2    0    0  0.14017778549E+02 -0.29294967248E+02  0.86754856432E+01  0.33614837091E+02  0.00000000000E+00 0.  1.
         11    1    1    2    0    0  0.53732634290E+02  0.33206190925E+02  0.14089954462E+03  0.15441026125E+03  0.00000000000E+00 0. -1.
<mgrwt>
<rscale>  0 0.13456035E+03</rscale>
<asrwt>0</asrwt>
<pdfrwt beam="1">  1        2 0.63684199E-01 0.14223491E+03</pdfrwt>
<pdfrwt beam="2">  1       -2 0.61317353E-02 0.14223491E+03</pdfrwt>
<totfact> 0.10475687E+04</totfact>
</mgrwt>
</event>
<event>
 7    1  0.6387485E-006  0.1456612E+03  0.7546771E-02  0.1215273E+00
         -2   -1    0    0    0  501 -0.00000000000E+00  0.00000000000E+00  0.26917293264E+02  0.26917293264E+02  0.00000000000E+00 0.  1.
          2   -1    0    0  501    0  0.00000000000E+00 -0.00000000000E+00 -0.67044534569E+03  0.67044534569E+03  0.00000000000E+00 0. -1.
         23    2    1    2    0    0  0.81253746345E+01  0.74332894216E+02 -0.29529274700E+03  0.32926432084E+03  0.12500314264E+03 0.  0.
          5    1    3    3  502    0  0.38523019787E+02 -0.12131145071E+02 -0.16473650984E+03  0.16968027407E+03  0.47000000000E+01 0.  1.
         -5    1    3    3    0  502 -0.30397645152E+02  0.86464039286E+02 -0.13055623716E+03  0.15958404676E+03  0.47000000000E+01 0.  1.
        -11    1    1    2    0    0 -0.34334143770E+02  0.22192012394E+01 -0.65159289815E+02  0.73685082152E+02  0.00000000000E+00 0.  1.
         11    1    1    2    0    0  0.26208769135E+02 -0.76552095455E+02 -0.28307601561E+03  0.29441323597E+03  0.00000000000E+00 0. -1.
<mgrwt>
<rscale>  0 0.13856482E+03</rscale>
<asrwt>0</asrwt>
<pdfrwt beam="2">  1        2 0.10314543E+00 0.14566120E+03</pdfrwt>
<pdfrwt beam="1">  1       -2 0.41411223E-02 0.14566120E+03</pdfrwt>
<totfact> 0.11063658E+04</totfact>
</mgrwt>
</event>
<event>
 7    1  0.6387485E-006  0.1339063E+03  0.7546771E-02  0.1229245E+00
         -3   -1    0    0    0  501 -0.00000000000E+00  0.00000000000E+00  0.43806880408E+03  0.43806880408E+03  0.00000000000E+00 0.  1.
          3   -1    0    0  501    0  0.00000000000E+00 -0.00000000000E+00 -0.44021203245E+02  0.44021203245E+02  0.00000000000E+00 0. -1.
         23    2    1    2    0    0 -0.22511377255E+02 -0.42426883180E+02  0.31659675216E+03  0.34375049760E+03  0.12499639434E+03 0.  0.
          5    1    3    3  502    0 -0.41450067246E+02  0.25993284961E+02  0.60473626770E+02  0.77928868031E+02  0.47000000000E+01 0.  1.
         -5    1    3    3    0  502  0.18938689991E+02 -0.68420168141E+02  0.25612312539E+03  0.26582162957E+03  0.47000000000E+01 0.  1.
        -11    1    1    2    0    0 -0.25898194595E+02 -0.20983083702E+02  0.33499364576E+02  0.47256890629E+02  0.00000000000E+00 0. -1.
         11    1    1    2    0    0  0.48409571850E+02  0.63409966882E+02  0.43951484094E+02  0.91082619092E+02  0.00000000000E+00 0.  1.
<mgrwt>
<rscale>  0 0.12880178E+03</rscale>
<asrwt>0</asrwt>
<pdfrwt beam="2">  1        3 0.67724931E-02 0.13390631E+03</pdfrwt>
<pdfrwt beam="1">  1       -3 0.67395198E-01 0.13390631E+03</pdfrwt>
<totfact> 0.69702821E+02</totfact>
</mgrwt>
</event>
<event>
 7    1  0.6387485E-006  0.1376986E+03  0.7546771E-02  0.1228187E+00
         -1   -1    0    0    0  501 -0.00000000000E+00  0.00000000000E+00  0.66186727287E+02  0.66186727287E+02  0.00000000000E+00 0.  1.
          1   -1    0    0  501    0  0.00000000000E+00 -0.00000000000E+00 -0.23112045819E+03  0.23112045819E+03  0.00000000000E+00 0. -1.
         23    2    1    2    0    0  0.39923742661E+02  0.41725920516E+02 -0.74036254109E+02  0.15634025115E+03  0.12500379809E+03 0.  0.
          5    1    3    3  502    0  0.49442867453E+02  0.75394408350E+02 -0.21105762610E+02  0.92717081316E+02  0.47000000000E+01 0.  1.
         -5    1    3    3    0  502 -0.95191247924E+01 -0.33668487834E+02 -0.52930491499E+02  0.63623169837E+02  0.47000000000E+01 0.  1.
        -11    1    1    2    0    0 -0.43074570175E+02 -0.55296214756E+02 -0.10157656549E+03  0.12341348637E+03  0.00000000000E+00 0. -1.
         11    1    1    2    0    0  0.31508275142E+01  0.13570294240E+02  0.10679088692E+02  0.17553447954E+02  0.00000000000E+00 0.  1.
<mgrwt>
<rscale>  0 0.12950843E+03</rscale>
<asrwt>0</asrwt>
<pdfrwt beam="2">  1        1 0.35556993E-01 0.13769861E+03</pdfrwt>
<pdfrwt beam="1">  1       -1 0.10182574E-01 0.13769861E+03</pdfrwt>
<totfact> 0.68812352E+03</totfact>
</mgrwt>
</event>
<event>
 7    1  0.6387485E-006  0.2769270E+03  0.7546771E-02  0.1099916E+00
         -2   -1    0    0    0  501 -0.00000000000E+00  0.00000000000E+00  0.99811096869E+02  0.99811096869E+02  0.00000000000E+00 0.  1.
          2   -1    0    0  501    0  0.00000000000E+00 -0.00000000000E+00 -0.76250593224E+03  0.76250593224E+03  0.00000000000E+00 0. -1.
         23    2    1    2    0    0 -0.22228468283E+03  0.10793149831E+03 -0.23999728398E+03  0.36645227205E+03  0.12501553034E+03 0.  0.
          5    1    3    3  502    0 -0.15752728528E+03  0.39575329341E+02 -0.21391965867E+03  0.26863499896E+03  0.47000000000E+01 0.  1.
         -5    1    3    3    0  502 -0.64757397550E+02  0.68356168968E+02 -0.26077625310E+02  0.97817273093E+02  0.47000000000E+01 0.  1.
        -11    1    1    2    0    0  0.29475499067E+02 -0.29283042622E+02 -0.13126275335E+03  0.13768156031E+03  0.00000000000E+00 0. -1.
         11    1    1    2    0    0  0.19280918377E+03 -0.78648455687E+02 -0.29143479804E+03  0.35818319675E+03  0.00000000000E+00 0.  1.
<mgrwt>
<rscale>  0 0.27239688E+03</rscale>
<asrwt>0</asrwt>
<pdfrwt beam="2">  1        2 0.11730861E+00 0.27692701E+03</pdfrwt>
<pdfrwt beam="1">  1       -2 0.15355553E-01 0.27692701E+03</pdfrwt>
<totfact> 0.12426053E+03</totfact>
</mgrwt>
</event>
<event>
 7    1  0.6387485E-006  0.1313649E+03  0.7546771E-02  0.1238236E+00
         -1   -1    0    0    0  501 -0.00000000000E+00  0.00000000000E+00  0.47069874458E+02  0.47069874458E+02  0.00000000000E+00 0.  1.
          1   -1    0    0  501    0  0.00000000000E+00 -0.00000000000E+00 -0.29131702121E+03  0.29131702121E+03  0.00000000000E+00 0. -1.
         23    2    1    2    0    0 -0.84315022771E+01 -0.39494629120E+02 -0.11662702838E+03  0.17566619173E+03  0.12500332479E+03 0.  0.
          5    1    3    3  502    0 -0.54222627044E+02 -0.26209068458E+02 -0.13419540643E+02  0.61880389657E+02  0.47000000000E+01 0.  1.
         -5    1    3    3    0  502  0.45791124767E+02 -0.13285560662E+02 -0.10320748773E+03  0.11378580208E+03  0.47000000000E+01 0.  1.
        -11    1    1    2    0    0  0.32171302779E+02  0.55507353182E+02 -0.54453562575E+02  0.84150160171E+02  0.00000000000E+00 0.  1.
         11    1    1    2    0    0 -0.23739800502E+02 -0.16012724062E+02 -0.73166555804E+02  0.78570543768E+02  0.00000000000E+00 0. -1.
<mgrwt>
<rscale>  0 0.12299499E+03</rscale>
<asrwt>0</asrwt>
<pdfrwt beam="2">  1        1 0.44818003E-01 0.13136494E+03</pdfrwt>
<pdfrwt beam="1">  1       -1 0.72415191E-02 0.13136494E+03</pdfrwt>
<totfact> 0.86313637E+03</totfact>
</mgrwt>
</event>
<event>
 7    1  0.6387485E-006  0.1412732E+03  0.7546771E-02  0.1228310E+00
          2   -1    0    0  501    0  0.00000000000E+00  0.00000000000E+00  0.32256572495E+03  0.32256572495E+03  0.00000000000E+00 0. -1.
         -2   -1    0    0    0  501 -0.00000000000E+00 -0.00000000000E+00 -0.48580453648E+02  0.48580453648E+02  0.00000000000E+00 0.  1.
         23    2    1    2    0    0  0.50184743698E+02 -0.42603166272E+02  0.10885852647E+03  0.17834876835E+03  0.12499826443E+03 0.  0.
          5    1    3    3  502    0 -0.32155957897E+02 -0.29434800352E+02  0.77678599878E+02  0.89199035752E+02  0.47000000000E+01 0.  1.
         -5    1    3    3    0  502  0.82340701595E+02 -0.13168365919E+02  0.31179926595E+02  0.89149732600E+02  0.47000000000E+01 0.  1.
        -11    1    1    2    0    0 -0.11716095427E+01  0.29129905404E+02  0.12409041568E+03  0.12746903672E+03  0.00000000000E+00 0. -1.
         11    1    1    2    0    0 -0.49013134155E+02  0.13473260868E+02  0.41036329149E+02  0.65328373531E+02  0.00000000000E+00 0.  1.
<mgrwt>
<rscale>  0 0.12942586E+03</rscale>
<asrwt>0</asrwt>
<pdfrwt beam="1">  1        2 0.49625495E-01 0.14127316E+03</pdfrwt>
<pdfrwt beam="2">  1       -2 0.74739161E-02 0.14127316E+03</pdfrwt>
<totfact> 0.10092616E+04</totfact>
</mgrwt>
</event>
<event>
 7    1  0.6387485E-006  0.2386152E+03  0.7546771E-02  0.1123431E+00
          4   -1    0    0  501    0  0.00000000000E+00  0.00000000000E+00  0.53787269723E+03  0.53787269723E+03  0.00000000000E+00 0. -1.
         -4   -1    0    0    0  501 -0.00000000000E+00 -0.00000000000E+00 -0.10448031297E+03  0.10448031297E+03  0.00000000000E+00 0.  1.
         23    2    1    2    0    0  0.19896279631E+03  0.41548880531E+02  0.29680532845E+03  0.38082886418E+03  0.12499886803E+03 0.  0.
          5    1    3    3  502    0  0.15310023268E+03  0.50509817379E+02  0.12886246469E+03  0.20644260148E+03  0.47000000000E+01 0. -1.
         -5    1    3    3    0  502  0.45862563623E+02 -0.89609368478E+01  0.16794286375E+03  0.17438626270E+03  0.47000000000E+01 0. -1.
        -11    1    1    2    0    0 -0.89228741584E+02  0.16147141560E+02  0.23396499360E+02  0.93647715869E+02  0.00000000000E+00 0. -1.
         11    1    1    2    0    0 -0.10973405472E+03 -0.57696022091E+02  0.11319055646E+03  0.16787643016E+03  0.00000000000E+00 0.  1.
<mgrwt>
<rscale>  0 0.23461759E+03</rscale>
<asrwt>0</asrwt>
<pdfrwt beam="1">  1        4 0.82749644E-01 0.23861521E+03</pdfrwt>
<pdfrwt beam="2">  1       -4 0.16073895E-01 0.23861521E+03</pdfrwt>
<totfact> 0.79851574E+01</totfact>
</mgrwt>
</event>
<event>
 7    1  0.6387485E-006  0.1335188E+03  0.7546771E-02  0.1234200E+00
          1   -1    0    0  501    0  0.00000000000E+00  0.00000000000E+00  0.19630492627E+03  0.19630492627E+03  0.00000000000E+00 0. -1.
         -1   -1    0    0    0  501 -0.00000000000E+00 -0.00000000000E+00 -0.75435261705E+02  0.75435261705E+02  0.00000000000E+00 0.  1.
         23    2    1    2    0    0 -0.35730049324E+02 -0.30741519262E+02  0.39116519762E+02  0.13913080160E+03  0.12492237752E+03 0.  0.
          5    1    3    3  502    0  0.45667142489E+02 -0.22689363529E+02  0.99658987712E+01  0.52169955518E+02  0.47000000000E+01 0.  1.
         -5    1    3    3    0  502 -0.81397191813E+02 -0.80521557333E+01  0.29150620991E+02  0.86960846081E+02  0.47000000000E+01 0.  1.
        -11    1    1    2    0    0  0.42104481803E+02  0.60448736969E+02  0.62773812374E+02  0.96785271137E+02  0.00000000000E+00 0. -1.
         11    1    1    2    0    0 -0.63744324794E+01 -0.29707217707E+02  0.18979332434E+02  0.35824115243E+02  0.00000000000E+00 0.  1.
<mgrwt>
<rscale>  0 0.12555775E+03</rscale>
<asrwt>0</asrwt>
<pdfrwt beam="1">  1        1 0.30200758E-01 0.13351883E+03</pdfrwt>
<pdfrwt beam="2">  1       -1 0.11605425E-01 0.13351883E+03</pdfrwt>
<totfact> 0.68804114E+03</totfact>
</mgrwt>
</event>
<event>
 7    1  0.6387485E-006  0.1324347E+03  0.7546771E-02  0.1236450E+00
         -3   -1    0    0    0  501 -0.00000000000E+00  0.00000000000E+00  0.84088119987E+02  0.84088119987E+02  0.00000000000E+00 0.  1.
          3   -1    0    0  501    0  0.00000000000E+00 -0.00000000000E+00 -0.20276961893E+03  0.20276961893E+03  0.00000000000E+00 0. -1.
         23    2    1    2    0    0  0.41083714981E+02  0.15023257263E+02 -0.29439470952E+01  0.13246739696E+03  0.12500149815E+03 0.  0.
          5    1    3    3  502    0 -0.17197913518E+00  0.42327505077E+02 -0.48854137519E+02  0.64810986844E+02  0.47000000000E+01 0.  1.
         -5    1    3    3    0  502  0.41255694116E+02 -0.27304247814E+02  0.45910190424E+02  0.67656410121E+02  0.47000000000E+01 0.  1.
        -11    1    1    2    0    0 -0.35529018813E+02  0.19668105273E+02 -0.11190859279E+03  0.11904905998E+03  0.00000000000E+00 0. -1.
         11    1    1    2    0    0 -0.55546961677E+01 -0.34691362536E+02 -0.38289590654E+01  0.35341281976E+02  0.00000000000E+00 0.  1.
<mgrwt>
<rscale>  0 0.12412095E+03</rscale>
<asrwt>0</asrwt>
<pdfrwt beam="2">  1        3 0.31195326E-01 0.13243468E+03</pdfrwt>
<pdfrwt beam="1">  1       -3 0.12936634E-01 0.13243468E+03</pdfrwt>
<totfact> 0.10957226E+03</totfact>
</mgrwt>
</event>
<event>
 7    1  0.6387485E-006  0.1317554E+03  0.7546771E-02  0.1236962E+00
         -2   -1    0    0    0  501 -0.00000000000E+00  0.00000000000E+00  0.22572123918E+03  0.22572123918E+03  0.00000000000E+00 0.  1.
          2   -1    0    0  501    0  0.00000000000E+00 -0.00000000000E+00 -0.63908681634E+02  0.63908681634E+02  0.00000000000E+00 0. -1.
         23    2    1    2    0    0 -0.33692207017E+02 -0.24477268047E+02  0.12177228547E+03  0.17941005142E+03  0.12500070231E+03 0.  0.
          5    1    3    3  502    0  0.28362859444E+02 -0.36998005835E+02  0.58155860807E+01  0.47214566323E+02  0.47000000000E+01 0. -1.
         -5    1    3    3    0  502 -0.62055066461E+02  0.12520737788E+02  0.11595669938E+03  0.13219548510E+03  0.47000000000E+01 0. -1.
        -11    1    1    2    0    0  0.37452532358E+02 -0.18846046965E+02  0.50357364519E+02  0.65526558184E+02  0.00000000000E+00 0.  1.
         11    1    1    2    0    0 -0.37603253408E+01  0.43323315011E+02 -0.10317092439E+02  0.44693311207E+02  0.00000000000E+00 0. -1.
<mgrwt>
<rscale>  0 0.12379642E+03</rscale>
<asrwt>0</asrwt>
<pdfrwt beam="2">  1        2 0.98321050E-02 0.13175537E+03</pdfrwt>
<pdfrwt beam="1">  1       -2 0.34726344E-01 0.13175537E+03</pdfrwt>
<totfact> 0.48448991E+03</totfact>
</mgrwt>
</event>
<event>
 7    1  0.6387485E-006  0.1213246E+03  0.7546771E-02  0.1283682E+00
         -2   -1    0    0    0  501 -0.00000000000E+00  0.00000000000E+00  0.79903700393E+02  0.79903700393E+02  0.00000000000E+00 0.  1.
          2   -1    0    0  501    0  0.00000000000E+00 -0.00000000000E+00 -0.11866185530E+03  0.11866185530E+03  0.00000000000E+00 0. -1.
         23    2    1    2    0    0  0.37874035107E+02  0.26401990758E+02  0.16377552828E+02  0.12242498083E+03  0.11219689855E+03 0.  0.
          5    1    3    3  502    0 -0.25070153778E+02 -0.24470344564E+02  0.21193840825E+02  0.41213823682E+02  0.47000000000E+01 0. -1.
         -5    1    3    3    0  502  0.62944188885E+02  0.50872335322E+02 -0.48162879970E+01  0.81211157150E+02  0.47000000000E+01 0.  1.
        -11    1    1    2    0    0 -0.25343051574E+02 -0.14931298678E+02 -0.16017825868E+02  0.33493054337E+02  0.00000000000E+00 0. -1.
         11    1    1    2    0    0 -0.12530983533E+02 -0.11470692080E+02 -0.39117881872E+02  0.42647520529E+02  0.00000000000E+00 0.  1.
<mgrwt>
<rscale>  0 0.98406741E+02</rscale>
<asrwt>0</asrwt>
<pdfrwt beam="2">  1        2 0.18255670E-01 0.12132457E+03</pdfrwt>
<pdfrwt beam="1">  1       -2 0.12292877E-01 0.12132457E+03</pdfrwt>
<totfact> 0.13575881E+04</totfact>
</mgrwt>
</event>
<event>
 7    1  0.6387485E-006  0.1517050E+03  0.7546771E-02  0.1207219E+00
          4   -1    0    0  501    0  0.00000000000E+00  0.00000000000E+00  0.16369794193E+03  0.16369794193E+03  0.00000000000E+00 0.  1.
         -4   -1    0    0    0  501 -0.00000000000E+00 -0.00000000000E+00 -0.14428782077E+03  0.14428782077E+03  0.00000000000E+00 0. -1.
         23    2    1    2    0    0  0.63988353773E+02 -0.57423604360E+02 -0.55982255425E+02  0.16170471159E+03  0.12498968386E+03 0.  0.
          5    1    3    3  502    0  0.64606104138E+02  0.24287025319E+02 -0.18062271594E+02  0.71499258359E+02  0.47000000000E+01 0.  1.
         -5    1    3    3    0  502 -0.61775036531E+00 -0.81710629679E+02 -0.37919983832E+02  0.90205453226E+02  0.47000000000E+01 0.  1.
        -11    1    1    2    0    0  0.16074611765E+02 -0.10709144188E+02  0.56603624777E+01  0.20127558620E+02  0.00000000000E+00 0. -1.
         11    1    1    2    0    0 -0.80062965538E+02  0.68132748548E+02  0.69732014111E+02  0.12615349249E+03  0.00000000000E+00 0.  1.
<mgrwt>
<rscale>  0 0.14463926E+03</rscale>
<asrwt>0</asrwt>
<pdfrwt beam="1">  1        4 0.25184299E-01 0.15170498E+03</pdfrwt>
<pdfrwt beam="2">  1       -4 0.22198126E-01 0.15170498E+03</pdfrwt>
<totfact> 0.46733001E+02</totfact>
</mgrwt>
</event>
<event>
 7    1  0.6387485E-006  0.1387725E+03  0.7546771E-02  0.1225810E+00
         -1   -1    0    0    0  501 -0.00000000000E+00  0.00000000000E+00  0.13208921668E+03  0.13208921668E+03  0.00000000000E+00 0.  1.
          1   -1    0    0  501    0  0.00000000000E+00 -0.00000000000E+00 -0.12117356210E+03  0.12117356210E+03  0.00000000000E+00 0. -1.
         23    2    1    2    0    0 -0.37013165060E+02 -0.47494709943E+02  0.27404087967E+02  0.14145245504E+03  0.12502836134E+03 0.  0.
          5    1    3    3  502    0  0.30650298992E+02 -0.27518266575E+02  0.52076985514E+02  0.66564241480E+02  0.47000000000E+01 0. -1.
         -5    1    3    3    0  502 -0.67663464052E+02 -0.19976443368E+02 -0.24672897547E+02  0.74888213562E+02  0.47000000000E+01 0. -1.
        -11    1    1    2    0    0 -0.17740470475E+02  0.21286255821E+02 -0.38330373138E+02  0.47297425769E+02  0.00000000000E+00 0. -1.
         11    1    1    2    0    0  0.54753635535E+02  0.26208454123E+02  0.21841939754E+02  0.64512897966E+02  0.00000000000E+00 0.  1.
<mgrwt>
<rscale>  0 0.13111564E+03</rscale>
<asrwt>0</asrwt>
<pdfrwt beam="2">  1        1 0.18642086E-01 0.13877252E+03</pdfrwt>
<pdfrwt beam="1">  1       -1 0.20321418E-01 0.13877252E+03</pdfrwt>
<totfact> 0.52510096E+03</totfact>
</mgrwt>
</event>
<event>
 6    1  0.6387485E-006  0.1833820E+03  0.7546771E-02  0.1171312E+00
          2   -1    0    0  501    0  0.00000000000E+00  0.00000000000E+00  0.43391336515E+02  0.43391336515E+02  0.00000000000E+00 0. -1.
         -2   -1    0    0    0  501 -0.00000000000E+00 -0.00000000000E+00 -0.10535009524E+04  0.10535009524E+04  0.00000000000E+00 0.  1.
          5    1    1    2  502    0 -0.23382261304E+02 -0.37783936344E+02 -0.65877511549E+02  0.79600832391E+02  0.47000000000E+01 0. -1.
         -5    1    1    2    0  502 -0.94248791541E+02 -0.38589987514E+01 -0.79510041524E+03  0.80069000674E+03  0.47000000000E+01 0.  1.
        -11    1    1    2    0    0  0.10033835062E+02 -0.27321478207E+02 -0.31784612809E+02  0.43097594236E+02  0.00000000000E+00 0.  1.
         11    1    1    2    0    0  0.10759721778E+03  0.68964413303E+02 -0.11734707628E+03  0.17350385555E+03  0.00000000000E+00 0. -1.
<mgrwt>
<rscale>  0 0.17642161E+03</rscale>
<asrwt>0</asrwt>
<pdfrwt beam="1">  1        2 0.66755901E-02 0.18338204E+03</pdfrwt>
<pdfrwt beam="2">  1       -2 0.16207707E+00 0.18338204E+03</pdfrwt>
<totfact> 0.27672643E+02</totfact>
</mgrwt>
</event>
<event>
 6    1  0.6387485E-006  0.2096575E+03  0.7546771E-02  0.1149836E+00
          2   -1    0    0  501    0  0.00000000000E+00  0.00000000000E+00  0.30154432367E+02  0.30154432367E+02  0.00000000000E+00 0. -1.
         -2   -1    0    0    0  501 -0.00000000000E+00 -0.00000000000E+00 -0.14192324005E+04  0.14192324005E+04  0.00000000000E+00 0.  1.
          5    1    1    2  502    0 -0.52006556352E+02  0.26774425481E+02 -0.11293873991E+03  0.12727450937E+03  0.47000000000E+01 0. -1.
         -5    1    1    2    0  502 -0.77104390790E+02 -0.81534535111E+02 -0.91182200230E+03  0.91871345988E+03  0.47000000000E+01 0.  1.
        -11    1    1    2    0    0  0.13343045986E+03  0.73716675985E+02 -0.30494261302E+03  0.34092203386E+03  0.00000000000E+00 0. -1.
         11    1    1    2    0    0 -0.43195127186E+01 -0.18956566355E+02 -0.59374612921E+02  0.62476829766E+02  0.00000000000E+00 0.  1.
<mgrwt>
<rscale>  0 0.19988464E+03</rscale>
<asrwt>0</asrwt>
<pdfrwt beam="1">  1        2 0.46391450E-02 0.20965747E+03</pdfrwt>
<pdfrwt beam="2">  1       -2 0.21834337E+00 0.20965747E+03</pdfrwt>
<totfact> 0.19234086E+02</totfact>
</mgrwt>
</event>
<event>
 7    1  0.6387485E-006  0.1403112E+03  0.7546771E-02  0.1248366E+00
         -1   -1    0    0    0  501 -0.00000000000E+00  0.00000000000E+00  0.86587973354E+02  0.86587973354E+02  0.00000000000E+00 0.  1.
          1   -1    0    0  501    0  0.00000000000E+00 -0.00000000000E+00 -0.13500183122E+03  0.13500183122E+03  0.00000000000E+00 0. -1.
         23    2    1    2    0    0  0.13693261915E+02  0.62263983315E+02 -0.32299640409E+01  0.14034839234E+03  0.12499171783E+03 0.  0.
          5    1    3    3  502    0  0.69183357017E+01  0.93081235678E+02 -0.30575667854E+02  0.98330774781E+02  0.47000000000E+01 0. -1.
         -5    1    3    3    0  502  0.67749262135E+01 -0.30817252363E+02  0.27345703813E+02  0.42017617560E+02  0.47000000000E+01 0. -1.
        -11    1    1    2    0    0 -0.15592225471E+02 -0.35544110395E+02 -0.35957415199E+02  0.52909705979E+02  0.00000000000E+00 0.  1.
         11    1    1    2    0    0  0.18989635561E+01 -0.26719872920E+02 -0.92264786246E+01  0.28331706254E+02  0.00000000000E+00 0. -1.
<mgrwt>
<rscale>  0 0.11686192E+03</rscale>
<asrwt>0</asrwt>
<pdfrwt beam="2">  1        1 0.20769512E-01 0.14031122E+03</pdfrwt>
<pdfrwt beam="1">  1       -1 0.13321227E-01 0.14031122E+03</pdfrwt>
<totfact> 0.89259207E+03</totfact>
</mgrwt>
</event>
<event>
 7    1  0.6387485E-006  0.1907827E+03  0.7546771E-02  0.1162685E+00
          1   -1    0    0  501    0  0.00000000000E+00  0.00000000000E+00  0.14622565593E+03  0.14622565593E+03  0.00000000000E+00 0. -1.
         -1   -1    0    0    0  501 -0.00000000000E+00 -0.00000000000E+00 -0.22323408243E+03  0.22323408243E+03  0.00000000000E+00 0.  1.
         23    2    1    2    0    0 -0.68726175497E+02 -0.12670073645E+03 -0.49879274828E+02  0.19719526431E+03  0.12498666485E+03 0.  0.
          5    1    3    3  502    0 -0.97156717001E+02 -0.95591961358E+02 -0.65017245852E+01  0.13653429297E+03  0.47000000000E+01 0. -1.
         -5    1    3    3    0  502  0.28430541504E+02 -0.31108775094E+02 -0.43377550243E+02  0.60660971334E+02  0.47000000000E+01 0. -1.
        -11    1    1    2    0    0  0.83823198778E+01  0.52005855040E+02 -0.50996860906E+02  0.73318156463E+02  0.00000000000E+00 0.  1.
         11    1    1    2    0    0  0.60343855619E+02  0.74694881412E+02  0.23867709241E+02  0.98946317589E+02  0.00000000000E+00 0. -1.
<mgrwt>
<rscale>  0 0.18539147E+03</rscale>
<asrwt>0</asrwt>
<pdfrwt beam="1">  1        1 0.22496255E-01 0.19078268E+03</pdfrwt>
<pdfrwt beam="2">  1       -1 0.34343705E-01 0.19078268E+03</pdfrwt>
<totfact> 0.17519621E+03</totfact>
</mgrwt>
</event>
<event>
 7    1  0.6387485E-006  0.1428274E+03  0.7546771E-02  0.1215900E+00
          3   -1    0    0  501    0  0.00000000000E+00  0.00000000000E+00  0.41393566467E+03  0.41393566467E+03  0.00000000000E+00 0. -1.
         -3   -1    0    0    0  501 -0.00000000000E+00 -0.00000000000E+00 -0.65934596254E+02  0.65934596254E+02  0.00000000000E+00 0.  1.
         23    2    1    2    0    0  0.47464401067E+02  0.50213772752E+02  0.41224642666E+02  0.14865774214E+03  0.12500144316E+03 0.  0.
          5    1    3    3  502    0 -0.21891342440E+02  0.12051787490E+02  0.61718584829E+02  0.66751405744E+02  0.47000000000E+01 0. -1.
         -5    1    3    3    0  502  0.69355743507E+02  0.38161985263E+02 -0.20493942164E+02  0.81906336397E+02  0.47000000000E+01 0. -1.
        -11    1    1    2    0    0 -0.72389753237E+02 -0.58931204349E+02  0.19267332821E+03  0.21409384537E+03  0.00000000000E+00 0.  1.
         11    1    1    2    0    0  0.24925352169E+02  0.87174315969E+01  0.11410309754E+03  0.11711867342E+03  0.00000000000E+00 0. -1.
<mgrwt>
<rscale>  0 0.13810651E+03</rscale>
<asrwt>0</asrwt>
<pdfrwt beam="1">  1        3 0.63682408E-01 0.14282735E+03</pdfrwt>
<pdfrwt beam="2">  1       -3 0.10143784E-01 0.14282735E+03</pdfrwt>
<totfact> 0.41005478E+02</totfact>
</mgrwt>
</event>
<event>
 7    1  0.6387485E-006  0.1810098E+03  0.7546771E-02  0.1170285E+00
          2   -1    0    0  501    0  0.00000000000E+00  0.00000000000E+00  0.53476386847E+03  0.53476386847E+03  0.00000000000E+00 0. -1.
         -2   -1    0    0    0  501 -0.00000000000E+00 -0.00000000000E+00 -0.63013834390E+02  0.63013834390E+02  0.00000000000E+00 0.  1.
         23    2    1    2    0    0 -0.11757478369E+03  0.57609435799E+02  0.14966186076E+03  0.23486850664E+03  0.12498746334E+03 0.  0.
          5    1    3    3  502    0 -0.11944196926E+03 -0.32336805413E+01  0.10615982098E+03  0.15990259003E+03  0.47000000000E+01 0.  1.
         -5    1    3    3    0  502  0.18671855610E+01  0.60843116340E+02  0.43502039783E+02  0.74965916610E+02  0.47000000000E+01 0.  1.
        -11    1    1    2    0    0  0.27411253023E+02 -0.41187004763E+02  0.22096296253E+03  0.22643404551E+03  0.00000000000E+00 0. -1.
         11    1    1    2    0    0  0.90163530671E+02 -0.16422431036E+02  0.10112521079E+03  0.13647515071E+03  0.00000000000E+00 0.  1.
<mgrwt>
<rscale>  0 0.17745905E+03</rscale>
<asrwt>0</asrwt>
<pdfrwt beam="1">  1        2 0.82271361E-01 0.18100979E+03</pdfrwt>
<pdfrwt beam="2">  1       -2 0.96944364E-02 0.18100979E+03</pdfrwt>
<totfact> 0.39463851E+03</totfact>
</mgrwt>
</event>
<event>
 7    1  0.6387485E-006  0.1277475E+03  0.7546771E-02  0.1245472E+00
          2   -1    0    0  501    0  0.00000000000E+00  0.00000000000E+00  0.11779614202E+03  0.11779614202E+03  0.00000000000E+00 0. -1.
         -2   -1    0    0    0  501 -0.00000000000E+00 -0.00000000000E+00 -0.11527536555E+03  0.11527536555E+03  0.00000000000E+00 0.  1.
         23    2    1    2    0    0  0.23585073104E+00  0.26354518777E+02 -0.32802494772E+02  0.13189174075E+03  0.12499924532E+03 0.  0.
          5    1    3    3  502    0 -0.34903171835E+02  0.60788010790E+02 -0.41668751628E+02  0.81681016902E+02  0.47000000000E+01 0. -1.
         -5    1    3    3    0  502  0.35139022566E+02 -0.34433492013E+02  0.88662568559E+01  0.50210723853E+02  0.47000000000E+01 0. -1.
        -11    1    1    2    0    0 -0.16698088084E+02  0.21840319096E+02 -0.13500558894E+02  0.30628267570E+02  0.00000000000E+00 0.  1.
         11    1    1    2    0    0  0.16462237353E+02 -0.48194837873E+02  0.48823830132E+02  0.70551499240E+02  0.00000000000E+00 0. -1.
<mgrwt>
<rscale>  0 0.11857195E+03</rscale>
<asrwt>0</asrwt>
<pdfrwt beam="1">  1        2 0.18122484E-01 0.12774752E+03</pdfrwt>
<pdfrwt beam="2">  1       -2 0.17734671E-01 0.12774752E+03</pdfrwt>
<totfact> 0.75701853E+03</totfact>
</mgrwt>
</event>
<event>
 7    1  0.6387485E-006  0.1476663E+03  0.7546771E-02  0.1213585E+00
          1   -1    0    0  501    0  0.00000000000E+00  0.00000000000E+00  0.21167878000E+03  0.21167878000E+03  0.00000000000E+00 0. -1.
         -1   -1    0    0    0  501 -0.00000000000E+00 -0.00000000000E+00 -0.13505788013E+03  0.13505788013E+03  0.00000000000E+00 0.  1.
         23    2    1    2    0    0  0.59632156544E+02  0.51209419222E+02 -0.65543308516E+02  0.16155884974E+03  0.12500775147E+03 0.  0.
          5    1    3    3  502    0  0.35358340680E+02  0.17844831413E+02  0.34819044040E+02  0.52944367893E+02  0.47000000000E+01 0. -1.
         -5    1    3    3    0  502  0.24273815864E+02  0.33364587809E+02 -0.10036235256E+03  0.10861448185E+03  0.47000000000E+01 0. -1.
        -11    1    1    2    0    0  0.14471921288E+02 -0.26565410623E+02  0.10362460360E+02  0.31977150155E+02  0.00000000000E+00 0.  1.
         11    1    1    2    0    0 -0.74104077832E+02 -0.24644008599E+02  0.13180174803E+03  0.15320066023E+03  0.00000000000E+00 0. -1.
<mgrwt>
<rscale>  0 0.13980960E+03</rscale>
<asrwt>0</asrwt>
<pdfrwt beam="1">  1        1 0.32565966E-01 0.14766630E+03</pdfrwt>
<pdfrwt beam="2">  1       -1 0.20778135E-01 0.14766630E+03</pdfrwt>
<totfact> 0.25185116E+03</totfact>
</mgrwt>
</event>
<event>
 7    1  0.6387485E-006  0.1886243E+03  0.7546771E-02  0.1165303E+00
          1   -1    0    0  501    0  0.00000000000E+00  0.00000000000E+00  0.28937737571E+03  0.28937737571E+03  0.00000000000E+00 0. -1.
         -1   -1    0    0    0  501 -0.00000000000E+00 -0.00000000000E+00 -0.11148401592E+03  0.11148401592E+03  0.00000000000E+00 0.  1.
         23    2    1    2    0    0 -0.12033969542E+03 -0.73973594754E+02  0.61566936061E+02  0.19841777700E+03  0.12500156639E+03 0.  0.
          5    1    3    3  502    0 -0.81241475630E+02 -0.75346683437E+02 -0.15384394012E+02  0.11196459104E+03  0.47000000000E+01 0.  1.
         -5    1    3    3    0  502 -0.39098219789E+02  0.13730886829E+01  0.76951330073E+02  0.86453185963E+02  0.47000000000E+01 0.  1.
        -11    1    1    2    0    0  0.17531206053E+02 -0.15224869735E+02  0.40377432890E+02  0.46577644111E+02  0.00000000000E+00 0.  1.
         11    1    1    2    0    0  0.10280848937E+03  0.89198464489E+02  0.75948990839E+02  0.15586597051E+03  0.00000000000E+00 0. -1.
<mgrwt>
<rscale>  0 0.18260773E+03</rscale>
<asrwt>0</asrwt>
<pdfrwt beam="1">  1        1 0.44519596E-01 0.18862430E+03</pdfrwt>
<pdfrwt beam="2">  1       -1 0.17151387E-01 0.18862430E+03</pdfrwt>
<totfact> 0.23427833E+03</totfact>
</mgrwt>
</event>
<event>
 7    1  0.6387485E-006  0.1454409E+03  0.7546771E-02  0.1217194E+00
         -1   -1    0    0    0  501 -0.00000000000E+00  0.00000000000E+00  0.43586115619E+02  0.43586115619E+02  0.00000000000E+00 0.  1.
          1   -1    0    0  501    0  0.00000000000E+00 -0.00000000000E+00 -0.38934574817E+03  0.38934574817E+03  0.00000000000E+00 0. -1.
         23    2    1    2    0    0  0.20426215190E+02 -0.71366253541E+02 -0.18945682991E+03  0.23884501169E+03  0.12507068721E+03 0.  0.
          5    1    3    3  502    0  0.52242472827E+02 -0.64757054644E+02 -0.53618373607E+02  0.99094763139E+02  0.47000000000E+01 0. -1.
         -5    1    3    3    0  502 -0.31816257637E+02 -0.66091988970E+01 -0.13583845630E+03  0.13975024855E+03  0.47000000000E+01 0. -1.
        -11    1    1    2    0    0 -0.12188481979E+02  0.33845139087E+02 -0.15109793517E+03  0.15532108210E+03  0.00000000000E+00 0. -1.
         11    1    1    2    0    0 -0.82377332114E+01  0.37521114454E+02 -0.52048674773E+01  0.38765770002E+02  0.00000000000E+00 0.  1.
<mgrwt>
<rscale>  0 0.13716627E+03</rscale>
<asrwt>0</asrwt>
<pdfrwt beam="2">  1        1 0.59899347E-01 0.14544088E+03</pdfrwt>
<pdfrwt beam="1">  1       -1 0.67055562E-02 0.14544088E+03</pdfrwt>
<totfact> 0.67942245E+03</totfact>
</mgrwt>
</event>
<event>
 7    1  0.6387485E-006  0.1260118E+03  0.7546771E-02  0.1248944E+00
          3   -1    0    0  501    0  0.00000000000E+00  0.00000000000E+00  0.23792187733E+02  0.23792187733E+02  0.00000000000E+00 0. -1.
         -3   -1    0    0    0  501 -0.00000000000E+00 -0.00000000000E+00 -0.50970691825E+03  0.50970691825E+03  0.00000000000E+00 0.  1.
         23    2    1    2    0    0  0.94298845493E+01  0.12890254988E+02 -0.31626685625E+03  0.34044632949E+03  0.12499558993E+03 0.  0.
          5    1    3    3  502    0  0.17272477456E+01 -0.49528887207E+02 -0.21852346079E+03  0.22412203588E+03  0.47000000000E+01 0.  1.
         -5    1    3    3    0  502  0.77026368036E+01  0.62419142195E+02 -0.97743395459E+02  0.11632429360E+03  0.47000000000E+01 0.  1.
        -11    1    1    2    0    0  0.38860181896E+02  0.31023738890E+01 -0.52979089626E+02  0.65776305752E+02  0.00000000000E+00 0.  1.
         11    1    1    2    0    0 -0.48290066446E+02 -0.15992628877E+02 -0.11666878465E+03  0.12727647075E+03  0.00000000000E+00 0. -1.
<mgrwt>
<rscale>  0 0.11652399E+03</rscale>
<asrwt>0</asrwt>
<pdfrwt beam="1">  1        3 0.36603371E-02 0.12601182E+03</pdfrwt>
<pdfrwt beam="2">  1       -3 0.78416438E-01 0.12601182E+03</pdfrwt>
<totfact> 0.13221051E+03</totfact>
</mgrwt>
</event>
<event>
 7    1  0.6387485E-006  0.1360123E+03  0.7546771E-02  0.1232019E+00
         -1   -1    0    0    0  501 -0.00000000000E+00  0.00000000000E+00  0.14526588590E+03  0.14526588590E+03  0.00000000000E+00 0.  1.
          1   -1    0    0  501    0  0.00000000000E+00 -0.00000000000E+00 -0.10664551468E+03  0.10664551468E+03  0.00000000000E+00 0. -1.
         23    2    1    2    0    0  0.13923839119E+02  0.51751418837E+02  0.56127936537E+02  0.14713830049E+03  0.12500900593E+03 0.  0.
          5    1    3    3  502    0  0.44015384331E+02 -0.19711561283E+02 -0.44050287704E+01  0.48655873072E+02  0.47000000000E+01 0. -1.
         -5    1    3    3    0  502 -0.30091545212E+02  0.71462980120E+02  0.60532965308E+02  0.98482427417E+02  0.47000000000E+01 0. -1.
        -11    1    1    2    0    0  0.15499719813E+02 -0.46478342618E+02 -0.43227854064E+02  0.65338541564E+02  0.00000000000E+00 0. -1.
         11    1    1    2    0    0 -0.29423558932E+02 -0.52730762193E+01  0.25720288745E+02  0.39434558526E+02  0.00000000000E+00 0.  1.
<mgrwt>
<rscale>  0 0.12697219E+03</rscale>
<asrwt>0</asrwt>
<pdfrwt beam="2">  1        1 0.16407002E-01 0.13601226E+03</pdfrwt>
<pdfrwt beam="1">  1       -1 0.22348598E-01 0.13601226E+03</pdfrwt>
<totfact> 0.52977919E+03</totfact>
</mgrwt>
</event>
<event>
 6    1  0.6387485E-006  0.4219484E+03  0.7546771E-02  0.1066213E+00
         -2   -1    0    0    0  501 -0.00000000000E+00  0.00000000000E+00  0.12455184474E+03  0.12455184474E+03  0.00000000000E+00 0.  1.
          2   -1    0    0  501    0  0.00000000000E+00 -0.00000000000E+00 -0.81458116353E+03  0.81458116353E+03  0.00000000000E+00 0. -1.
          5    1    1    2  502    0  0.33692494286E+02 -0.20358271935E+03 -0.37209815779E+03  0.42551173523E+03  0.47000000000E+01 0. -1.
         -5    1    1    2    0  502 -0.81520544117E+02  0.56740047443E+02  0.44247996078E+02  0.10883477043E+03  0.47000000000E+01 0.  1.
        -11    1    1    2    0    0 -0.14280967215E+02  0.43704931173E+02 -0.18461561142E+03  0.19025506830E+03  0.00000000000E+00 0. -1.
         11    1    1    2    0    0  0.62109017045E+02  0.10313774073E+03 -0.17756354567E+03  0.21453143432E+03  0.00000000000E+00 0.  1.
<mgrwt>
<rscale>  0 0.34137135E+03</rscale>
<asrwt>0</asrwt>
<pdfrwt beam="2">  1        2 0.12532018E+00 0.42194841E+03</pdfrwt>
<pdfrwt beam="1">  1       -2 0.19161823E-01 0.42194841E+03</pdfrwt>
<totfact> 0.78270688E+02</totfact>
</mgrwt>
</event>
<event>
 7    1  0.6387485E-006  0.1306288E+03  0.7546771E-02  0.1241661E+00
         -4   -1    0    0    0  501 -0.00000000000E+00  0.00000000000E+00  0.19606229968E+03  0.19606229968E+03  0.00000000000E+00 0.  1.
          4   -1    0    0  501    0  0.00000000000E+00 -0.00000000000E+00 -0.66609527084E+02  0.66609527084E+02  0.00000000000E+00 0. -1.
         23    2    1    2    0    0 -0.37926446335E+02 -0.15698620400E+01  0.92309322012E+02  0.15995280927E+03  0.12499204160E+03 0.  0.
          5    1    3    3  502    0  0.34195257279E+02  0.35196867092E+02  0.30217865945E+02  0.57821661129E+02  0.47000000000E+01 0. -1.
         -5    1    3    3    0  502 -0.72121703613E+02 -0.36766729132E+02  0.62091456067E+02  0.10213114814E+03  0.47000000000E+01 0. -1.
        -11    1    1    2    0    0  0.28909598895E+02  0.29199975038E+02  0.54964847348E+02  0.68626072994E+02  0.00000000000E+00 0.  1.
         11    1    1    2    0    0  0.90168474394E+01 -0.27630112998E+02 -0.17821396767E+02  0.34092944501E+02  0.00000000000E+00 0. -1.
<mgrwt>
<rscale>  0 0.12087450E+03</rscale>
<asrwt>0</asrwt>
<pdfrwt beam="2">  1        4 0.10247620E-01 0.13062883E+03</pdfrwt>
<pdfrwt beam="1">  1       -4 0.30163430E-01 0.13062883E+03</pdfrwt>
<totfact> 0.12524349E+03</totfact>
</mgrwt>
</event>
<event>
 7    1  0.6387485E-006  0.1508668E+03  0.7546771E-02  0.1208296E+00
         -1   -1    0    0    0  501 -0.00000000000E+00  0.00000000000E+00  0.13766797422E+03  0.13766797422E+03  0.00000000000E+00 0.  1.
          1   -1    0    0  501    0  0.00000000000E+00 -0.00000000000E+00 -0.17625679129E+03  0.17625679129E+03  0.00000000000E+00 0. -1.
         23    2    1    2    0    0  0.75669235290E+02  0.37535156126E+02  0.52369995675E+02  0.15969789564E+03  0.12500432117E+03 0.  0.
          5    1    3    3  502    0  0.90771757822E+02  0.39730784350E+02  0.80233104518E+02  0.12758326028E+03  0.47000000000E+01 0.  1.
         -5    1    3    3    0  502 -0.15102522532E+02 -0.21956282245E+01 -0.27863108844E+02  0.32114635364E+02  0.47000000000E+01 0.  1.
        -11    1    1    2    0    0 -0.77405283212E+02  0.62549546369E+01 -0.73896874856E+02  0.10719818301E+03  0.00000000000E+00 0.  1.
         11    1    1    2    0    0  0.17360479220E+01 -0.43790110763E+02 -0.17061937883E+02  0.47028686855E+02  0.00000000000E+00 0. -1.
<mgrwt>
<rscale>  0 0.14380708E+03</rscale>
<asrwt>0</asrwt>
<pdfrwt beam="2">  1        1 0.27116429E-01 0.15086683E+03</pdfrwt>
<pdfrwt beam="1">  1       -1 0.21179689E-01 0.15086683E+03</pdfrwt>
<totfact> 0.30715982E+03</totfact>
</mgrwt>
</event>
<event>
 7    1  0.6387485E-006  0.1306082E+03  0.7546771E-02  0.1240467E+00
          2   -1    0    0  501    0  0.00000000000E+00  0.00000000000E+00  0.53413134078E+03  0.53413134078E+03  0.00000000000E+00 0. -1.
         -2   -1    0    0    0  501 -0.00000000000E+00 -0.00000000000E+00 -0.24540383554E+02  0.24540383554E+02  0.00000000000E+00 0.  1.
         23    2    1    2    0    0 -0.26074284788E+02 -0.27452170822E+02  0.30267164557E+03  0.32964925854E+03  0.12500007444E+03 0.  0.
          5    1    3    3  502    0 -0.47904127883E+02 -0.55626153191E+02  0.10185882254E+03  0.12564387815E+03  0.47000000000E+01 0. -1.
         -5    1    3    3    0  502  0.21829843095E+02  0.28173982369E+02  0.20081282303E+03  0.20400538039E+03  0.47000000000E+01 0. -1.
        -11    1    1    2    0    0 -0.25112694044E+02  0.37637232192E+02  0.82337481766E+02  0.93950356853E+02  0.00000000000E+00 0.  1.
         11    1    1    2    0    0  0.51186978832E+02 -0.10185061370E+02  0.12458182988E+03  0.13507210894E+03  0.00000000000E+00 0. -1.
<mgrwt>
<rscale>  0 0.12160831E+03</rscale>
<asrwt>0</asrwt>
<pdfrwt beam="1">  1        2 0.82174044E-01 0.13060823E+03</pdfrwt>
<pdfrwt beam="2">  1       -2 0.37754440E-02 0.13060823E+03</pdfrwt>
<totfact> 0.16314237E+04</totfact>
</mgrwt>
</event>
<event>
 7    1  0.6387485E-006  0.1519085E+03  0.7546771E-02  0.1207030E+00
          3   -1    0    0  501    0  0.00000000000E+00  0.00000000000E+00  0.36175100358E+03  0.36175100358E+03  0.00000000000E+00 0. -1.
         -3   -1    0    0    0  501 -0.00000000000E+00 -0.00000000000E+00 -0.57883390911E+02  0.57883390911E+02  0.00000000000E+00 0.  1.
         23    2    1    2    0    0 -0.18899685586E+02  0.84228254350E+02  0.10540687893E+03  0.18489670907E+03  0.12499834380E+03 0.  0.
          5    1    3    3  502    0  0.67841788886E+01  0.60838394827E+02 -0.11835397631E+02  0.62526010631E+02  0.47000000000E+01 0. -1.
         -5    1    3    3    0  502 -0.25683864475E+02  0.23389859522E+02  0.11724227656E+03  0.12237069843E+03  0.47000000000E+01 0. -1.
        -11    1    1    2    0    0 -0.94572989678E+01 -0.87338418058E+02  0.18125919326E+03  0.20142575534E+03  0.00000000000E+00 0. -1.
         11    1    1    2    0    0  0.28356984554E+02  0.31101637084E+01  0.17201540486E+02  0.33311930091E+02  0.00000000000E+00 0.  1.
<mgrwt>
<rscale>  0 0.14478588E+03</rscale>
<asrwt>0</asrwt>
<pdfrwt beam="1">  1        3 0.55653999E-01 0.15190847E+03</pdfrwt>
<pdfrwt beam="2">  1       -3 0.89051373E-02 0.15190847E+03</pdfrwt>
<totfact> 0.67661790E+02</totfact>
</mgrwt>
</event>
<event>
 7    1  0.6387485E-006  0.1529441E+03  0.7546771E-02  0.1205579E+00
         -3   -1    0    0    0  501 -0.00000000000E+00  0.00000000000E+00  0.66450922661E+02  0.66450922661E+02  0.00000000000E+00 0.  1.
          3   -1    0    0  501    0  0.00000000000E+00 -0.00000000000E+00 -0.42090024799E+03  0.42090024799E+03  0.00000000000E+00 0. -1.
         23    2    1    2    0    0 -0.18915498904E+02  0.86077331729E+02 -0.55586153313E+02  0.16273202957E+03  0.12499915948E+03 0.  0.
          5    1    3    3  502    0 -0.46401072263E+02  0.97896420792E+02 -0.70125119739E+02  0.12913710206E+03  0.47000000000E+01 0. -1.
         -5    1    3    3    0  502  0.27485573360E+02 -0.11819089062E+02  0.14538966426E+02  0.33594927502E+02  0.47000000000E+01 0. -1.
        -11    1    1    2    0    0 -0.65524557151E+01 -0.52586806798E+02 -0.26601172062E+03  0.27123890287E+03  0.00000000000E+00 0. -1.
         11    1    1    2    0    0  0.25467954619E+02 -0.33490524931E+02 -0.32851451399E+02  0.53380238213E+02  0.00000000000E+00 0.  1.
<mgrwt>
<rscale>  0 0.14591914E+03</rscale>
<asrwt>0</asrwt>
<pdfrwt beam="2">  1        3 0.64753884E-01 0.15294408E+03</pdfrwt>
<pdfrwt beam="1">  1       -3 0.10223219E-01 0.15294408E+03</pdfrwt>
<totfact> 0.39453974E+02</totfact>
</mgrwt>
</event>
<event>
 7    1  0.6387485E-006  0.1684688E+03  0.7546771E-02  0.1185762E+00
         -4   -1    0    0    0  501 -0.00000000000E+00  0.00000000000E+00  0.43164052060E+03  0.43164052060E+03  0.00000000000E+00 0.  1.
          4   -1    0    0  501    0  0.00000000000E+00 -0.00000000000E+00 -0.60770600552E+02  0.60770600552E+02  0.00000000000E+00 0. -1.
         23    2    1    2    0    0 -0.36965857989E+02 -0.10672521157E+03  0.25577443109E+03  0.30627158190E+03  0.12499990735E+03 0.  0.
          5    1    3    3  502    0 -0.68243782948E+02 -0.10451366179E+03  0.14665856906E+03  0.19264253240E+03  0.47000000000E+01 0. -1.
         -5    1    3    3    0  502  0.31277924960E+02 -0.22115497773E+01  0.10911586203E+03  0.11362904949E+03  0.47000000000E+01 0. -1.
        -11    1    1    2    0    0 -0.39943008139E+01  0.64402271755E+02  0.94899143547E+01  0.65220131253E+02  0.00000000000E+00 0. -1.
         11    1    1    2    0    0  0.40960158803E+02  0.42322939817E+02  0.10560557461E+03  0.12091940800E+03  0.00000000000E+00 0.  1.
<mgrwt>
<rscale>  0 0.16262738E+03</rscale>
<asrwt>0</asrwt>
<pdfrwt beam="2">  1        4 0.93493234E-02 0.16846876E+03</pdfrwt>
<pdfrwt beam="1">  1       -4 0.66406232E-01 0.16846876E+03</pdfrwt>
<totfact> 0.31434538E+02</totfact>
</mgrwt>
</event>
<event>
 7    1  0.6387485E-006  0.1307909E+03  0.7546771E-02  0.1238040E+00
          2   -1    0    0  501    0  0.00000000000E+00  0.00000000000E+00  0.14240451828E+03  0.14240451828E+03  0.00000000000E+00 0. -1.
         -2   -1    0    0    0  501 -0.00000000000E+00 -0.00000000000E+00 -0.11038105110E+03  0.11038105110E+03  0.00000000000E+00 0.  1.
         23    2    1    2    0    0  0.32369848690E+02 -0.20837907395E+02 -0.28111884115E+02  0.13377791328E+03  0.12499690621E+03 0.  0.
          5    1    3    3  502    0  0.12200852750E+01  0.24276428509E+02 -0.63636101224E+02  0.68282332768E+02  0.47000000000E+01 0. -1.
         -5    1    3    3    0  502  0.31149763415E+02 -0.45114335904E+02  0.35524217109E+02  0.65495580508E+02  0.47000000000E+01 0. -1.
        -11    1    1    2    0    0 -0.34689816066E+02 -0.18203969140E+02 -0.84291016652E+01  0.40072653843E+02  0.00000000000E+00 0.  1.
         11    1    1    2    0    0  0.23199673759E+01  0.39041876535E+02  0.68564452956E+02  0.78935002256E+02  0.00000000000E+00 0. -1.
<mgrwt>
<rscale>  0 0.12311811E+03</rscale>
<asrwt>0</asrwt>
<pdfrwt beam="1">  1        2 0.21908387E-01 0.13079087E+03</pdfrwt>
<pdfrwt beam="2">  1       -2 0.16981700E-01 0.13079087E+03</pdfrwt>
<totfact> 0.65776633E+03</totfact>
</mgrwt>
</event>
<event>
 7    1  0.6387485E-006  0.1650155E+03  0.7546771E-02  0.1190263E+00
          2   -1    0    0  501    0  0.00000000000E+00  0.00000000000E+00  0.23192261452E+03  0.23192261452E+03  0.00000000000E+00 0. -1.
         -2   -1    0    0    0  501 -0.00000000000E+00 -0.00000000000E+00 -0.18239553264E+03  0.18239553264E+03  0.00000000000E+00 0.  1.
         23    2    1    2    0    0  0.10090675185E+03 -0.37708919730E+02 -0.11241712623E+03  0.19966906468E+03  0.12500395964E+03 0.  0.
          5    1    3    3  502    0 -0.33830900970E+01 -0.23476701420E+02 -0.88342840555E+02  0.91592293811E+02  0.47000000000E+01 0. -1.
         -5    1    3    3    0  502  0.10428984195E+03 -0.14232218310E+02 -0.24074285679E+02  0.10807677087E+03  0.47000000000E+01 0. -1.
        -11    1    1    2    0    0 -0.72986602838E+02  0.44643679406E+02  0.50062657476E+02  0.99128058481E+02  0.00000000000E+00 0.  1.
         11    1    1    2    0    0 -0.27920149011E+02 -0.69347596756E+01  0.11188155064E+03  0.11552102400E+03  0.00000000000E+00 0. -1.
<mgrwt>
<rscale>  0 0.15862040E+03</rscale>
<asrwt>0</asrwt>
<pdfrwt beam="1">  1        2 0.35680402E-01 0.16501553E+03</pdfrwt>
<pdfrwt beam="2">  1       -2 0.28060851E-01 0.16501553E+03</pdfrwt>
<totfact> 0.16475949E+03</totfact>
</mgrwt>
</event>
<event>
 7    1  0.6387485E-006  0.1465811E+03  0.7546771E-02  0.1214470E+00
         -2   -1    0    0    0  501 -0.00000000000E+00  0.00000000000E+00  0.25295547062E+02  0.25295547062E+02  0.00000000000E+00 0.  1.
          2   -1    0    0  501    0  0.00000000000E+00 -0.00000000000E+00 -0.70049116515E+03  0.70049116515E+03  0.00000000000E+00 0. -1.
         23    2    1    2    0    0  0.97112697087E+01  0.76002490536E+02 -0.34845322312E+03  0.37802867531E+03  0.12496136735E+03 0.  0.
          5    1    3    3  502    0  0.73645767999E+01 -0.23847384165E+02 -0.14108313711E+02  0.29052869716E+02  0.47000000000E+01 0. -1.
         -5    1    3    3    0  502  0.23466929087E+01  0.99849874701E+02 -0.33434490941E+03  0.34897580560E+03  0.47000000000E+01 0. -1.
        -11    1    1    2    0    0  0.38937598501E+02 -0.18103440050E+02 -0.13393348210E+03  0.14064867133E+03  0.00000000000E+00 0. -1.
         11    1    1    2    0    0 -0.48648868209E+02 -0.57899050486E+02 -0.19280891287E+03  0.20710936557E+03  0.00000000000E+00 0.  1.
<mgrwt>
<rscale>  0 0.13915512E+03</rscale>
<asrwt>0</asrwt>
<pdfrwt beam="2">  1        2 0.10776785E+00 0.14658114E+03</pdfrwt>
<pdfrwt beam="1">  1       -2 0.38916236E-02 0.14658114E+03</pdfrwt>
<totfact> 0.11527453E+04</totfact>
</mgrwt>
</event>
<event>
 7    1  0.6387485E-006  0.1822522E+03  0.7546771E-02  0.1171159E+00
         -1   -1    0    0    0  501 -0.00000000000E+00  0.00000000000E+00  0.15862553231E+03  0.15862553231E+03  0.00000000000E+00 0.  1.
          1   -1    0    0  501    0  0.00000000000E+00 -0.00000000000E+00 -0.21199795725E+03  0.21199795725E+03  0.00000000000E+00 0. -1.
         23    2    1    2    0    0 -0.10574839637E+03  0.80052132533E+02  0.37559697871E+02  0.18608227170E+03  0.12499925470E+03 0.  0.
          5    1    3    3  502    0 -0.30654943124E+02 -0.33468810312E+02  0.39136610401E+01  0.45796217578E+02  0.47000000000E+01 0. -1.
         -5    1    3    3    0  502 -0.75093453250E+02  0.11352094285E+03  0.33646036831E+02  0.14028605412E+03  0.47000000000E+01 0. -1.
        -11    1    1    2    0    0  0.32687515256E+02  0.13945161473E+02 -0.44032225551E+02  0.56584256372E+02  0.00000000000E+00 0. -1.
         11    1    1    2    0    0  0.73060881119E+02 -0.93997294007E+02 -0.46899897264E+02  0.12795696149E+03  0.00000000000E+00 0.  1.
<mgrwt>
<rscale>  0 0.17657506E+03</rscale>
<asrwt>0</asrwt>
<pdfrwt beam="2">  1        1 0.32615070E-01 0.18225225E+03</pdfrwt>
<pdfrwt beam="1">  1       -1 0.24403928E-01 0.18225225E+03</pdfrwt>
<totfact> 0.19478840E+03</totfact>
</mgrwt>
</event>
<event>
 7    1  0.6387485E-006  0.1328675E+03  0.7546771E-02  0.1235732E+00
          1   -1    0    0  501    0  0.00000000000E+00  0.00000000000E+00  0.59141695568E+02  0.59141695568E+02  0.00000000000E+00 0. -1.
         -1   -1    0    0    0  501 -0.00000000000E+00 -0.00000000000E+00 -0.23897382140E+03  0.23897382140E+03  0.00000000000E+00 0.  1.
         23    2    1    2    0    0  0.72333718155E+00 -0.45045784236E+02 -0.12137727579E+03  0.17996173287E+03  0.12499654524E+03 0.  0.
          5    1    3    3  502    0  0.49898566350E+02 -0.17673330689E+02 -0.86023617119E+01  0.53835900369E+02  0.47000000000E+01 0.  1.
         -5    1    3    3    0  502 -0.49175229169E+02 -0.27372453547E+02 -0.11277491408E+03  0.12612583250E+03  0.47000000000E+01 0.  1.
        -11    1    1    2    0    0  0.27320042743E+02  0.51864239646E+02 -0.66049411078E+02  0.88310864526E+02  0.00000000000E+00 0. -1.
         11    1    1    2    0    0 -0.28043379924E+02 -0.68184554101E+01  0.75945610360E+01  0.29842919580E+02  0.00000000000E+00 0.  1.
<mgrwt>
<rscale>  0 0.12457660E+03</rscale>
<asrwt>0</asrwt>
<pdfrwt beam="1">  1        1 0.90987223E-02 0.13286754E+03</pdfrwt>
<pdfrwt beam="2">  1       -1 0.36765204E-01 0.13286754E+03</pdfrwt>
<totfact> 0.49833599E+03</totfact>
</mgrwt>
</event>
<event>
 7    1  0.6387485E-006  0.1885332E+03  0.7546771E-02  0.1165033E+00
         -2   -1    0    0    0  501 -0.00000000000E+00  0.00000000000E+00  0.20348314994E+03  0.20348314994E+03  0.00000000000E+00 0.  1.
          2   -1    0    0  501    0  0.00000000000E+00 -0.00000000000E+00 -0.15563221495E+03  0.15563221495E+03  0.00000000000E+00 0. -1.
         23    2    1    2    0    0  0.14079227148E+03 -0.10047654919E+02  0.34050908873E+02  0.19158348246E+03  0.12498538827E+03 0.  0.
          5    1    3    3  502    0  0.11664721322E+02 -0.36396964900E+01 -0.40296663432E+02  0.42370086120E+02  0.47000000000E+01 0.  1.
         -5    1    3    3    0  502  0.12912755016E+03 -0.64079584287E+01  0.74347572305E+02  0.14921339634E+03  0.47000000000E+01 0.  1.
        -11    1    1    2    0    0 -0.46440154374E+02  0.46041241988E+02 -0.14004470105E+01  0.65409824598E+02  0.00000000000E+00 0. -1.
         11    1    1    2    0    0 -0.94352117104E+02 -0.35993587070E+02  0.15200473125E+02  0.10212205783E+03  0.00000000000E+00 0.  1.
<mgrwt>
<rscale>  0 0.18289239E+03</rscale>
<asrwt>0</asrwt>
<pdfrwt beam="2">  1        2 0.23943418E-01 0.18853320E+03</pdfrwt>
<pdfrwt beam="1">  1       -2 0.31305100E-01 0.18853320E+03</pdfrwt>
<totfact> 0.21031016E+03</totfact>
</mgrwt>
</event>
<event>
 7    1  0.6387485E-006  0.1284638E+03  0.7546771E-02  0.1243292E+00
          4   -1    0    0  501    0  0.00000000000E+00  0.00000000000E+00  0.84756781604E+02  0.84756781604E+02  0.00000000000E+00 0. -1.
         -4   -1    0    0    0  501 -0.00000000000E+00 -0.00000000000E+00 -0.16475379172E+03  0.16475379172E+03  0.00000000000E+00 0.  1.
         23    2    1    2    0    0  0.25441598944E+02  0.15121262874E+02 -0.81387578937E+02  0.15207527751E+03  0.12500809765E+03 0.  0.
          5    1    3    3  502    0  0.51232143636E+02 -0.40572082984E+02 -0.53081163376E+02  0.84323937079E+02  0.47000000000E+01 0.  1.
         -5    1    3    3    0  502 -0.25790544693E+02  0.55693345858E+02 -0.28306415561E+02  0.67751340432E+02  0.47000000000E+01 0.  1.
        -11    1    1    2    0    0 -0.56807864089E+02  0.42447410642E+01 -0.11998332736E+02  0.58216073704E+02  0.00000000000E+00 0.  1.
         11    1    1    2    0    0  0.31366265146E+02 -0.19366003938E+02  0.13388901559E+02  0.39219222107E+02  0.00000000000E+00 0. -1.
<mgrwt>
<rscale>  0 0.11988190E+03</rscale>
<asrwt>0</asrwt>
<pdfrwt beam="1">  1        4 0.13039505E-01 0.12846382E+03</pdfrwt>
<pdfrwt beam="2">  1       -4 0.25346737E-01 0.12846382E+03</pdfrwt>
<totfact> 0.11456420E+03</totfact>
</mgrwt>
</event>
<event>
 7    1  0.6387485E-006  0.1256196E+03  0.7546771E-02  0.1248779E+00
         -1   -1    0    0    0  501 -0.00000000000E+00  0.00000000000E+00  0.24392318377E+02  0.24392318377E+02  0.00000000000E+00 0.  1.
          1   -1    0    0  501    0  0.00000000000E+00 -0.00000000000E+00 -0.49654850166E+03  0.49654850166E+03  0.00000000000E+00 0. -1.
         23    2    1    2    0    0 -0.56401699609E+01 -0.11113672185E+02 -0.24390385978E+03  0.27435263356E+03  0.12499979798E+03 0.  0.
          5    1    3    3  502    0  0.17143726699E+02  0.39327461019E+02 -0.19693732482E+03  0.20161090363E+03  0.47000000000E+01 0. -1.
         -5    1    3    3    0  502 -0.22783896660E+02 -0.50441133204E+02 -0.46966534961E+02  0.72741729923E+02  0.47000000000E+01 0. -1.
        -11    1    1    2    0    0 -0.41899758909E+02  0.11366629512E+02 -0.13670172763E+03  0.14342995642E+03  0.00000000000E+00 0. -1.
         11    1    1    2    0    0  0.47539928870E+02 -0.25295732725E+00 -0.91550595873E+02  0.10315823006E+03  0.00000000000E+00 0.  1.
<mgrwt>
<rscale>  0 0.11662029E+03</rscale>
<asrwt>0</asrwt>
<pdfrwt beam="2">  1        1 0.76392078E-01 0.12561956E+03</pdfrwt>
<pdfrwt beam="1">  1       -1 0.37526643E-02 0.12561956E+03</pdfrwt>
<totfact> 0.11639607E+04</totfact>
</mgrwt>
</event>
<event>
 7    1  0.6387485E-006  0.1534938E+03  0.7546771E-02  0.1203981E+00
          1   -1    0    0  501    0  0.00000000000E+00  0.00000000000E+00  0.22849479390E+03  0.22849479390E+03  0.00000000000E+00 0. -1.
         -1   -1    0    0    0  501 -0.00000000000E+00 -0.00000000000E+00 -0.89516148331E+02  0.89516148331E+02  0.00000000000E+00 0.  1.
         23    2    1    2    0    0 -0.14046466910E+02 -0.92485045010E+02  0.53146290800E+02  0.16243418290E+03  0.12169448946E+03 0.  0.
          5    1    3    3  502    0 -0.22887669004E+02 -0.10317396309E+03  0.79469323851E+02  0.13231090464E+03  0.47000000000E+01 0. -1.
         -5    1    3    3    0  502  0.88412020936E+01  0.10688918084E+02 -0.26323033050E+02  0.30123278262E+02  0.47000000000E+01 0.  1.
        -11    1    1    2    0    0  0.46146181834E+02  0.83404360851E+02  0.54444546554E+02  0.10977233785E+03  0.00000000000E+00 0.  1.
         11    1    1    2    0    0 -0.32099714923E+02  0.90806841590E+01  0.31387808217E+02  0.45804421486E+02  0.00000000000E+00 0. -1.
<mgrwt>
<rscale>  0 0.14718072E+03</rscale>
<asrwt>0</asrwt>
<pdfrwt beam="1">  1        1 0.35153045E-01 0.15349376E+03</pdfrwt>
<pdfrwt beam="2">  1       -1 0.13771715E-01 0.15349376E+03</pdfrwt>
<totfact> 0.44067678E+03</totfact>
</mgrwt>
</event>
<event>
 7    1  0.6387485E-006  0.1333614E+03  0.7546771E-02  0.1250397E+00
         -2   -1    0    0    0  501 -0.00000000000E+00  0.00000000000E+00  0.72164937111E+02  0.72164937111E+02  0.00000000000E+00 0.  1.
          2   -1    0    0  501    0  0.00000000000E+00 -0.00000000000E+00 -0.17091577609E+03  0.17091577609E+03  0.00000000000E+00 0. -1.
         23    2    1    2    0    0 -0.41674677940E+02 -0.20558250479E+02 -0.21539350101E+02  0.13508961758E+03  0.12500336288E+03 0.  0.
          5    1    3    3  502    0 -0.37733443859E+02 -0.12521717974E+02 -0.72670778199E+02  0.82968296418E+02  0.47000000000E+01 0. -1.
         -5    1    3    3    0  502 -0.39412340806E+01 -0.80365325043E+01  0.51131428098E+02  0.52121321166E+02  0.47000000000E+01 0. -1.
        -11    1    1    2    0    0  0.22671074044E+02 -0.13018701994E+02 -0.57324644860E+01  0.26764255062E+02  0.00000000000E+00 0.  1.
         11    1    1    2    0    0  0.19003603895E+02  0.33576952473E+02 -0.71479024394E+02  0.81226840556E+02  0.00000000000E+00 0. -1.
<mgrwt>
<rscale>  0 0.11568082E+03</rscale>
<asrwt>0</asrwt>
<pdfrwt beam="2">  1        2 0.26294735E-01 0.13336139E+03</pdfrwt>
<pdfrwt beam="1">  1       -2 0.11102298E-01 0.13336139E+03</pdfrwt>
<totfact> 0.10706887E+04</totfact>
</mgrwt>
</event>
<event>
 7    1  0.6387485E-006  0.2682563E+03  0.7546771E-02  0.1104054E+00
          1   -1    0    0  501    0  0.00000000000E+00  0.00000000000E+00  0.15139664569E+04  0.15139664569E+04  0.00000000000E+00 0. -1.
         -1   -1    0    0    0  501 -0.00000000000E+00 -0.00000000000E+00 -0.50506259627E+02  0.50506259627E+02  0.00000000000E+00 0.  1.
         23    2    1    2    0    0  0.21804887412E+03 -0.93762105351E+02  0.99468631579E+03  0.10302244096E+04  0.12499929345E+03 0.  0.
          5    1    3    3  502    0  0.15405909884E+03 -0.57294613354E+02  0.86942691125E+03  0.88484016786E+03  0.47000000000E+01 0. -1.
         -5    1    3    3    0  502  0.63989775284E+02 -0.36467491998E+02  0.12525940454E+03  0.14538424171E+03  0.47000000000E+01 0. -1.
        -11    1    1    2    0    0 -0.32960961558E+02  0.56382960740E+02  0.15247774966E+03  0.16587624119E+03  0.00000000000E+00 0. -1.
         11    1    1    2    0    0 -0.18508791256E+03  0.37379144611E+02  0.31629613182E+03  0.36837206576E+03  0.00000000000E+00 0.  1.
<mgrwt>
<rscale>  0 0.26520718E+03</rscale>
<asrwt>0</asrwt>
<pdfrwt beam="1">  1        1 0.23291788E+00 0.26825635E+03</pdfrwt>
<pdfrwt beam="2">  1       -1 0.77701949E-02 0.26825635E+03</pdfrwt>
<totfact> 0.63182929E+02</totfact>
</mgrwt>
</event>
<event>
 7    1  0.6387485E-006  0.1443120E+03  0.7546771E-02  0.1217981E+00
          2   -1    0    0  501    0  0.00000000000E+00  0.00000000000E+00  0.77697193105E+02  0.77697193105E+02  0.00000000000E+00 0. -1.
         -2   -1    0    0    0  501 -0.00000000000E+00 -0.00000000000E+00 -0.27659734695E+03  0.27659734695E+03  0.00000000000E+00 0.  1.
         23    2    1    2    0    0  0.51407607540E+02 -0.50562600669E+02 -0.18932727002E+03  0.23805622741E+03  0.12500653397E+03 0.  0.
          5    1    3    3  502    0  0.71890232972E+02 -0.79291423212E+02 -0.15635231746E+03  0.18953488483E+03  0.47000000000E+01 0.  1.
         -5    1    3    3    0  502 -0.20482625432E+02  0.28728822543E+02 -0.32974952561E+02  0.48521342579E+02  0.47000000000E+01 0.  1.
        -11    1    1    2    0    0 -0.32009841162E+02  0.72267191700E+02  0.12082433322E+02  0.79957251844E+02  0.00000000000E+00 0. -1.
         11    1    1    2    0    0 -0.19397766379E+02 -0.21704591031E+02 -0.21655317144E+02  0.36281060802E+02  0.00000000000E+00 0.  1.
<mgrwt>
<rscale>  0 0.13659811E+03</rscale>
<asrwt>0</asrwt>
<pdfrwt beam="1">  1        2 0.11953414E-01 0.14431200E+03</pdfrwt>
<pdfrwt beam="2">  1       -2 0.42553438E-01 0.14431200E+03</pdfrwt>
<totfact> 0.26218380E+03</totfact>
</mgrwt>
</event>
<event>
 7    1  0.6387485E-006  0.1330754E+03  0.7546771E-02  0.1236648E+00
         -3   -1    0    0    0  501 -0.00000000000E+00  0.00000000000E+00  0.37323037286E+02  0.37323037286E+02  0.00000000000E+00 0.  1.
          3   -1    0    0  501    0  0.00000000000E+00 -0.00000000000E+00 -0.36863001280E+03  0.36863001280E+03  0.00000000000E+00 0. -1.
         23    2    1    2    0    0  0.19946674963E+02  0.41041726809E+02 -0.16827488756E+03  0.21453555438E+03  0.12500709231E+03 0.  0.
          5    1    3    3  502    0 -0.11625462949E+02  0.18660132445E+00 -0.16180147429E+03  0.16228676253E+03  0.47000000000E+01 0. -1.
         -5    1    3    3    0  502  0.31572137913E+02  0.40855125485E+02 -0.64734132693E+01  0.52248791853E+02  0.47000000000E+01 0. -1.
        -11    1    1    2    0    0 -0.28488572819E+02 -0.49918874457E+02 -0.16843049150E+03  0.17796719718E+03  0.00000000000E+00 0. -1.
         11    1    1    2    0    0  0.85418978552E+01  0.88771476475E+01  0.53984035466E+01  0.13450298516E+02  0.00000000000E+00 0.  1.
<mgrwt>
<rscale>  0 0.12399511E+03</rscale>
<asrwt>0</asrwt>
<pdfrwt beam="2">  1        3 0.56712309E-01 0.13307542E+03</pdfrwt>
<pdfrwt beam="1">  1       -3 0.57420058E-02 0.13307542E+03</pdfrwt>
<totfact> 0.12971742E+03</totfact>
</mgrwt>
</event>
<event>
 7    1  0.6387485E-006  0.1386550E+03  0.7546771E-02  0.1227490E+00
         -1   -1    0    0    0  501 -0.00000000000E+00  0.00000000000E+00  0.15159453702E+03  0.15159453702E+03  0.00000000000E+00 0.  1.
          1   -1    0    0  501    0  0.00000000000E+00 -0.00000000000E+00 -0.10185141016E+03  0.10185141016E+03  0.00000000000E+00 0. -1.
         23    2    1    2    0    0  0.58663990829E+02  0.12602598073E+02  0.46789545028E+02  0.14633682791E+03  0.12499966553E+03 0.  0.
          5    1    3    3  502    0  0.90796792068E+01  0.17517892595E+02 -0.40739397543E+02  0.45509401750E+02  0.47000000000E+01 0. -1.
         -5    1    3    3    0  502  0.49584311622E+02 -0.49152945224E+01  0.87528942571E+02  0.10082742616E+03  0.47000000000E+01 0. -1.
        -11    1    1    2    0    0 -0.27311658176E+02  0.16427608225E+02 -0.36844938858E+02  0.48716963204E+02  0.00000000000E+00 0. -1.
         11    1    1    2    0    0 -0.31352332653E+02 -0.29030206297E+02  0.39798520695E+02  0.58392156065E+02  0.00000000000E+00 0.  1.
<mgrwt>
<rscale>  0 0.12997713E+03</rscale>
<asrwt>0</asrwt>
<pdfrwt beam="2">  1        1 0.15669448E-01 0.13865499E+03</pdfrwt>
<pdfrwt beam="1">  1       -1 0.23322237E-01 0.13865499E+03</pdfrwt>
<totfact> 0.52510574E+03</totfact>
</mgrwt>
</event>
<event>
 7    1  0.6387485E-006  0.1540142E+03  0.7546771E-02  0.1204868E+00
          1   -1    0    0  501    0  0.00000000000E+00  0.00000000000E+00  0.30732612162E+03  0.30732612162E+03  0.00000000000E+00 0. -1.
         -1   -1    0    0    0  501 -0.00000000000E+00 -0.00000000000E+00 -0.78620345932E+02  0.78620345932E+02  0.00000000000E+00 0.  1.
         23    2    1    2    0    0  0.28110000227E+02  0.85474193233E+02  0.40154060524E+02  0.15916252281E+03  0.12499740104E+03 0.  0.
          5    1    3    3  502    0 -0.54963080242E+01  0.12839019392E+02 -0.41917429655E+02  0.44432091215E+02  0.47000000000E+01 0. -1.
         -5    1    3    3    0  502  0.33606308251E+02  0.72635173841E+02  0.82071490179E+02  0.11473043159E+03  0.47000000000E+01 0. -1.
        -11    1    1    2    0    0 -0.44528455891E+02 -0.65302478324E+02  0.70536635508E+02  0.10593683971E+03  0.00000000000E+00 0. -1.
         11    1    1    2    0    0  0.16418455664E+02 -0.20171714909E+02  0.11801507966E+03  0.12084710503E+03  0.00000000000E+00 0.  1.
<mgrwt>
<rscale>  0 0.14647857E+03</rscale>
<asrwt>0</asrwt>
<pdfrwt beam="1">  1        1 0.47280941E-01 0.15401416E+03</pdfrwt>
<pdfrwt beam="2">  1       -1 0.12095438E-01 0.15401416E+03</pdfrwt>
<totfact> 0.37329394E+03</totfact>
</mgrwt>
</event>
<event>
 6    1  0.6387485E-006  0.1410402E+03  0.7546771E-02  0.1226888E+00
          2   -1    0    0  501    0  0.00000000000E+00  0.00000000000E+00  0.89573286732E+03  0.89573286732E+03  0.00000000000E+00 0. -1.
         -2   -1    0    0    0  501 -0.00000000000E+00 -0.00000000000E+00 -0.16681487532E+02  0.16681487532E+02  0.00000000000E+00 0.  1.
          5    1    1    2  502    0 -0.56967659689E+01 -0.82180775752E+02  0.42865243310E+03  0.43652162770E+03  0.47000000000E+01 0. -1.
         -5    1    1    2    0  502 -0.19626735023E+02  0.43691586111E+02  0.10587833000E+03  0.11630337135E+03  0.47000000000E+01 0.  1.
        -11    1    1    2    0    0  0.37825108409E+02  0.64082585551E+02  0.25637111969E+03  0.26695218225E+03  0.00000000000E+00 0.  1.
         11    1    1    2    0    0 -0.12501607418E+02 -0.25593395911E+02  0.88149497002E+02  0.92637173553E+02  0.00000000000E+00 0. -1.
<mgrwt>
<rscale>  0 0.13038328E+03</rscale>
<asrwt>0</asrwt>
<pdfrwt beam="1">  1        2 0.13780502E+00 0.14104022E+03</pdfrwt>
<pdfrwt beam="2">  1       -2 0.25663834E-02 0.14104022E+03</pdfrwt>
<totfact> 0.15647101E+04</totfact>
</mgrwt>
</event>
<event>
 6    1  0.6387485E-006  0.1464254E+03  0.7546771E-02  0.1216941E+00
         -4   -1    0    0    0  501 -0.00000000000E+00  0.00000000000E+00  0.15504252631E+03  0.15504252631E+03  0.00000000000E+00 0.  1.
          4   -1    0    0  501    0  0.00000000000E+00 -0.00000000000E+00 -0.19000783832E+03  0.19000783832E+03  0.00000000000E+00 0. -1.
          5    1    1    2  502    0 -0.66422472005E+02  0.11871226493E+02  0.46595552180E+01  0.67798762972E+02  0.47000000000E+01 0. -1.
         -5    1    1    2    0  502  0.33752552275E+02  0.46564843664E+02  0.88832750401E+02  0.10592859385E+03  0.47000000000E+01 0.  1.
        -11    1    1    2    0    0  0.32372132471E+02  0.10245387404E+02 -0.11796383551E+02  0.35945480782E+02  0.00000000000E+00 0.  1.
         11    1    1    2    0    0  0.29778725944E+00 -0.68681457561E+02 -0.11666123407E+03  0.13537752703E+03  0.00000000000E+00 0. -1.
<mgrwt>
<rscale>  0 0.13734916E+03</rscale>
<asrwt>0</asrwt>
<pdfrwt beam="2">  1        4 0.29231975E-01 0.14642535E+03</pdfrwt>
<pdfrwt beam="1">  1       -4 0.23852696E-01 0.14642535E+03</pdfrwt>
<totfact> 0.30806909E+02</totfact>
</mgrwt>
</event>
<event>
 7    1  0.6387485E-006  0.2058575E+03  0.7546771E-02  0.1148908E+00
          2   -1    0    0  501    0  0.00000000000E+00  0.00000000000E+00  0.80162396342E+03  0.80162396342E+03  0.00000000000E+00 0. -1.
         -2   -1    0    0    0  501 -0.00000000000E+00 -0.00000000000E+00 -0.48221146382E+02  0.48221146382E+02  0.00000000000E+00 0.  1.
         23    2    1    2    0    0  0.33971276795E+02 -0.15999554571E+03  0.41124265173E+03  0.45988894166E+03  0.12499879106E+03 0.  0.
          5    1    3    3  502    0  0.51740054819E+02 -0.16020473393E+03  0.27545181600E+03  0.32285969551E+03  0.47000000000E+01 0. -1.
         -5    1    3    3    0  502 -0.17768778023E+02  0.20918822414E+00  0.13579083573E+03  0.13702924615E+03  0.47000000000E+01 0. -1.
        -11    1    1    2    0    0 -0.43544894732E+02  0.27787894867E+02  0.67638028159E+02  0.85107154879E+02  0.00000000000E+00 0.  1.
         11    1    1    2    0    0  0.95736179364E+01  0.13220765084E+03  0.27452213715E+03  0.30484901326E+03  0.00000000000E+00 0. -1.
<mgrwt>
<rscale>  0 0.20098864E+03</rscale>
<asrwt>0</asrwt>
<pdfrwt beam="1">  1        2 0.12332675E+00 0.20585752E+03</pdfrwt>
<pdfrwt beam="2">  1       -2 0.74186385E-02 0.20585752E+03</pdfrwt>
<totfact> 0.37284996E+03</totfact>
</mgrwt>
</event>
<event>
 7    1  0.6387485E-006  0.1591948E+03  0.7546771E-02  0.1197998E+00
          2   -1    0    0  501    0  0.00000000000E+00  0.00000000000E+00  0.17691394556E+03  0.17691394556E+03  0.00000000000E+00 0. -1.
         -2   -1    0    0    0  501 -0.00000000000E+00 -0.00000000000E+00 -0.12335148790E+03  0.12335148790E+03  0.00000000000E+00 0.  1.
         23    2    1    2    0    0  0.30674610731E+02 -0.93682848700E+02  0.51700329821E+01  0.15927869297E+03  0.12500225962E+03 0.  0.
          5    1    3    3  502    0  0.73210388335E+02 -0.27697927567E+02 -0.10408105449E+02  0.79103443735E+02  0.47000000000E+01 0. -1.
         -5    1    3    3    0  502 -0.42535777604E+02 -0.65984921133E+02  0.15578138431E+02  0.80175249238E+02  0.47000000000E+01 0. -1.
        -11    1    1    2    0    0 -0.20780937073E+02 -0.12459393134E+02  0.80002230901E+00  0.24243016698E+02  0.00000000000E+00 0.  1.
         11    1    1    2    0    0 -0.98936736576E+01  0.10614224183E+03  0.47592402367E+02  0.11674372379E+03  0.00000000000E+00 0. -1.
<mgrwt>
<rscale>  0 0.15203240E+03</rscale>
<asrwt>0</asrwt>
<pdfrwt beam="1">  1        2 0.27217530E-01 0.15919476E+03</pdfrwt>
<pdfrwt beam="2">  1       -2 0.18977152E-01 0.15919476E+03</pdfrwt>
<totfact> 0.43492761E+03</totfact>
</mgrwt>
</event>
<event>
 7    1  0.6387485E-006  0.1316293E+03  0.7546771E-02  0.1237507E+00
         -1   -1    0    0    0  501 -0.00000000000E+00  0.00000000000E+00  0.26136643364E+02  0.26136643364E+02  0.00000000000E+00 0.  1.
          1   -1    0    0  501    0  0.00000000000E+00 -0.00000000000E+00 -0.52932068181E+03  0.52932068181E+03  0.00000000000E+00 0. -1.
         23    2    1    2    0    0  0.39036897391E+02  0.13338846735E+02 -0.24952540355E+03  0.28211556246E+03  0.12499783748E+03 0.  0.
          5    1    3    3  502    0  0.70506405842E+02 -0.71573750281E+01 -0.74052654713E+02  0.10260734356E+03  0.47000000000E+01 0.  1.
         -5    1    3    3    0  502 -0.31469508451E+02  0.20496221763E+02 -0.17547274884E+03  0.17950821891E+03  0.47000000000E+01 0.  1.
        -11    1    1    2    0    0  0.54888504233E+01  0.33684901055E+02 -0.12098755720E+03  0.12570914460E+03  0.00000000000E+00 0. -1.
         11    1    1    2    0    0 -0.44525747815E+02 -0.47023747791E+02 -0.13267107769E+03  0.14763261811E+03  0.00000000000E+00 0.  1.
<mgrwt>
<rscale>  0 0.12345324E+03</rscale>
<asrwt>0</asrwt>
<pdfrwt beam="2">  1        1 0.81433951E-01 0.13162927E+03</pdfrwt>
<pdfrwt beam="1">  1       -1 0.40210220E-02 0.13162927E+03</pdfrwt>
<totfact> 0.97092323E+03</totfact>
</mgrwt>
</event>
<event>
 7    1  0.6387485E-006  0.1316183E+03  0.7546771E-02  0.1242360E+00
          2   -1    0    0  501    0  0.00000000000E+00  0.00000000000E+00  0.45311784761E+02  0.45311784761E+02  0.00000000000E+00 0. -1.
         -2   -1    0    0    0  501 -0.00000000000E+00 -0.00000000000E+00 -0.27943886703E+03  0.27943886703E+03  0.00000000000E+00 0.  1.
         23    2    1    2    0    0  0.38462864909E+02  0.14793376470E+02 -0.15335575844E+03  0.20209246532E+03  0.12500055970E+03 0.  0.
          5    1    3    3  502    0 -0.18678057886E+02  0.51878836574E+02 -0.35078355390E+02  0.65519955338E+02  0.47000000000E+01 0.  1.
         -5    1    3    3    0  502  0.57140922795E+02 -0.37085460104E+02 -0.11827740305E+03  0.13657250998E+03  0.47000000000E+01 0.  1.
        -11    1    1    2    0    0 -0.36742235243E+01  0.15673354382E+02  0.11271248743E+02  0.19651844807E+02  0.00000000000E+00 0. -1.
         11    1    1    2    0    0 -0.34788641385E+02 -0.30466730852E+02 -0.92042572568E+02  0.10300634166E+03  0.00000000000E+00 0.  1.
<mgrwt>
<rscale>  0 0.12044774E+03</rscale>
<asrwt>0</asrwt>
<pdfrwt beam="1">  1        2 0.69710439E-02 0.13161830E+03</pdfrwt>
<pdfrwt beam="2">  1       -2 0.42990594E-01 0.13161830E+03</pdfrwt>
<totfact> 0.49847946E+03</totfact>
</mgrwt>
</event>
<event>
 7    1  0.6387485E-006  0.1448525E+03  0.7546771E-02  0.1215587E+00
         -2   -1    0    0    0  501 -0.00000000000E+00  0.00000000000E+00  0.69839528599E+02  0.69839528599E+02  0.00000000000E+00 0.  1.
          2   -1    0    0  501    0  0.00000000000E+00 -0.00000000000E+00 -0.29443780940E+03  0.29443780940E+03  0.00000000000E+00 0. -1.
         23    2    1    2    0    0 -0.72088484404E+02 -0.12601569576E+02 -0.52250025970E+02  0.15398806893E+03  0.12500684389E+03 0.  0.
          5    1    3    3  502    0 -0.82993113594E+02 -0.41847735078E+02 -0.71194682053E+02  0.11717449632E+03  0.47000000000E+01 0. -1.
         -5    1    3    3    0  502  0.10904629190E+02  0.29246165503E+02  0.18944656083E+02  0.36813572612E+02  0.47000000000E+01 0. -1.
        -11    1    1    2    0    0  0.60695672476E+02  0.20370846994E+02 -0.18234448388E+03  0.19325746264E+03  0.00000000000E+00 0. -1.
         11    1    1    2    0    0  0.11392811928E+02 -0.77692774179E+01  0.99962290446E+01  0.17031806432E+02  0.00000000000E+00 0.  1.
<mgrwt>
<rscale>  0 0.13833487E+03</rscale>
<asrwt>0</asrwt>
<pdfrwt beam="2">  1        2 0.45298124E-01 0.14485255E+03</pdfrwt>
<pdfrwt beam="1">  1       -2 0.10744543E-01 0.14485255E+03</pdfrwt>
<totfact> 0.63224233E+03</totfact>
</mgrwt>
</event>
<event>
 7    1  0.6387485E-006  0.1328059E+03  0.7546771E-02  0.1235129E+00
          1   -1    0    0  501    0  0.00000000000E+00  0.00000000000E+00  0.39798424775E+02  0.39798424775E+02  0.00000000000E+00 0.  1.
         -1   -1    0    0    0  501 -0.00000000000E+00 -0.00000000000E+00 -0.35280809773E+03  0.35280809773E+03  0.00000000000E+00 0. -1.
         23    2    1    2    0    0  0.31643574794E+02  0.31789694658E+02 -0.17025459815E+03  0.21592600520E+03  0.12500204406E+03 0.  0.
          5    1    3    3  502    0  0.54289368232E+02  0.55204809975E+02 -0.52517584737E+02  0.93675467728E+02  0.47000000000E+01 0.  1.
         -5    1    3    3    0  502 -0.22645793438E+02 -0.23415115317E+02 -0.11773701341E+03  0.12225053747E+03  0.47000000000E+01 0.  1.
        -11    1    1    2    0    0 -0.48781834511E+02 -0.53892591491E+02 -0.80689927204E+02  0.10860452637E+03  0.00000000000E+00 0. -1.
         11    1    1    2    0    0  0.17138259717E+02  0.22102896833E+02 -0.62065147602E+02  0.68075990932E+02  0.00000000000E+00 0.  1.
<mgrwt>
<rscale>  0 0.12496163E+03</rscale>
<asrwt>0</asrwt>
<pdfrwt beam="1">  1        1 0.61228346E-02 0.13280592E+03</pdfrwt>
<pdfrwt beam="2">  1       -1 0.54278169E-01 0.13280592E+03</pdfrwt>
<totfact> 0.42295296E+03</totfact>
</mgrwt>
</event>
<event>
 7    1  0.6387485E-006  0.1561332E+03  0.7546771E-02  0.1201043E+00
          2   -1    0    0  501    0  0.00000000000E+00  0.00000000000E+00  0.46365047804E+02  0.46365047804E+02  0.00000000000E+00 0. -1.
         -2   -1    0    0    0  501 -0.00000000000E+00 -0.00000000000E+00 -0.57203057677E+03  0.57203057677E+03  0.00000000000E+00 0.  1.
         23    2    1    2    0    0 -0.16358994345E+02 -0.92118310235E+02 -0.42535235401E+03  0.45310287653E+03  0.12499676750E+03 0.  0.
          5    1    3    3  502    0 -0.52217157290E+02 -0.10433312038E+03 -0.34309518449E+03  0.36242023556E+03  0.47000000000E+01 0.  1.
         -5    1    3    3    0  502  0.35858162945E+02  0.12214810146E+02 -0.82257169518E+02  0.90682640973E+02  0.47000000000E+01 0.  1.
        -11    1    1    2    0    0 -0.15207934492E+02 -0.29265513421E+01 -0.51696278983E+02  0.53966204563E+02  0.00000000000E+00 0.  1.
         11    1    1    2    0    0  0.31566928837E+02  0.95044861577E+02 -0.48616895977E+02  0.11132654348E+03  0.00000000000E+00 0. -1.
<mgrwt>
<rscale>  0 0.14953690E+03</rscale>
<asrwt>0</asrwt>
<pdfrwt beam="1">  1        2 0.71330847E-02 0.15613325E+03</pdfrwt>
<pdfrwt beam="2">  1       -2 0.88004699E-01 0.15613325E+03</pdfrwt>
<totfact> 0.11090494E+03</totfact>
</mgrwt>
</event>
<event>
 7    1  0.6387485E-006  0.1598387E+03  0.7546771E-02  0.1196573E+00
         -1   -1    0    0    0  501 -0.00000000000E+00  0.00000000000E+00  0.38711822066E+02  0.38711822066E+02  0.00000000000E+00 0.  1.
          1   -1    0    0  501    0  0.00000000000E+00 -0.00000000000E+00 -0.56139632925E+03  0.56139632925E+03  0.00000000000E+00 0. -1.
         23    2    1    2    0    0 -0.98660308602E+02  0.12593382436E+02 -0.27827119936E+03  0.32091006391E+03  0.12512377453E+03 0.  0.
          5    1    3    3  502    0 -0.12065887117E+03  0.93265533972E+01 -0.27134701185E+03  0.29714783969E+03  0.47000000000E+01 0. -1.
         -5    1    3    3    0  502  0.21998562572E+02  0.32668290390E+01 -0.69241875033E+01  0.23762224218E+02  0.47000000000E+01 0.  1.
        -11    1    1    2    0    0  0.85155480028E+01  0.26758914763E+02 -0.10425115381E+03  0.10796692617E+03  0.00000000000E+00 0. -1.
         11    1    1    2    0    0  0.90144760599E+02 -0.39352297199E+02 -0.14016215402E+03  0.17123116124E+03  0.00000000000E+00 0.  1.
<mgrwt>
<rscale>  0 0.15321851E+03</rscale>
<asrwt>0</asrwt>
<pdfrwt beam="2">  1        1 0.86368671E-01 0.15983870E+03</pdfrwt>
<pdfrwt beam="1">  1       -1 0.59556646E-02 0.15983870E+03</pdfrwt>
<totfact> 0.50749443E+03</totfact>
</mgrwt>
</event>
<event>
 6    1  0.6387485E-006  0.1740363E+03  0.7546771E-02  0.1202009E+00
          1   -1    0    0  501    0  0.00000000000E+00  0.00000000000E+00  0.29359011242E+03  0.29359011242E+03  0.00000000000E+00 0. -1.
         -1   -1    0    0    0  501 -0.00000000000E+00 -0.00000000000E+00 -0.62532628804E+02  0.62532628804E+02  0.00000000000E+00 0.  1.
          5    1    1    2  502    0  0.25019788087E+02  0.79072504273E+02  0.98135606976E+02  0.12857347349E+03  0.47000000000E+01 0. -1.
         -5    1    1    2    0  502 -0.33366577490E+02 -0.72535170263E+02  0.22165563867E+02  0.82994467526E+02  0.47000000000E+01 0.  1.
        -11    1    1    2    0    0 -0.37160780623E+02  0.15551550150E+02  0.64284799644E+02  0.75863758105E+02  0.00000000000E+00 0. -1.
         11    1    1    2    0    0  0.45507570026E+02 -0.22088884160E+02  0.46471513126E+02  0.68691042104E+02  0.00000000000E+00 0.  1.
<mgrwt>
<rscale>  0 0.14875641E+03</rscale>
<asrwt>0</asrwt>
<pdfrwt beam="1">  1        1 0.45167709E-01 0.17403627E+03</pdfrwt>
<pdfrwt beam="2">  1       -1 0.96204046E-02 0.17403627E+03</pdfrwt>
<totfact> 0.56575375E+03</totfact>
</mgrwt>
</event>
<event>
 7    1  0.6387485E-006  0.1569058E+03  0.7546771E-02  0.1202325E+00
         -1   -1    0    0    0  501 -0.00000000000E+00  0.00000000000E+00  0.36875967609E+02  0.36875967609E+02  0.00000000000E+00 0.  1.
          1   -1    0    0  501    0  0.00000000000E+00 -0.00000000000E+00 -0.58153354943E+03  0.58153354943E+03  0.00000000000E+00 0. -1.
         23    2    1    2    0    0 -0.73259179866E+02 -0.60231557941E+02 -0.38012037338E+03  0.41123097978E+03  0.12499868986E+03 0.  0.
          5    1    3    3  502    0 -0.50807216992E+02 -0.97581860986E+02 -0.23282512078E+03  0.25755236314E+03  0.47000000000E+01 0. -1.
         -5    1    3    3    0  502 -0.22451962874E+02  0.37350303045E+02 -0.14729525260E+03  0.15367861664E+03  0.47000000000E+01 0. -1.
        -11    1    1    2    0    0  0.24194831638E+02  0.31487211619E+02 -0.78311585438E+01  0.40474206820E+02  0.00000000000E+00 0.  1.
         11    1    1    2    0    0  0.49064348228E+02  0.28744346322E+02 -0.15670604989E+03  0.16670433043E+03  0.00000000000E+00 0. -1.
<mgrwt>
<rscale>  0 0.14850272E+03</rscale>
<asrwt>0</asrwt>
<pdfrwt beam="2">  1        1 0.89466702E-01 0.15690577E+03</pdfrwt>
<pdfrwt beam="1">  1       -1 0.56732257E-02 0.15690577E+03</pdfrwt>
<totfact> 0.51984002E+03</totfact>
</mgrwt>
</event>
<event>
 7    1  0.6387485E-006  0.1327376E+03  0.7546771E-02  0.1232357E+00
          3   -1    0    0  501    0  0.00000000000E+00  0.00000000000E+00  0.23687632759E+03  0.23687632759E+03  0.00000000000E+00 0. -1.
         -3   -1    0    0    0  501 -0.00000000000E+00 -0.00000000000E+00 -0.63489162041E+02  0.63489162041E+02  0.00000000000E+00 0.  1.
         23    2    1    2    0    0  0.16096299407E+02 -0.62553110711E+02  0.74699208893E+02  0.15231299640E+03  0.11596247043E+03 0.  0.
          5    1    3    3  502    0  0.61547860194E+02 -0.37838908619E+02  0.69063589993E+02  0.10005894044E+03  0.47000000000E+01 0. -1.
         -5    1    3    3    0  502 -0.45451560787E+02 -0.24714202093E+02  0.56356189001E+01  0.52254055952E+02  0.47000000000E+01 0.  1.
        -11    1    1    2    0    0 -0.25074362162E+02  0.16773044386E+02  0.96767592047E+02  0.10136086783E+03  0.00000000000E+00 0.  1.
         11    1    1    2    0    0  0.89780627547E+01  0.45780066326E+02  0.19203646129E+01  0.46691625415E+02  0.00000000000E+00 0. -1.
<mgrwt>
<rscale>  0 0.12675131E+03</rscale>
<asrwt>0</asrwt>
<pdfrwt beam="1">  1        3 0.36442512E-01 0.13273762E+03</pdfrwt>
<pdfrwt beam="2">  1       -3 0.97675635E-02 0.13273762E+03</pdfrwt>
<totfact> 0.13077534E+03</totfact>
</mgrwt>
</event>
<event>
 7    1  0.7172989E-006  0.3528204E+03  0.7546771E-02  0.1062383E+00
          1   -1    0    0  501    0  0.00000000000E+00  0.00000000000E+00  0.10763182737E+04  0.10763182737E+04  0.00000000000E+00 0. -1.
         -1   -1    0    0    0  501 -0.00000000000E+00 -0.00000000000E+00 -0.11535635965E+03  0.11535635965E+03  0.00000000000E+00 0.  1.
         23    2    1    2    0    0  0.32724332064E+03 -0.42061742828E+02  0.39685913467E+03  0.53101732172E+03  0.12499936832E+03 0.  0.
          5    1    3    3  502    0  0.14384695587E+03 -0.20031108550E+02  0.27084375208E+03  0.30736235954E+03  0.47000000000E+01 0.  1.
         -5    1    3    3    0  502  0.18339636477E+03 -0.22030634278E+02  0.12601538259E+03  0.22365496218E+03  0.47000000000E+01 0.  1.
        -11    1    1    2    0    0 -0.23239815176E+03 -0.12745592659E+02  0.41229927755E+03  0.47345754333E+03  0.00000000000E+00 0.  1.
         11    1    1    2    0    0 -0.94845168885E+02  0.54807335487E+02  0.15180350185E+03  0.18719976832E+03  0.00000000000E+00 0. -1.
<mgrwt>
<rscale>  0 0.35056472E+03</rscale>
<asrwt>0</asrwt>
<pdfrwt beam="1">  1        1 0.16558742E+00 0.35282038E+03</pdfrwt>
<pdfrwt beam="2">  1       -1 0.17747133E-01 0.35282038E+03</pdfrwt>
<totfact> 0.34297788E+02</totfact>
</mgrwt>
</event>
<event>
 7    1  0.6387485E-006  0.1967268E+03  0.7546771E-02  0.1157079E+00
          2   -1    0    0  501    0  0.00000000000E+00  0.00000000000E+00  0.75293303385E+03  0.75293303385E+03  0.00000000000E+00 0. -1.
         -2   -1    0    0    0  501 -0.00000000000E+00 -0.00000000000E+00 -0.52810479598E+02  0.52810479598E+02  0.00000000000E+00 0.  1.
         23    2    1    2    0    0  0.42430286524E+02  0.14586717789E+03  0.22543205769E+03  0.29920064849E+03  0.12499541042E+03 0.  0.
          5    1    3    3  502    0  0.51122655348E+02  0.16536658814E+01  0.47598710509E+02  0.70028478084E+02  0.47000000000E+01 0.  1.
         -5    1    3    3    0  502 -0.86923688243E+01  0.14421351200E+03  0.17783334718E+03  0.22917217041E+03  0.47000000000E+01 0.  1.
        -11    1    1    2    0    0 -0.25526044269E+02 -0.11955047347E+03  0.45108758544E+03  0.46735843245E+03  0.00000000000E+00 0. -1.
         11    1    1    2    0    0 -0.16904242255E+02 -0.26316704416E+02  0.23602911128E+02  0.39184432511E+02  0.00000000000E+00 0.  1.
<mgrwt>
<rscale>  0 0.19154103E+03</rscale>
<asrwt>0</asrwt>
<pdfrwt beam="1">  1        2 0.11583584E+00 0.19672675E+03</pdfrwt>
<pdfrwt beam="2">  1       -2 0.81246897E-02 0.19672675E+03</pdfrwt>
<totfact> 0.34961393E+03</totfact>
</mgrwt>
</event>
<event>
 7    1  0.6387485E-006  0.1266921E+03  0.7546771E-02  0.1247334E+00
          2   -1    0    0  501    0  0.00000000000E+00  0.00000000000E+00  0.41808500478E+03  0.41808500478E+03  0.00000000000E+00 0. -1.
         -2   -1    0    0    0  501 -0.00000000000E+00 -0.00000000000E+00 -0.30765578041E+02  0.30765578041E+02  0.00000000000E+00 0.  1.
         23    2    1    2    0    0  0.66957979582E+01 -0.19479057060E+02  0.16829620449E+03  0.21065253914E+03  0.12500644954E+03 0.  0.
          5    1    3    3  502    0  0.15291155638E+02 -0.56946756091E+02  0.16062857511E+03  0.17117354238E+03  0.47000000000E+01 0.  1.
         -5    1    3    3    0  502 -0.85953576802E+01  0.37467699031E+02  0.76676293752E+01  0.39478996753E+02  0.47000000000E+01 0.  1.
        -11    1    1    2    0    0 -0.24428373436E+02 -0.24138455447E+02  0.15480270055E+03  0.15856634749E+03  0.00000000000E+00 0. -1.
         11    1    1    2    0    0  0.17732575478E+02  0.43617512507E+02  0.64220521705E+02  0.79631696192E+02  0.00000000000E+00 0.  1.
<mgrwt>
<rscale>  0 0.11746792E+03</rscale>
<asrwt>0</asrwt>
<pdfrwt beam="1">  1        2 0.64320766E-01 0.12669207E+03</pdfrwt>
<pdfrwt beam="2">  1       -2 0.47331662E-02 0.12669207E+03</pdfrwt>
<totfact> 0.15173878E+04</totfact>
</mgrwt>
</event>
<event>
 7    1  0.6387485E-006  0.1992034E+03  0.7546771E-02  0.1154685E+00
          1   -1    0    0  501    0  0.00000000000E+00  0.00000000000E+00  0.24425765506E+03  0.24425765506E+03  0.00000000000E+00 0. -1.
         -1   -1    0    0    0  501 -0.00000000000E+00 -0.00000000000E+00 -0.17854666102E+03  0.17854666102E+03  0.00000000000E+00 0.  1.
         23    2    1    2    0    0  0.13064191175E+02  0.15455060542E+03 -0.54181715359E+02  0.20644046821E+03  0.12500178361E+03 0.  0.
          5    1    3    3  502    0 -0.44783236859E+02  0.80751126149E+02  0.95747430769E+01  0.92951860567E+02  0.47000000000E+01 0. -1.
         -5    1    3    3    0  502  0.57847428034E+02  0.73799479276E+02 -0.63756458436E+02  0.11348860764E+03  0.47000000000E+01 0. -1.
        -11    1    1    2    0    0  0.32615597345E+02 -0.81462108713E+02  0.88521011635E+02  0.12464277695E+03  0.00000000000E+00 0. -1.
         11    1    1    2    0    0 -0.45679788521E+02 -0.73088496712E+02  0.31371697765E+02  0.91721070925E+02  0.00000000000E+00 0.  1.
<mgrwt>
<rscale>  0 0.19424781E+03</rscale>
<asrwt>0</asrwt>
<pdfrwt beam="1">  1        1 0.37578101E-01 0.19920344E+03</pdfrwt>
<pdfrwt beam="2">  1       -1 0.27468717E-01 0.19920344E+03</pdfrwt>
<totfact> 0.13431489E+03</totfact>
</mgrwt>
</event>
<event>
 7    1  0.6387485E-006  0.1268508E+03  0.7546771E-02  0.1246739E+00
          2   -1    0    0  501    0  0.00000000000E+00  0.00000000000E+00  0.16928036837E+02  0.16928036837E+02  0.00000000000E+00 0. -1.
         -2   -1    0    0    0  501 -0.00000000000E+00 -0.00000000000E+00 -0.73265080293E+03  0.73265080293E+03  0.00000000000E+00 0.  1.
         23    2    1    2    0    0  0.31617352682E+00 -0.21723934411E+02 -0.45229262327E+03  0.46974433247E+03  0.12497636390E+03 0.  0.
          5    1    3    3  502    0  0.55447229857E+01 -0.71672555432E+02 -0.32354906620E+03  0.33147215177E+03  0.47000000000E+01 0. -1.
         -5    1    3    3    0  502 -0.52285494589E+01  0.49948621021E+02 -0.12874355706E+03  0.13827218070E+03  0.47000000000E+01 0. -1.
        -11    1    1    2    0    0  0.30815278094E+01  0.46700886739E+02 -0.24277667891E+03  0.24724680880E+03  0.00000000000E+00 0.  1.
         11    1    1    2    0    0 -0.33977013362E+01 -0.24976952328E+02 -0.20653463911E+02  0.32587698499E+02  0.00000000000E+00 0. -1.
<mgrwt>
<rscale>  0 0.11781924E+03</rscale>
<asrwt>0</asrwt>
<pdfrwt beam="1">  1        2 0.26043139E-02 0.12685078E+03</pdfrwt>
<pdfrwt beam="2">  1       -2 0.11271549E+00 0.12685078E+03</pdfrwt>
<totfact> 0.23363651E+03</totfact>
</mgrwt>
</event>
<event>
 6    1  0.6387485E-006  0.1814087E+03  0.7546771E-02  0.1183724E+00
         -1   -1    0    0    0  501 -0.00000000000E+00  0.00000000000E+00  0.45721253124E+02  0.45721253124E+02  0.00000000000E+00 0.  1.
          1   -1    0    0  501    0  0.00000000000E+00 -0.00000000000E+00 -0.64721909027E+03  0.64721909027E+03  0.00000000000E+00 0. -1.
          5    1    1    2  502    0  0.49644416687E+02 -0.24418412390E+02 -0.93853446688E+02  0.10904763375E+03  0.47000000000E+01 0. -1.
         -5    1    1    2    0  502 -0.11734766612E+03 -0.21435358769E+02 -0.92511422869E+02  0.15103113159E+03  0.47000000000E+01 0.  1.
        -11    1    1    2    0    0  0.28373607128E+02  0.62777692348E+02 -0.16060030911E+03  0.17475285269E+03  0.00000000000E+00 0.  1.
         11    1    1    2    0    0  0.39329642304E+02 -0.16923921189E+02 -0.25453265848E+03  0.25810872536E+03  0.00000000000E+00 0. -1.
<mgrwt>
<rscale>  0 0.16448525E+03</rscale>
<asrwt>0</asrwt>
<pdfrwt beam="2">  1        1 0.99572157E-01 0.18140865E+03</pdfrwt>
<pdfrwt beam="1">  1       -1 0.70340397E-02 0.18140865E+03</pdfrwt>
<totfact> 0.32659774E+03</totfact>
</mgrwt>
</event>
<event>
 7    1  0.6387485E-006  0.1473714E+03  0.7546771E-02  0.1214619E+00
         -2   -1    0    0    0  501 -0.00000000000E+00  0.00000000000E+00  0.90806458455E+02  0.90806458455E+02  0.00000000000E+00 0.  1.
          2   -1    0    0  501    0  0.00000000000E+00 -0.00000000000E+00 -0.26961608452E+03  0.26961608452E+03  0.00000000000E+00 0. -1.
         23    2    1    2    0    0 -0.30322909157E+02 -0.71932532779E+02 -0.62114925752E+00  0.14737272557E+03  0.12499826528E+03 0.  0.
          5    1    3    3  502    0  0.35380884779E+02 -0.25466740159E+02  0.37968932234E+02  0.58000790314E+02  0.47000000000E+01 0. -1.
         -5    1    3    3    0  502 -0.65703793936E+02 -0.46465792620E+02 -0.38590081492E+02  0.89371935253E+02  0.47000000000E+01 0. -1.
        -11    1    1    2    0    0 -0.25702079954E+01  0.20415298376E+02  0.39296197235E+01  0.20948324231E+02  0.00000000000E+00 0.  1.
         11    1    1    2    0    0  0.32893117152E+02  0.51517234404E+02 -0.18211809653E+03  0.19210149318E+03  0.00000000000E+00 0. -1.
<mgrwt>
<rscale>  0 0.13904588E+03</rscale>
<asrwt>0</asrwt>
<pdfrwt beam="2">  1        2 0.41479397E-01 0.14737142E+03</pdfrwt>
<pdfrwt beam="1">  1       -2 0.13970225E-01 0.14737142E+03</pdfrwt>
<totfact> 0.45622295E+03</totfact>
</mgrwt>
</event>
<event>
 7    1  0.6387485E-006  0.1788278E+03  0.7546771E-02  0.1174614E+00
          1   -1    0    0  501    0  0.00000000000E+00  0.00000000000E+00  0.44692940848E+03  0.44692940848E+03  0.00000000000E+00 0. -1.
         -1   -1    0    0    0  501 -0.00000000000E+00 -0.00000000000E+00 -0.96548020358E+02  0.96548020358E+02  0.00000000000E+00 0.  1.
         23    2    1    2    0    0  0.26566299470E+02 -0.12510720615E+03  0.22950258004E+02  0.18029443455E+03  0.12498714930E+03 0.  0.
          5    1    3    3  502    0  0.69360233526E+02 -0.33008486020E+02  0.56078245283E+01  0.77161777066E+02  0.47000000000E+01 0.  1.
         -5    1    3    3    0  502 -0.42793934056E+02 -0.92098720125E+02  0.17342433476E+02  0.10313265748E+03  0.47000000000E+01 0.  1.
        -11    1    1    2    0    0 -0.10751468401E+02  0.62240071531E+02  0.56961374169E+02  0.85053034773E+02  0.00000000000E+00 0.  1.
         11    1    1    2    0    0 -0.15814831070E+02  0.62867134615E+02  0.27046975595E+03  0.27812995952E+03  0.00000000000E+00 0. -1.
<mgrwt>
<rscale>  0 0.17313823E+03</rscale>
<asrwt>0</asrwt>
<pdfrwt beam="1">  1        1 0.68758369E-01 0.17882776E+03</pdfrwt>
<pdfrwt beam="2">  1       -1 0.14853542E-01 0.17882776E+03</pdfrwt>
<totfact> 0.16962773E+03</totfact>
</mgrwt>
</event>
<event>
 7    1  0.6387485E-006  0.1535530E+03  0.7546771E-02  0.1204984E+00
         -2   -1    0    0    0  501 -0.00000000000E+00  0.00000000000E+00  0.34421390842E+02  0.34421390842E+02  0.00000000000E+00 0.  1.
          2   -1    0    0  501    0  0.00000000000E+00 -0.00000000000E+00 -0.57148953113E+03  0.57148953113E+03  0.00000000000E+00 0. -1.
         23    2    1    2    0    0  0.57138415282E+02 -0.68488052490E+02 -0.28514493159E+03  0.32386132718E+03  0.12499246135E+03 0.  0.
          5    1    3    3  502    0 -0.32293341321E+02 -0.42428652122E+02 -0.61408949289E+02  0.81462871710E+02  0.47000000000E+01 0. -1.
         -5    1    3    3    0  502  0.89431756603E+02 -0.26059400368E+02 -0.22373598230E+03  0.24239845547E+03  0.47000000000E+01 0. -1.
        -11    1    1    2    0    0 -0.38318606326E+02  0.20610064498E+02 -0.26750887065E+02  0.51075437425E+02  0.00000000000E+00 0.  1.
         11    1    1    2    0    0 -0.18819808957E+02  0.47877987991E+02 -0.22517232163E+03  0.23097415737E+03  0.00000000000E+00 0. -1.
<mgrwt>
<rscale>  0 0.14638684E+03</rscale>
<asrwt>0</asrwt>
<pdfrwt beam="2">  1        2 0.87921459E-01 0.15355301E+03</pdfrwt>
<pdfrwt beam="1">  1       -2 0.52955990E-02 0.15355301E+03</pdfrwt>
<totfact> 0.92255404E+03</totfact>
</mgrwt>
</event>
<event>
 7    1  0.6387485E-006  0.1377128E+03  0.7546771E-02  0.1227322E+00
         -1   -1    0    0    0  501 -0.00000000000E+00  0.00000000000E+00  0.54147227163E+02  0.54147227163E+02  0.00000000000E+00 0.  1.
          1   -1    0    0  501    0  0.00000000000E+00 -0.00000000000E+00 -0.29375964559E+03  0.29375964559E+03  0.00000000000E+00 0. -1.
         23    2    1    2    0    0  0.28999194902E+02 -0.49981910007E+02 -0.99081606103E+02  0.16965250820E+03  0.12500265692E+03 0.  0.
          5    1    3    3  502    0 -0.34238125353E+01 -0.75907247159E+02 -0.17680084629E+02  0.78155665540E+02  0.47000000000E+01 0. -1.
         -5    1    3    3    0  502  0.32423007437E+02  0.25925337152E+02 -0.81401521473E+02  0.91496842655E+02  0.47000000000E+01 0. -1.
        -11    1    1    2    0    0 -0.13332533961E+02 -0.24860096628E+02 -0.16889301801E+02  0.32879011261E+02  0.00000000000E+00 0.  1.
         11    1    1    2    0    0 -0.15666660941E+02  0.74842006634E+02 -0.12364151052E+03  0.14537535330E+03  0.00000000000E+00 0. -1.
<mgrwt>
<rscale>  0 0.13009018E+03</rscale>
<asrwt>0</asrwt>
<pdfrwt beam="2">  1        1 0.45193791E-01 0.13771278E+03</pdfrwt>
<pdfrwt beam="1">  1       -1 0.83303428E-02 0.13771278E+03</pdfrwt>
<totfact> 0.69402688E+03</totfact>
</mgrwt>
</event>
<event>
 7    1  0.6387485E-006  0.1710331E+03  0.7546771E-02  0.1183067E+00
          3   -1    0    0  501    0  0.00000000000E+00  0.00000000000E+00  0.11950099126E+04  0.11950099126E+04  0.00000000000E+00 0. -1.
         -3   -1    0    0    0  501 -0.00000000000E+00 -0.00000000000E+00 -0.21559047039E+02  0.21559047039E+02  0.00000000000E+00 0.  1.
         23    2    1    2    0    0  0.44892831245E+02 -0.10775461022E+03  0.68663672669E+03  0.70761736298E+03  0.12500366247E+03 0.  0.
          5    1    3    3  502    0  0.28467005948E+02  0.23875114899E+02  0.18225121601E+03  0.18605909620E+03  0.47000000000E+01 0. -1.
         -5    1    3    3    0  502  0.16425825297E+02 -0.13162972511E+03  0.50438551068E+03  0.52155826679E+03  0.47000000000E+01 0. -1.
        -11    1    1    2    0    0 -0.48204059775E+02  0.70023674707E+02  0.44278862021E+03  0.45087549123E+03  0.00000000000E+00 0. -1.
         11    1    1    2    0    0  0.33112285295E+01  0.37730935509E+02  0.44025518644E+02  0.58076105419E+02  0.00000000000E+00 0.  1.
<mgrwt>
<rscale>  0 0.16509003E+03</rscale>
<asrwt>0</asrwt>
<pdfrwt beam="1">  1        3 0.18384763E+00 0.17103315E+03</pdfrwt>
<pdfrwt beam="2">  1       -3 0.33167774E-02 0.17103315E+03</pdfrwt>
<totfact> 0.21263281E+02</totfact>
</mgrwt>
</event>
<event>
 7    1  0.6387485E-006  0.1821771E+03  0.7546771E-02  0.1170929E+00
          1   -1    0    0  501    0  0.00000000000E+00  0.00000000000E+00  0.16196973279E+03  0.16196973279E+03  0.00000000000E+00 0. -1.
         -1   -1    0    0    0  501 -0.00000000000E+00 -0.00000000000E+00 -0.20612295777E+03  0.20612295777E+03  0.00000000000E+00 0.  1.
         23    2    1    2    0    0  0.81222402574E+02 -0.10453396763E+03 -0.85523987001E+02  0.20125323148E+03  0.12515622941E+03 0.  0.
          5    1    3    3  502    0 -0.21729303279E+01  0.17853948523E+02 -0.43390288845E+02  0.47204790753E+02  0.47000000000E+01 0.  1.
         -5    1    3    3    0  502  0.83395332901E+02 -0.12238791616E+03 -0.42133698157E+02  0.15404844073E+03  0.47000000000E+01 0.  1.
        -11    1    1    2    0    0  0.14971317189E+02  0.38389294894E+02 -0.44153853527E+01  0.41441210511E+02  0.00000000000E+00 0.  1.
         11    1    1    2    0    0 -0.96193719762E+02  0.66144672740E+02  0.45786147375E+02  0.12539824857E+03  0.00000000000E+00 0. -1.
<mgrwt>
<rscale>  0 0.17680726E+03</rscale>
<asrwt>0</asrwt>
<pdfrwt beam="1">  1        1 0.24918421E-01 0.18217714E+03</pdfrwt>
<pdfrwt beam="2">  1       -1 0.31711224E-01 0.18217714E+03</pdfrwt>
<totfact> 0.17615618E+03</totfact>
</mgrwt>
</event>
<event>
 7    1  0.6387485E-006  0.1326357E+03  0.7546771E-02  0.1238070E+00
         -1   -1    0    0    0  501 -0.00000000000E+00  0.00000000000E+00  0.95987535215E+03  0.95987535215E+03  0.00000000000E+00 0.  1.
          1   -1    0    0  501    0  0.00000000000E+00 -0.00000000000E+00 -0.16526072963E+02  0.16526072963E+02  0.00000000000E+00 0. -1.
         23    2    1    2    0    0 -0.42296198200E+02 -0.13520430839E+02  0.72313944450E+03  0.73520261916E+03  0.12498185710E+03 0.  0.
          5    1    3    3  502    0 -0.83340432136E+02 -0.99323129264E+01  0.58388132577E+03  0.58990149267E+03  0.47000000000E+01 0.  1.
         -5    1    3    3    0  502  0.41044233936E+02 -0.35881179123E+01  0.13925811873E+03  0.14530112649E+03  0.47000000000E+01 0.  1.
        -11    1    1    2    0    0 -0.96771894685E+01  0.27646807260E+02  0.14934138950E+03  0.15218687383E+03  0.00000000000E+00 0.  1.
         11    1    1    2    0    0  0.51973387669E+02 -0.14126376421E+02  0.70868445192E+02  0.89011932124E+02  0.00000000000E+00 0. -1.
<mgrwt>
<rscale>  0 0.12309913E+03</rscale>
<asrwt>0</asrwt>
<pdfrwt beam="2">  1        1 0.25424735E-02 0.13263572E+03</pdfrwt>
<pdfrwt beam="1">  1       -1 0.14767309E+00 0.13263572E+03</pdfrwt>
<totfact> 0.16484936E+03</totfact>
</mgrwt>
</event>
<event>
 7    1  0.6387485E-006  0.1306811E+03  0.7546771E-02  0.1240464E+00
          1   -1    0    0  501    0  0.00000000000E+00  0.00000000000E+00  0.32297068507E+03  0.32297068507E+03  0.00000000000E+00 0. -1.
         -1   -1    0    0    0  501 -0.00000000000E+00 -0.00000000000E+00 -0.65985577746E+02  0.65985577746E+02  0.00000000000E+00 0.  1.
         23    2    1    2    0    0  0.35695087965E+02  0.13281760543E+02  0.19607979637E+02  0.13214394010E+03  0.12500801403E+03 0.  0.
          5    1    3    3  502    0  0.69259729405E+02  0.13565173207E+01  0.49610938485E+02  0.85335136221E+02  0.47000000000E+01 0. -1.
         -5    1    3    3    0  502 -0.33564641440E+02  0.11925243222E+02 -0.30002958847E+02  0.46808803878E+02  0.47000000000E+01 0. -1.
        -11    1    1    2    0    0 -0.60886959409E+02 -0.26907434534E+02  0.13523414845E+03  0.15072991331E+03  0.00000000000E+00 0.  1.
         11    1    1    2    0    0  0.25191871444E+02  0.13625673991E+02  0.10214297923E+03  0.10608240941E+03  0.00000000000E+00 0. -1.
<mgrwt>
<rscale>  0 0.12161016E+03</rscale>
<asrwt>0</asrwt>
<pdfrwt beam="1">  1        1 0.49687796E-01 0.13068109E+03</pdfrwt>
<pdfrwt beam="2">  1       -1 0.10151628E-01 0.13068109E+03</pdfrwt>
<totfact> 0.45560636E+03</totfact>
</mgrwt>
</event>
<event>
 6    1  0.6387485E-006  0.1787781E+03  0.7546771E-02  0.1181726E+00
         -1   -1    0    0    0  501 -0.00000000000E+00  0.00000000000E+00  0.44322719761E+02  0.44322719761E+02  0.00000000000E+00 0.  1.
          1   -1    0    0  501    0  0.00000000000E+00 -0.00000000000E+00 -0.66963440883E+03  0.66963440883E+03  0.00000000000E+00 0. -1.
          5    1    1    2  502    0 -0.91195343084E+01 -0.41656300001E+02 -0.20509075743E+03  0.20952976404E+03  0.47000000000E+01 0. -1.
         -5    1    1    2    0  502  0.21525775015E+02 -0.55098319795E+02  0.40810406670E+01  0.59480490307E+02  0.47000000000E+01 0.  1.
        -11    1    1    2    0    0 -0.43077168680E+02  0.40178353883E+02 -0.29126326727E+03  0.29716028241E+03  0.00000000000E+00 0.  1.
         11    1    1    2    0    0  0.30670927974E+02  0.56576265913E+02 -0.13303870503E+03  0.14778659183E+03  0.00000000000E+00 0. -1.
<mgrwt>
<rscale>  0 0.16633374E+03</rscale>
<asrwt>0</asrwt>
<pdfrwt beam="2">  1        1 0.10302068E+00 0.17877810E+03</pdfrwt>
<pdfrwt beam="1">  1       -1 0.68188797E-02 0.17877810E+03</pdfrwt>
<totfact> 0.32602665E+03</totfact>
</mgrwt>
</event>
<event>
 7    1  0.6387485E-006  0.1585807E+03  0.7546771E-02  0.1198772E+00
          1   -1    0    0  501    0  0.00000000000E+00  0.00000000000E+00  0.10003848273E+04  0.10003848273E+04  0.00000000000E+00 0. -1.
         -1   -1    0    0    0  501 -0.00000000000E+00 -0.00000000000E+00 -0.26116220160E+02  0.26116220160E+02  0.00000000000E+00 0.  1.
         23    2    1    2    0    0  0.40424792221E+02 -0.88816803514E+02  0.29845011551E+03  0.33796495047E+03  0.12500099155E+03 0.  0.
          5    1    3    3  502    0 -0.41939320104E+02 -0.91474356871E+01  0.96513698644E+02  0.10573346763E+03  0.47000000000E+01 0.  1.
         -5    1    3    3    0  502  0.82364112325E+02 -0.79669367827E+02  0.20193641687E+03  0.23223148285E+03  0.47000000000E+01 0.  1.
        -11    1    1    2    0    0  0.14475213552E+02  0.73141437799E+02  0.37154046172E+03  0.37894790728E+03  0.00000000000E+00 0.  1.
         11    1    1    2    0    0 -0.54900005774E+02  0.15675365715E+02  0.30427802989E+03  0.30958818969E+03  0.00000000000E+00 0. -1.
<mgrwt>
<rscale>  0 0.15139248E+03</rscale>
<asrwt>0</asrwt>
<pdfrwt beam="1">  1        1 0.15390533E+00 0.15858069E+03</pdfrwt>
<pdfrwt beam="2">  1       -1 0.40178808E-02 0.15858069E+03</pdfrwt>
<totfact> 0.38466740E+03</totfact>
</mgrwt>
</event>
<event>
 6    1  0.6387485E-006  0.1989444E+03  0.7546771E-02  0.1159699E+00
          2   -1    0    0  501    0  0.00000000000E+00  0.00000000000E+00  0.27045276666E+03  0.27045276666E+03  0.00000000000E+00 0. -1.
         -2   -1    0    0    0  501 -0.00000000000E+00 -0.00000000000E+00 -0.12341946538E+03  0.12341946538E+03  0.00000000000E+00 0.  1.
          5    1    1    2  502    0  0.25138278518E+02  0.30549204278E+02  0.43734696587E+02  0.59160803024E+02  0.47000000000E+01 0. -1.
         -5    1    1    2    0  502 -0.14103729682E+03  0.34078580276E+02  0.30188993404E+01  0.14520355533E+03  0.47000000000E+01 0.  1.
        -11    1    1    2    0    0  0.94671141448E+02 -0.72357794982E+02  0.40907710717E+02  0.12598300010E+03  0.00000000000E+00 0. -1.
         11    1    1    2    0    0  0.21227876856E+02  0.77300104287E+01  0.59371994636E+02  0.63524873585E+02  0.00000000000E+00 0.  1.
<mgrwt>
<rscale>  0 0.18863470E+03</rscale>
<asrwt>0</asrwt>
<pdfrwt beam="1">  1        2 0.41608118E-01 0.19894445E+03</pdfrwt>
<pdfrwt beam="2">  1       -2 0.18987610E-01 0.19894445E+03</pdfrwt>
<totfact> 0.27714954E+03</totfact>
</mgrwt>
</event>
<event>
 7    1  0.6387485E-006  0.1738262E+03  0.7546771E-02  0.1178997E+00
          1   -1    0    0  501    0  0.00000000000E+00  0.00000000000E+00  0.54996042262E+03  0.54996042262E+03  0.00000000000E+00 0. -1.
         -1   -1    0    0    0  501 -0.00000000000E+00 -0.00000000000E+00 -0.65807644277E+02  0.65807644277E+02  0.00000000000E+00 0.  1.
         23    2    1    2    0    0  0.10584902906E+03  0.58193721653E+02  0.97685376910E+02  0.19939407480E+03  0.12500015204E+03 0.  0.
          5    1    3    3  502    0  0.23292314035E+02 -0.39305460434E+02  0.28018272302E+02  0.53801158871E+02  0.47000000000E+01 0. -1.
         -5    1    3    3    0  502  0.82556715024E+02  0.97499182088E+02  0.69667104608E+02  0.14559291593E+03  0.47000000000E+01 0. -1.
        -11    1    1    2    0    0 -0.34085505939E+02 -0.73922089034E+02  0.20994631988E+03  0.22517494131E+03  0.00000000000E+00 0. -1.
         11    1    1    2    0    0 -0.71763523119E+02  0.15728367380E+02  0.17652108156E+03  0.19119905080E+03  0.00000000000E+00 0.  1.
<mgrwt>
<rscale>  0 0.16890251E+03</rscale>
<asrwt>0</asrwt>
<pdfrwt beam="1">  1        1 0.84609293E-01 0.17382625E+03</pdfrwt>
<pdfrwt beam="2">  1       -1 0.10124253E-01 0.17382625E+03</pdfrwt>
<totfact> 0.23426403E+03</totfact>
</mgrwt>
</event>
<event>
 7    1  0.6387485E-006  0.2280459E+03  0.7546771E-02  0.1131082E+00
         -1   -1    0    0    0  501 -0.00000000000E+00  0.00000000000E+00  0.52609086399E+02  0.52609086399E+02  0.00000000000E+00 0.  1.
          1   -1    0    0  501    0  0.00000000000E+00 -0.00000000000E+00 -0.98226298181E+03  0.98226298181E+03  0.00000000000E+00 0. -1.
         23    2    1    2    0    0  0.13961811201E+02  0.19021715097E+03 -0.34910158138E+03  0.41698543004E+03  0.12500975181E+03 0.  0.
          5    1    3    3  502    0  0.14436591511E+02  0.18631961531E+03 -0.22409465666E+03  0.29182857873E+03  0.47000000000E+01 0.  1.
         -5    1    3    3    0  502 -0.47478031085E+00  0.38975356659E+01 -0.12500692472E+03  0.12515685130E+03  0.47000000000E+01 0.  1.
        -11    1    1    2    0    0 -0.49453350533E+02 -0.10155806299E+03 -0.36613165733E+03  0.38316062498E+03  0.00000000000E+00 0.  1.
         11    1    1    2    0    0  0.35491539332E+02 -0.88659087986E+02 -0.21442065671E+03  0.23472601319E+03  0.00000000000E+00 0. -1.
<mgrwt>
<rscale>  0 0.22379853E+03</rscale>
<asrwt>0</asrwt>
<pdfrwt beam="2">  1        1 0.15111736E+00 0.22804590E+03</pdfrwt>
<pdfrwt beam="1">  1       -1 0.80937066E-02 0.22804590E+03</pdfrwt>
<totfact> 0.13954547E+03</totfact>
</mgrwt>
</event>
<event>
 7    1  0.6387485E-006  0.1644886E+03  0.7546771E-02  0.1190743E+00
         -2   -1    0    0    0  501 -0.00000000000E+00  0.00000000000E+00  0.35785987747E+03  0.35785987747E+03  0.00000000000E+00 0.  1.
          2   -1    0    0  501    0  0.00000000000E+00 -0.00000000000E+00 -0.69205614454E+02  0.69205614454E+02  0.00000000000E+00 0. -1.
         23    2    1    2    0    0 -0.55990080400E+02 -0.91089939480E+02  0.20683939791E+03  0.26427075534E+03  0.12499691766E+03 0.  0.
          5    1    3    3  502    0 -0.41113007369E+02 -0.12224654267E+03  0.15333104561E+03  0.20041705545E+03  0.47000000000E+01 0. -1.
         -5    1    3    3    0  502 -0.14877073031E+02  0.31156603186E+02  0.53508352300E+02  0.63853699892E+02  0.47000000000E+01 0. -1.
        -11    1    1    2    0    0  0.55625756168E+02  0.10777687688E+03  0.81456254860E+02  0.14609997055E+03  0.00000000000E+00 0.  1.
         11    1    1    2    0    0  0.36432423204E+00 -0.16686937395E+02  0.35861025469E+00  0.16694766038E+02  0.00000000000E+00 0. -1.
<mgrwt>
<rscale>  0 0.15820061E+03</rscale>
<asrwt>0</asrwt>
<pdfrwt beam="2">  1        2 0.10647018E-01 0.16448859E+03</pdfrwt>
<pdfrwt beam="1">  1       -2 0.55055365E-01 0.16448859E+03</pdfrwt>
<totfact> 0.18287505E+03</totfact>
</mgrwt>
</event>
<event>
 6    1  0.6387485E-006  0.2021717E+03  0.7546771E-02  0.1172826E+00
         -2   -1    0    0    0  501 -0.00000000000E+00  0.00000000000E+00  0.24067408585E+03  0.24067408585E+03  0.00000000000E+00 0.  1.
          2   -1    0    0  501    0  0.00000000000E+00 -0.00000000000E+00 -0.13526030716E+03  0.13526030716E+03  0.00000000000E+00 0. -1.
          5    1    1    2  502    0 -0.11386405299E+02 -0.40691522150E+02 -0.33319691651E+02  0.54016127705E+02  0.47000000000E+01 0. -1.
         -5    1    1    2    0  502  0.70915928010E+02  0.10183671356E+02  0.18586267072E+03  0.19924808249E+03  0.47000000000E+01 0.  1.
        -11    1    1    2    0    0 -0.49967624606E+02  0.62359373845E+02 -0.31027982857E+02  0.85721588502E+02  0.00000000000E+00 0.  1.
         11    1    1    2    0    0 -0.95618981050E+01 -0.31851523051E+02 -0.16101217523E+02  0.36948594314E+02  0.00000000000E+00 0. -1.
<mgrwt>
<rscale>  0 0.17490617E+03</rscale>
<asrwt>0</asrwt>
<pdfrwt beam="2">  1        2 0.20809278E-01 0.20217171E+03</pdfrwt>
<pdfrwt beam="1">  1       -2 0.37026782E-01 0.20217171E+03</pdfrwt>
<totfact> 0.18102255E+03</totfact>
</mgrwt>
</event>
<event>
 7    1  0.6387485E-006  0.1451518E+03  0.7546771E-02  0.1216282E+00
         -2   -1    0    0    0  501 -0.00000000000E+00  0.00000000000E+00  0.32475832156E+02  0.32475832156E+02  0.00000000000E+00 0.  1.
          2   -1    0    0  501    0  0.00000000000E+00 -0.00000000000E+00 -0.61324541746E+03  0.61324541746E+03  0.00000000000E+00 0. -1.
         23    2    1    2    0    0 -0.17276241122E+02 -0.71729678349E+02 -0.20023661071E+03  0.24731303884E+03  0.12500169458E+03 0.  0.
          5    1    3    3  502    0 -0.93466254653E+01 -0.10758150188E+03 -0.15180689158E+03  0.18635600684E+03  0.47000000000E+01 0.  1.
         -5    1    3    3    0  502 -0.79296156570E+01  0.35851823533E+02 -0.48429719134E+02  0.60957032002E+02  0.47000000000E+01 0.  1.
        -11    1    1    2    0    0  0.25959955299E+02  0.59212897293E+02 -0.37734551898E+03  0.38284425970E+03  0.00000000000E+00 0. -1.
         11    1    1    2    0    0 -0.86837141772E+01  0.12516781056E+02 -0.31874556086E+01  0.15563951078E+02  0.00000000000E+00 0.  1.
<mgrwt>
<rscale>  0 0.13782764E+03</rscale>
<asrwt>0</asrwt>
<pdfrwt beam="2">  1        2 0.94345439E-01 0.14515178E+03</pdfrwt>
<pdfrwt beam="1">  1       -2 0.49962824E-02 0.14515178E+03</pdfrwt>
<totfact> 0.92615033E+03</totfact>
</mgrwt>
</event>
<event>
 7    1  0.6387485E-006  0.1249974E+03  0.7546771E-02  0.1250408E+00
          2   -1    0    0  501    0  0.00000000000E+00  0.00000000000E+00  0.33072087315E+03  0.33072087315E+03  0.00000000000E+00 0. -1.
         -2   -1    0    0    0  501 -0.00000000000E+00 -0.00000000000E+00 -0.44238296957E+02  0.44238296957E+02  0.00000000000E+00 0.  1.
         23    2    1    2    0    0  0.41377051037E+01 -0.15871213239E+01  0.78329005983E+02  0.14751194745E+03  0.12491878124E+03 0.  0.
          5    1    3    3  502    0 -0.24408661284E+02 -0.36888498811E+02 -0.12203115452E+02  0.46125373894E+02  0.47000000000E+01 0.  1.
         -5    1    3    3    0  502  0.28546366387E+02  0.35301377487E+02  0.90532121436E+02  0.10138657356E+03  0.47000000000E+01 0.  1.
        -11    1    1    2    0    0 -0.43175883020E+02  0.12922760909E+02  0.68490221082E+02  0.81988200419E+02  0.00000000000E+00 0.  1.
         11    1    1    2    0    0  0.39038177917E+02 -0.11335639585E+02  0.13966334912E+03  0.14545902223E+03  0.00000000000E+00 0. -1.
<mgrwt>
<rscale>  0 0.11567474E+03</rscale>
<asrwt>0</asrwt>
<pdfrwt beam="1">  1        2 0.50880133E-01 0.12499737E+03</pdfrwt>
<pdfrwt beam="2">  1       -2 0.68058921E-02 0.12499737E+03</pdfrwt>
<totfact> 0.11239825E+04</totfact>
</mgrwt>
</event>
<event>
 7    1  0.6387485E-006  0.1402195E+03  0.7546771E-02  0.1224002E+00
          2   -1    0    0  501    0  0.00000000000E+00  0.00000000000E+00  0.38027368839E+03  0.38027368839E+03  0.00000000000E+00 0. -1.
         -2   -1    0    0    0  501 -0.00000000000E+00 -0.00000000000E+00 -0.50855102168E+02  0.50855102168E+02  0.00000000000E+00 0.  1.
         23    2    1    2    0    0 -0.35364175603E+02 -0.52742810595E+02  0.88697914405E+02  0.16591815836E+03  0.12501634401E+03 0.  0.
          5    1    3    3  502    0  0.15984243740E+02 -0.76873635134E+02  0.30105315231E+02  0.84222751272E+02  0.47000000000E+01 0.  1.
         -5    1    3    3    0  502 -0.51348419343E+02  0.24130824539E+02  0.58592599173E+02  0.81695407091E+02  0.47000000000E+01 0.  1.
        -11    1    1    2    0    0 -0.77504696911E+01  0.13140296471E+02 -0.21296777391E+01  0.15403658625E+02  0.00000000000E+00 0.  1.
         11    1    1    2    0    0  0.43114645294E+02  0.39602514125E+02  0.24285034955E+03  0.24980697356E+03  0.00000000000E+00 0. -1.
<mgrwt>
<rscale>  0 0.13235530E+03</rscale>
<asrwt>0</asrwt>
<pdfrwt beam="1">  1        2 0.58503642E-01 0.14021953E+03</pdfrwt>
<pdfrwt beam="2">  1       -2 0.78238621E-02 0.14021953E+03</pdfrwt>
<totfact> 0.78907302E+03</totfact>
</mgrwt>
</event>
<event>
 7    1  0.6387485E-006  0.3525797E+03  0.7546771E-02  0.1062688E+00
          1   -1    0    0  501    0  0.00000000000E+00  0.00000000000E+00  0.33673377388E+03  0.33673377388E+03  0.00000000000E+00 0. -1.
         -1   -1    0    0    0  501 -0.00000000000E+00 -0.00000000000E+00 -0.36274775773E+03  0.36274775773E+03  0.00000000000E+00 0.  1.
         23    2    1    2    0    0  0.21764236718E+03  0.24762707438E+03  0.27445209150E+02  0.35364623969E+03  0.12500022154E+03 0.  0.
          5    1    3    3  502    0  0.19051539585E+03  0.20470694723E+03  0.68767052455E+02  0.28801397154E+03  0.47000000000E+01 0.  1.
         -5    1    3    3    0  502  0.27126971326E+02  0.42920127152E+02 -0.41321843305E+02  0.65632268147E+02  0.47000000000E+01 0.  1.
        -11    1    1    2    0    0  0.20154879464E+01 -0.18606481468E+02 -0.18946428563E+02  0.26631381856E+02  0.00000000000E+00 0.  1.
         11    1    1    2    0    0 -0.21965785513E+03 -0.22902059291E+03 -0.34512764437E+02  0.31920391007E+03  0.00000000000E+00 0. -1.
<mgrwt>
<rscale>  0 0.34982218E+03</rscale>
<asrwt>0</asrwt>
<pdfrwt beam="1">  1        1 0.51805196E-01 0.35257967E+03</pdfrwt>
<pdfrwt beam="2">  1       -1 0.55807347E-01 0.35257967E+03</pdfrwt>
<totfact> 0.25290201E+02</totfact>
</mgrwt>
</event>
<event>
 7    1  0.6387485E-006  0.1695336E+03  0.7546771E-02  0.1185449E+00
          1   -1    0    0  501    0  0.00000000000E+00  0.00000000000E+00  0.71915006672E+03  0.71915006672E+03  0.00000000000E+00 0. -1.
         -1   -1    0    0    0  501 -0.00000000000E+00 -0.00000000000E+00 -0.36307045422E+02  0.36307045422E+02  0.00000000000E+00 0.  1.
         23    2    1    2    0    0  0.78251414469E+02  0.83497856343E+02  0.27840907197E+03  0.32596513503E+03  0.12508589858E+03 0.  0.
          5    1    3    3  502    0  0.52363589202E+02 -0.23846606417E+02  0.11519652730E+03  0.12885238071E+03  0.47000000000E+01 0. -1.
         -5    1    3    3    0  502  0.25887825268E+02  0.10734446276E+03  0.16321254466E+03  0.19711275432E+03  0.47000000000E+01 0. -1.
        -11    1    1    2    0    0  0.19279344917E+02 -0.20043025861E+02  0.66228833686E+02  0.71830873846E+02  0.00000000000E+00 0.  1.
         11    1    1    2    0    0 -0.97530759387E+02 -0.63454830482E+02  0.33820511565E+03  0.35766110327E+03  0.00000000000E+00 0. -1.
<mgrwt>
<rscale>  0 0.16291131E+03</rscale>
<asrwt>0</asrwt>
<pdfrwt beam="1">  1        1 0.11063846E+00 0.16953365E+03</pdfrwt>
<pdfrwt beam="2">  1       -1 0.55856998E-02 0.16953365E+03</pdfrwt>
<totfact> 0.39621339E+03</totfact>
</mgrwt>
</event>
<event>
 7    1  0.6387485E-006  0.1279296E+03  0.7546771E-02  0.1245477E+00
         -1   -1    0    0    0  501 -0.00000000000E+00  0.00000000000E+00  0.47621699171E+03  0.47621699171E+03  0.00000000000E+00 0.  1.
          1   -1    0    0  501    0  0.00000000000E+00 -0.00000000000E+00 -0.26317188118E+02  0.26317188118E+02  0.00000000000E+00 0. -1.
         23    2    1    2    0    0 -0.44126038744E+01 -0.26869637688E+02  0.28777875628E+03  0.31493268409E+03  0.12499813774E+03 0.  0.
          5    1    3    3  502    0  0.13186141930E+01  0.42286231434E+02  0.19141285608E+03  0.19608884615E+03  0.47000000000E+01 0.  1.
         -5    1    3    3    0  502 -0.57312180674E+01 -0.69155869122E+02  0.96365900203E+02  0.11884383794E+03  0.47000000000E+01 0.  1.
        -11    1    1    2    0    0  0.23327415402E+02  0.45666897827E+02  0.14959381552E+03  0.15813900059E+03  0.00000000000E+00 0.  1.
         11    1    1    2    0    0 -0.18914811528E+02 -0.18797260139E+02  0.12527231790E+02  0.29462495145E+02  0.00000000000E+00 0. -1.
<mgrwt>
<rscale>  0 0.11856858E+03</rscale>
<asrwt>0</asrwt>
<pdfrwt beam="2">  1        1 0.40487985E-02 0.12792960E+03</pdfrwt>
<pdfrwt beam="1">  1       -1 0.73264146E-01 0.12792960E+03</pdfrwt>
<totfact> 0.41695847E+03</totfact>
</mgrwt>
</event>
<event>
 7    1  0.6387485E-006  0.1587868E+03  0.7546771E-02  0.1198711E+00
          2   -1    0    0  501    0  0.00000000000E+00  0.00000000000E+00  0.48271835345E+02  0.48271835345E+02  0.00000000000E+00 0. -1.
         -2   -1    0    0    0  501 -0.00000000000E+00 -0.00000000000E+00 -0.45977140289E+03  0.45977140289E+03  0.00000000000E+00 0.  1.
         23    2    1    2    0    0  0.79290552056E+02  0.57620638191E+02 -0.28159294761E+03  0.32327673099E+03  0.12492448545E+03 0.  0.
          5    1    3    3  502    0  0.32964624337E+02 -0.30904910923E+02 -0.15733124994E+03  0.16375894536E+03  0.47000000000E+01 0. -1.
         -5    1    3    3    0  502  0.46325927719E+02  0.88525549114E+02 -0.12426169766E+03  0.15951778563E+03  0.47000000000E+01 0. -1.
        -11    1    1    2    0    0 -0.86057230414E+02 -0.71620656097E+02 -0.12634407846E+03  0.16881407361E+03  0.00000000000E+00 0.  1.
         11    1    1    2    0    0  0.67666783579E+01  0.14000017906E+02 -0.35625414852E+01  0.15952433645E+02  0.00000000000E+00 0. -1.
<mgrwt>
<rscale>  0 0.15144334E+03</rscale>
<asrwt>0</asrwt>
<pdfrwt beam="1">  1        2 0.74264360E-02 0.15878683E+03</pdfrwt>
<pdfrwt beam="2">  1       -2 0.70734064E-01 0.15878683E+03</pdfrwt>
<totfact> 0.17001937E+03</totfact>
</mgrwt>
</event>
<event>
 7    1  0.6387485E-006  0.1474381E+03  0.7546771E-02  0.1212384E+00
         -2   -1    0    0    0  501 -0.00000000000E+00  0.00000000000E+00  0.36026089780E+03  0.36026089780E+03  0.00000000000E+00 0. -1.
          2   -1    0    0  501    0  0.00000000000E+00 -0.00000000000E+00 -0.52177498189E+02  0.52177498189E+02  0.00000000000E+00 0.  1.
         23    2    1    2    0    0  0.76168942355E+02 -0.17632406100E+02  0.20488617200E+03  0.25242097829E+03  0.12500158910E+03 0.  0.
          5    1    3    3  502    0  0.86271521269E+02  0.18593673297E+01  0.21194440687E+03  0.22888589784E+03  0.47000000000E+01 0.  1.
         -5    1    3    3    0  502 -0.10102578914E+02 -0.19491773429E+02 -0.70582348639E+01  0.23535080444E+02  0.47000000000E+01 0.  1.
        -11    1    1    2    0    0 -0.65321139774E+02 -0.55997911668E+01  0.13775427034E+02  0.66992323086E+02  0.00000000000E+00 0.  1.
         11    1    1    2    0    0 -0.10847802581E+02  0.23232197267E+02  0.89421800571E+02  0.93025094614E+02  0.00000000000E+00 0. -1.
<mgrwt>
<rscale>  0 0.14070482E+03</rscale>
<asrwt>0</asrwt>
<pdfrwt beam="2">  1        2 0.80273076E-02 0.14743815E+03</pdfrwt>
<pdfrwt beam="1">  1       -2 0.55424752E-01 0.14743815E+03</pdfrwt>
<totfact> 0.25475984E+03</totfact>
</mgrwt>
</event>
<event>
 7    1  0.6387485E-006  0.1578583E+03  0.7546771E-02  0.1198933E+00
         -2   -1    0    0    0  501 -0.00000000000E+00  0.00000000000E+00  0.52319216938E+02  0.52319216938E+02  0.00000000000E+00 0.  1.
          2   -1    0    0  501    0  0.00000000000E+00 -0.00000000000E+00 -0.40730977421E+03  0.40730977421E+03  0.00000000000E+00 0. -1.
         23    2    1    2    0    0 -0.93771955704E+02 -0.22315697030E+02 -0.21169123868E+03  0.26406899282E+03  0.12501232910E+03 0.  0.
          5    1    3    3  502    0 -0.18529919661E+02 -0.13391785704E+02  0.13127423031E+02  0.26779041850E+02  0.47000000000E+01 0.  1.
         -5    1    3    3    0  502 -0.75242036042E+02 -0.89239113255E+01 -0.22481866171E+03  0.23728995097E+03  0.47000000000E+01 0.  1.
        -11    1    1    2    0    0  0.69568556017E+02  0.54982855944E+02 -0.11825908244E+03  0.14781105850E+03  0.00000000000E+00 0.  1.
         11    1    1    2    0    0  0.24203399686E+02 -0.32667158914E+02 -0.25040236152E+02  0.47748939825E+02  0.00000000000E+00 0. -1.
<mgrwt>
<rscale>  0 0.15126029E+03</rscale>
<asrwt>0</asrwt>
<pdfrwt beam="2">  1        2 0.62663040E-01 0.15785833E+03</pdfrwt>
<pdfrwt beam="1">  1       -2 0.80491106E-02 0.15785833E+03</pdfrwt>
<totfact> 0.70685719E+03</totfact>
</mgrwt>
</event>
<event>
 7    1  0.6387485E-006  0.1315849E+03  0.7546771E-02  0.1238332E+00
         -1   -1    0    0    0  501 -0.00000000000E+00  0.00000000000E+00  0.58444073413E+03  0.58444073413E+03  0.00000000000E+00 0.  1.
          1   -1    0    0  501    0  0.00000000000E+00 -0.00000000000E+00 -0.26590458628E+02  0.26590458628E+02  0.00000000000E+00 0. -1.
         23    2    1    2    0    0 -0.17982280003E+02 -0.36951044057E+02  0.42303127562E+03  0.44302374488E+03  0.12500334524E+03 0.  0.
          5    1    3    3  502    0 -0.97624507123E+01 -0.83238579821E+02  0.25378928660E+03  0.26731079029E+03  0.47000000000E+01 0. -1.
         -5    1    3    3    0  502 -0.82198292904E+01  0.46287535763E+02  0.16924198902E+03  0.17571295458E+03  0.47000000000E+01 0. -1.
        -11    1    1    2    0    0 -0.23246392730E+02  0.51314200307E+02  0.81887651148E+02  0.99393809358E+02  0.00000000000E+00 0. -1.
         11    1    1    2    0    0  0.41228672733E+02 -0.14363156249E+02  0.52931348732E+02  0.68613638522E+02  0.00000000000E+00 0.  1.
<mgrwt>
<rscale>  0 0.12293543E+03</rscale>
<asrwt>0</asrwt>
<pdfrwt beam="2">  1        1 0.40908402E-02 0.13158487E+03</pdfrwt>
<pdfrwt beam="1">  1       -1 0.89913950E-01 0.13158487E+03</pdfrwt>
<totfact> 0.27039744E+03</totfact>
</mgrwt>
</event>
<event>
 7    1  0.6387485E-006  0.1258539E+03  0.7546771E-02  0.1248954E+00
          2   -1    0    0  501    0  0.00000000000E+00  0.00000000000E+00  0.27730910611E+03  0.27730910611E+03  0.00000000000E+00 0.  1.
         -2   -1    0    0    0  501 -0.00000000000E+00 -0.00000000000E+00 -0.43100394098E+02  0.43100394098E+02  0.00000000000E+00 0. -1.
         23    2    1    2    0    0  0.10929575954E+02 -0.97679132291E+01  0.14368422871E+03  0.19100877867E+03  0.12499731274E+03 0.  0.
          5    1    3    3  502    0 -0.34849697564E+01  0.55081330975E+02  0.89033509655E+02  0.10485777929E+03  0.47000000000E+01 0. -1.
         -5    1    3    3    0  502  0.14414545710E+02 -0.64849244204E+02  0.54650719053E+02  0.86150999384E+02  0.47000000000E+01 0. -1.
        -11    1    1    2    0    0  0.23945057833E+02  0.22778479031E+02  0.85718976266E+02  0.91869297340E+02  0.00000000000E+00 0.  1.
         11    1    1    2    0    0 -0.34874633787E+02 -0.13010565801E+02  0.48055070400E+01  0.37531424196E+02  0.00000000000E+00 0. -1.
<mgrwt>
<rscale>  0 0.11651849E+03</rscale>
<asrwt>0</asrwt>
<pdfrwt beam="1">  1        2 0.42662938E-01 0.12585387E+03</pdfrwt>
<pdfrwt beam="2">  1       -2 0.66308300E-02 0.12585387E+03</pdfrwt>
<totfact> 0.14096021E+04</totfact>
</mgrwt>
</event>
<event>
 7    1  0.6387485E-006  0.1253020E+03  0.7546771E-02  0.1249275E+00
         -1   -1    0    0    0  501 -0.00000000000E+00  0.00000000000E+00  0.55417434557E+02  0.55417434557E+02  0.00000000000E+00 0. -1.
          1   -1    0    0  501    0  0.00000000000E+00 -0.00000000000E+00 -0.21780645607E+03  0.21780645607E+03  0.00000000000E+00 0.  1.
         23    2    1    2    0    0  0.70569904548E+01  0.33581060448E+01 -0.78143305320E+02  0.14767183827E+03  0.12505805716E+03 0.  0.
          5    1    3    3  502    0 -0.37133384149E+02 -0.14439529595E+01 -0.93248247566E+02  0.10049029253E+03  0.47000000000E+01 0. -1.
         -5    1    3    3    0  502  0.44190374603E+02  0.48020590043E+01  0.15104942246E+02  0.47181545741E+02  0.47000000000E+01 0. -1.
        -11    1    1    2    0    0  0.13125523483E+02 -0.44962929147E+02 -0.43311913180E+02  0.63795502878E+02  0.00000000000E+00 0.  1.
         11    1    1    2    0    0 -0.20182513938E+02  0.41604823102E+02 -0.40933803012E+02  0.61756549476E+02  0.00000000000E+00 0. -1.
<mgrwt>
<rscale>  0 0.11633107E+03</rscale>
<asrwt>0</asrwt>
<pdfrwt beam="2">  1        1 0.33508685E-01 0.12530202E+03</pdfrwt>
<pdfrwt beam="1">  1       -1 0.85257592E-02 0.12530202E+03</pdfrwt>
<totfact> 0.96319243E+03</totfact>
</mgrwt>
</event>
<event>
 6    1  0.6387485E-006  0.5307141E+03  0.7546771E-02  0.1040347E+00
          1   -1    0    0  501    0  0.00000000000E+00  0.00000000000E+00  0.66019111162E+03  0.66019111162E+03  0.00000000000E+00 0. -1.
         -1   -1    0    0    0  501 -0.00000000000E+00 -0.00000000000E+00 -0.10335903581E+04  0.10335903581E+04  0.00000000000E+00 0.  1.
          5    1    1    2  502    0 -0.28543809581E+02  0.10853845784E+03  0.18089161357E+02  0.11377457385E+03  0.47000000000E+01 0. -1.
         -5    1    1    2    0  502 -0.73499948112E+02 -0.83816760164E+02 -0.96740427343E+03  0.97381754446E+03  0.47000000000E+01 0.  1.
        -11    1    1    2    0    0  0.78187874602E+02  0.49317973507E+02  0.17622887973E+03  0.19900307610E+03  0.00000000000E+00 0.  1.
         11    1    1    2    0    0  0.23855883091E+02 -0.74039671182E+02  0.39968698591E+03  0.40718627527E+03  0.00000000000E+00 0. -1.
<mgrwt>
<rscale>  0 0.41007215E+03</rscale>
<asrwt>0</asrwt>
<pdfrwt beam="1">  1        1 0.10156786E+00 0.53071408E+03</pdfrwt>
<pdfrwt beam="2">  1       -1 0.15901390E+00 0.53071408E+03</pdfrwt>
<totfact> 0.94435273E+00</totfact>
</mgrwt>
</event>
<event>
 7    1  0.6387485E-006  0.1676647E+03  0.7546771E-02  0.1188645E+00
         -1   -1    0    0    0  501 -0.00000000000E+00  0.00000000000E+00  0.14049062675E+03  0.14049062675E+03  0.00000000000E+00 0.  1.
          1   -1    0    0  501    0  0.00000000000E+00 -0.00000000000E+00 -0.17123701765E+03  0.17123701765E+03  0.00000000000E+00 0. -1.
         23    2    1    2    0    0 -0.93544142237E+02 -0.61125381154E+02  0.59448853935E+01  0.16777004932E+03  0.12499851606E+03 0.  0.
          5    1    3    3  502    0 -0.10985512157E+03 -0.74206467928E+02 -0.19963852990E+02  0.13414690844E+03  0.47000000000E+01 0. -1.
         -5    1    3    3    0  502  0.16310979335E+02  0.13081086774E+02  0.25908738383E+02  0.33623140880E+02  0.47000000000E+01 0. -1.
        -11    1    1    2    0    0  0.35916677221E+02  0.42052682186E+02  0.22003476278E+02  0.59519650116E+02  0.00000000000E+00 0.  1.
         11    1    1    2    0    0  0.57627465016E+02  0.19072698968E+02 -0.58694752574E+02  0.84437944965E+02  0.00000000000E+00 0. -1.
<mgrwt>
<rscale>  0 0.16004552E+03</rscale>
<asrwt>0</asrwt>
<pdfrwt beam="2">  1        1 0.26344157E-01 0.16766469E+03</pdfrwt>
<pdfrwt beam="1">  1       -1 0.21613943E-01 0.16766469E+03</pdfrwt>
<totfact> 0.30968484E+03</totfact>
</mgrwt>
</event>
<event>
 7    1  0.6387485E-006  0.1297992E+03  0.7546771E-02  0.1241575E+00
          1   -1    0    0  501    0  0.00000000000E+00  0.00000000000E+00  0.80900950403E+02  0.80900950403E+02  0.00000000000E+00 0. -1.
         -1   -1    0    0    0  501 -0.00000000000E+00 -0.00000000000E+00 -0.17879265626E+03  0.17879265626E+03  0.00000000000E+00 0.  1.
         23    2    1    2    0    0  0.10484860506E+02 -0.33389749095E+02 -0.96766760320E+02  0.16190008937E+03  0.12499210131E+03 0.  0.
          5    1    3    3  502    0 -0.18354156437E+02 -0.12411629773E+02  0.25702139278E+02  0.34258043954E+02  0.47000000000E+01 0.  1.
         -5    1    3    3    0  502  0.28839016943E+02 -0.20978119323E+02 -0.12246889960E+03  0.12764204541E+03  0.47000000000E+01 0.  1.
        -11    1    1    2    0    0  0.36207593994E+02  0.35581721457E+02 -0.42703226418E+01  0.50943934086E+02  0.00000000000E+00 0.  1.
         11    1    1    2    0    0 -0.46692454500E+02 -0.21919723623E+01  0.31453771013E+01  0.46849583213E+02  0.00000000000E+00 0. -1.
<mgrwt>
<rscale>  0 0.12092730E+03</rscale>
<asrwt>0</asrwt>
<pdfrwt beam="1">  1        1 0.12446300E-01 0.12979920E+03</pdfrwt>
<pdfrwt beam="2">  1       -1 0.27506562E-01 0.12979920E+03</pdfrwt>
<totfact> 0.53760985E+03</totfact>
</mgrwt>
</event>
<event>
 7    1  0.6387485E-006  0.1442110E+03  0.7546771E-02  0.1221707E+00
         -3   -1    0    0    0  501 -0.00000000000E+00  0.00000000000E+00  0.45683807062E+03  0.45683807062E+03  0.00000000000E+00 0.  1.
          3   -1    0    0  501    0  0.00000000000E+00 -0.00000000000E+00 -0.42972587833E+02  0.42972587833E+02  0.00000000000E+00 0. -1.
         23    2    1    2    0    0  0.56682784976E+02 -0.44280166249E+02  0.34051619859E+03  0.36979465201E+03  0.12499252745E+03 0.  0.
          5    1    3    3  502    0  0.28864880741E+02 -0.61789681690E+02  0.32679277667E+03  0.33386637295E+03  0.47000000000E+01 0.  1.
         -5    1    3    3    0  502  0.27817904236E+02  0.17509515441E+02  0.13723421919E+02  0.35928279060E+02  0.47000000000E+01 0.  1.
        -11    1    1    2    0    0 -0.45996223114E+02 -0.53300557762E+01  0.75426487939E+01  0.46914321760E+02  0.00000000000E+00 0.  1.
         11    1    1    2    0    0 -0.10686561862E+02  0.49610222025E+02  0.65806635404E+02  0.83101684683E+02  0.00000000000E+00 0. -1.
<mgrwt>
<rscale>  0 0.13395204E+03</rscale>
<asrwt>0</asrwt>
<pdfrwt beam="2">  1        3 0.66111676E-02 0.14421097E+03</pdfrwt>
<pdfrwt beam="1">  1       -3 0.70282777E-01 0.14421097E+03</pdfrwt>
<totfact> 0.67042515E+02</totfact>
</mgrwt>
</event>
<event>
 7    1  0.6387485E-006  0.1254566E+03  0.7546771E-02  0.1249713E+00
          3   -1    0    0  501    0  0.00000000000E+00  0.00000000000E+00  0.17020963643E+03  0.17020963643E+03  0.00000000000E+00 0. -1.
         -3   -1    0    0    0  501 -0.00000000000E+00 -0.00000000000E+00 -0.71727858554E+02  0.71727858554E+02  0.00000000000E+00 0.  1.
         23    2    1    2    0    0  0.52616314195E+01  0.93173978208E+01  0.35120003253E+02  0.13027957146E+03  0.12499941378E+03 0.  0.
          5    1    3    3  502    0  0.31738389192E+02 -0.29406871998E+02 -0.27809858028E+02  0.51648501167E+02  0.47000000000E+01 0. -1.
         -5    1    3    3    0  502 -0.26476757772E+02  0.38724269819E+02  0.62929861281E+02  0.78631070297E+02  0.47000000000E+01 0. -1.
        -11    1    1    2    0    0  0.16869529303E+02  0.28521192734E+02  0.58918888695E+02  0.67597891231E+02  0.00000000000E+00 0. -1.
         11    1    1    2    0    0 -0.22131160722E+02 -0.37838590554E+02  0.44428859281E+01  0.44060032290E+02  0.00000000000E+00 0.  1.
<mgrwt>
<rscale>  0 0.11607669E+03</rscale>
<asrwt>0</asrwt>
<pdfrwt beam="1">  1        3 0.26186098E-01 0.12545657E+03</pdfrwt>
<pdfrwt beam="2">  1       -3 0.11035055E-01 0.12545657E+03</pdfrwt>
<totfact> 0.19531561E+03</totfact>
</mgrwt>
</event>
<event>
 7    1  0.6387485E-006  0.1325046E+03  0.7546771E-02  0.1235073E+00
          3   -1    0    0  501    0  0.00000000000E+00  0.00000000000E+00  0.96430794913E+02  0.96430794913E+02  0.00000000000E+00 0. -1.
         -3   -1    0    0    0  501 -0.00000000000E+00 -0.00000000000E+00 -0.14728693068E+03  0.14728693068E+03  0.00000000000E+00 0.  1.
         23    2    1    2    0    0 -0.41964453554E+02 -0.13175275028E+02 -0.38954235311E+02  0.13811195174E+03  0.12499150183E+03 0.  0.
          5    1    3    3  502    0 -0.12978342495E+02  0.52207301316E+02  0.46750488259E+01  0.54203189631E+02  0.47000000000E+01 0. -1.
         -5    1    3    3    0  502 -0.28986111059E+02 -0.65382576345E+02 -0.43629284137E+02  0.83908762106E+02  0.47000000000E+01 0. -1.
        -11    1    1    2    0    0  0.44375356082E+02  0.49167397790E+02 -0.18867883614E+02  0.68866554037E+02  0.00000000000E+00 0.  1.
         11    1    1    2    0    0 -0.24109025277E+01 -0.35992122762E+02  0.69659831538E+01  0.36739219823E+02  0.00000000000E+00 0. -1.
<mgrwt>
<rscale>  0 0.12499749E+03</rscale>
<asrwt>0</asrwt>
<pdfrwt beam="1">  1        3 0.14835507E-01 0.13250464E+03</pdfrwt>
<pdfrwt beam="2">  1       -3 0.22659528E-01 0.13250464E+03</pdfrwt>
<totfact> 0.15539358E+03</totfact>
</mgrwt>
</event>
<event>
 6    1  0.6387485E-006  0.1651546E+03  0.7546771E-02  0.1195340E+00
         -2   -1    0    0    0  501 -0.00000000000E+00  0.00000000000E+00  0.85167749226E+02  0.85167749226E+02  0.00000000000E+00 0.  1.
          2   -1    0    0  501    0  0.00000000000E+00 -0.00000000000E+00 -0.25618145893E+03  0.25618145893E+03  0.00000000000E+00 0. -1.
          5    1    1    2  502    0  0.33743802832E+01 -0.38229918240E+02  0.19610476280E+02  0.43354052531E+02  0.47000000000E+01 0. -1.
         -5    1    1    2    0  502  0.62220951812E+02  0.82401971352E+02 -0.86691757315E+02  0.13490397516E+03  0.47000000000E+01 0.  1.
        -11    1    1    2    0    0 -0.76392756427E+01  0.28297184057E+02 -0.97853206850E+01  0.30900512274E+02  0.00000000000E+00 0.  1.
         11    1    1    2    0    0 -0.57956056453E+02 -0.72469237169E+02 -0.94147107985E+02  0.13219066819E+03  0.00000000000E+00 0. -1.
<mgrwt>
<rscale>  0 0.15425491E+03</rscale>
<asrwt>0</asrwt>
<pdfrwt beam="2">  1        2 0.39412532E-01 0.16515455E+03</pdfrwt>
<pdfrwt beam="1">  1       -2 0.13102731E-01 0.16515455E+03</pdfrwt>
<totfact> 0.53796954E+03</totfact>
</mgrwt>
</event>
<event>
 7    1  0.6387485E-006  0.1300207E+03  0.7546771E-02  0.1240675E+00
          3   -1    0    0  501    0  0.00000000000E+00  0.00000000000E+00  0.37119388712E+02  0.37119388712E+02  0.00000000000E+00 0. -1.
         -3   -1    0    0    0  501 -0.00000000000E+00 -0.00000000000E+00 -0.60582073275E+03  0.60582073275E+03  0.00000000000E+00 0.  1.
         23    2    1    2    0    0  0.78451577968E+00  0.35786697026E+02 -0.51311532420E+03  0.52933234331E+03  0.12499636234E+03 0.  0.
          5    1    3    3  502    0  0.51066108832E+02  0.47641660628E+02 -0.19874613666E+03  0.21071210724E+03  0.47000000000E+01 0. -1.
         -5    1    3    3    0  502 -0.50281593052E+02 -0.11854963602E+02 -0.31436918754E+03  0.31862023608E+03  0.47000000000E+01 0. -1.
        -11    1    1    2    0    0 -0.31034881977E+02  0.19074524148E+02 -0.19957153462E+02  0.41536602474E+02  0.00000000000E+00 0.  1.
         11    1    1    2    0    0  0.30250366197E+02 -0.54861221174E+02 -0.35628866371E+02  0.72071175671E+02  0.00000000000E+00 0. -1.
<mgrwt>
<rscale>  0 0.12148045E+03</rscale>
<asrwt>0</asrwt>
<pdfrwt beam="1">  1        3 0.57106751E-02 0.13002074E+03</pdfrwt>
<pdfrwt beam="2">  1       -3 0.93203191E-01 0.13002074E+03</pdfrwt>
<totfact> 0.45171698E+02</totfact>
</mgrwt>
</event>
<event>
 7    1  0.6387485E-006  0.2925114E+03  0.7546771E-02  0.1090684E+00
         -1   -1    0    0    0  501 -0.00000000000E+00  0.00000000000E+00  0.64911806879E+02  0.64911806879E+02  0.00000000000E+00 0.  1.
          1   -1    0    0  501    0  0.00000000000E+00 -0.00000000000E+00 -0.14044343546E+04  0.14044343546E+04  0.00000000000E+00 0. -1.
         23    2    1    2    0    0  0.13191364411E+01  0.26444817978E+03 -0.44958403355E+03  0.53636623686E+03  0.12501342691E+03 0.  0.
          5    1    3    3  502    0  0.19107879720E+02  0.10108917517E+03 -0.28799206555E+03  0.30585233729E+03  0.47000000000E+01 0.  1.
         -5    1    3    3    0  502 -0.17788743279E+02  0.16335900461E+03 -0.16159196800E+03  0.23051389957E+03  0.47000000000E+01 0.  1.
        -11    1    1    2    0    0  0.35214602607E+02 -0.11785683229E+03 -0.30556340778E+03  0.32939231522E+03  0.00000000000E+00 0.  1.
         11    1    1    2    0    0 -0.36533739049E+02 -0.14659134749E+03 -0.58437510635E+03  0.60358760936E+03  0.00000000000E+00 0. -1.
<mgrwt>
<rscale>  0 0.28936023E+03</rscale>
<asrwt>0</asrwt>
<pdfrwt beam="2">  1        1 0.21606683E+00 0.29251143E+03</pdfrwt>
<pdfrwt beam="1">  1       -1 0.99864314E-02 0.29251143E+03</pdfrwt>
<totfact> 0.50643909E+02</totfact>
</mgrwt>
</event>
<event>
 7    1  0.6387485E-006  0.1634160E+03  0.7546771E-02  0.1192089E+00
          1   -1    0    0  501    0  0.00000000000E+00  0.00000000000E+00  0.26196940765E+03  0.26196940765E+03  0.00000000000E+00 0. -1.
         -1   -1    0    0    0  501 -0.00000000000E+00 -0.00000000000E+00 -0.94431067674E+02  0.94431067674E+02  0.00000000000E+00 0.  1.
         23    2    1    2    0    0  0.10268292576E+03 -0.23156598541E+02  0.41707052285E+02  0.16865431921E+03  0.12499915951E+03 0.  0.
          5    1    3    3  502    0  0.63429308325E+00  0.17233932359E+02 -0.31798769097E+02  0.36478246508E+02  0.47000000000E+01 0.  1.
         -5    1    3    3    0  502  0.10204863267E+03 -0.40390530900E+02  0.73505821381E+02  0.13217607270E+03  0.47000000000E+01 0.  1.
        -11    1    1    2    0    0 -0.46795097116E+02 -0.17977286571E+02  0.10324170464E+03  0.11476852148E+03  0.00000000000E+00 0. -1.
         11    1    1    2    0    0 -0.55887828641E+02  0.41133885112E+02  0.22589583055E+02  0.72977634637E+02  0.00000000000E+00 0.  1.
<mgrwt>
<rscale>  0 0.15703211E+03</rscale>
<asrwt>0</asrwt>
<pdfrwt beam="1">  1        1 0.40302986E-01 0.16341604E+03</pdfrwt>
<pdfrwt beam="2">  1       -1 0.14527857E-01 0.16341604E+03</pdfrwt>
<totfact> 0.34301541E+03</totfact>
</mgrwt>
</event>
<event>
 7    1  0.6387485E-006  0.1494174E+03  0.7546771E-02  0.1210248E+00
          2   -1    0    0  501    0  0.00000000000E+00  0.00000000000E+00  0.97673969566E+02  0.97673969566E+02  0.00000000000E+00 0. -1.
         -2   -1    0    0    0  501 -0.00000000000E+00 -0.00000000000E+00 -0.19002391737E+03  0.19002391737E+03  0.00000000000E+00 0.  1.
         23    2    1    2    0    0 -0.42515859699E+02 -0.69949361622E+02 -0.47033664308E+02  0.15664519905E+03  0.12500016517E+03 0.  0.
          5    1    3    3  502    0  0.13456356427E+02 -0.87333859024E+02 -0.15208302934E+02  0.89786741440E+02  0.47000000000E+01 0. -1.
         -5    1    3    3    0  502 -0.55972216126E+02  0.17384497402E+02 -0.31825361375E+02  0.66858457615E+02  0.47000000000E+01 0. -1.
        -11    1    1    2    0    0 -0.79767088990E+01  0.68375624139E+02 -0.10345891013E+02  0.69612436548E+02  0.00000000000E+00 0. -1.
         11    1    1    2    0    0  0.50492568598E+02  0.15737374830E+01 -0.34970392478E+02  0.61440251329E+02  0.00000000000E+00 0.  1.
<mgrwt>
<rscale>  0 0.14231454E+03</rscale>
<asrwt>0</asrwt>
<pdfrwt beam="1">  1        2 0.15026765E-01 0.14941738E+03</pdfrwt>
<pdfrwt beam="2">  1       -2 0.29234448E-01 0.14941738E+03</pdfrwt>
<totfact> 0.40126931E+03</totfact>
</mgrwt>
</event>
<event>
 6    1  0.6387485E-006  0.1993540E+03  0.7546771E-02  0.1180061E+00
          2   -1    0    0  501    0  0.00000000000E+00  0.00000000000E+00  0.34218735315E+03  0.34218735315E+03  0.00000000000E+00 0. -1.
         -2   -1    0    0    0  501 -0.00000000000E+00 -0.00000000000E+00 -0.98866810756E+02  0.98866810756E+02  0.00000000000E+00 0.  1.
          5    1    1    2  502    0 -0.43605140720E+02 -0.34390975194E+02  0.78289990700E+02  0.96101821605E+02  0.47000000000E+01 0. -1.
         -5    1    1    2    0  502  0.76882460545E+02  0.47253475467E+02 -0.53140500880E+02  0.10483227803E+03  0.47000000000E+01 0.  1.
        -11    1    1    2    0    0 -0.63711841369E+02 -0.52925377240E+01  0.10733127545E+03  0.12492882924E+03  0.00000000000E+00 0. -1.
         11    1    1    2    0    0  0.30434521544E+02 -0.75699625489E+01  0.11083977712E+03  0.11519123503E+03  0.00000000000E+00 0.  1.
<mgrwt>
<rscale>  0 0.16789519E+03</rscale>
<asrwt>0</asrwt>
<pdfrwt beam="1">  1        2 0.52644208E-01 0.19935400E+03</pdfrwt>
<pdfrwt beam="2">  1       -2 0.15210279E-01 0.19935400E+03</pdfrwt>
<totfact> 0.31201152E+03</totfact>
</mgrwt>
</event>
<event>
 7    1  0.6387485E-006  0.1590026E+03  0.7546771E-02  0.1197590E+00
         -2   -1    0    0    0  501 -0.00000000000E+00  0.00000000000E+00  0.83224589107E+02  0.83224589107E+02  0.00000000000E+00 0.  1.
          2   -1    0    0  501    0  0.00000000000E+00 -0.00000000000E+00 -0.25913872346E+03  0.25913872346E+03  0.00000000000E+00 0. -1.
         23    2    1    2    0    0  0.50949001917E+02 -0.84029670124E+02 -0.10648120536E+03  0.19136371838E+03  0.12500015743E+03 0.  0.
          5    1    3    3  502    0  0.23165578739E+02 -0.96622775080E+02 -0.22631626642E+02  0.10201414229E+03  0.47000000000E+01 0. -1.
         -5    1    3    3    0  502  0.27783423179E+02  0.12593104955E+02 -0.83849578717E+02  0.89349576087E+02  0.47000000000E+01 0. -1.
        -11    1    1    2    0    0 -0.57336266035E+02  0.46045972498E+02 -0.22651947057E+01  0.73571802297E+02  0.00000000000E+00 0.  1.
         11    1    1    2    0    0  0.63872641178E+01  0.37983697627E+02 -0.67167734288E+02  0.77427791895E+02  0.00000000000E+00 0. -1.
<mgrwt>
<rscale>  0 0.15237079E+03</rscale>
<asrwt>0</asrwt>
<pdfrwt beam="2">  1        2 0.39867496E-01 0.15900260E+03</pdfrwt>
<pdfrwt beam="1">  1       -2 0.12803783E-01 0.15900260E+03</pdfrwt>
<totfact> 0.55042707E+03</totfact>
</mgrwt>
</event>
<event>
 7    1  0.6387485E-006  0.1276473E+03  0.7546771E-02  0.1248979E+00
         -2   -1    0    0    0  501 -0.00000000000E+00  0.00000000000E+00  0.12654583972E+03  0.12654583972E+03  0.00000000000E+00 0.  1.
          2   -1    0    0  501    0  0.00000000000E+00 -0.00000000000E+00 -0.10715432347E+03  0.10715432347E+03  0.00000000000E+00 0. -1.
         23    2    1    2    0    0 -0.15515023853E+02 -0.20686213175E+02  0.54003344460E+02  0.13860083834E+03  0.12500078318E+03 0.  0.
          5    1    3    3  502    0 -0.19359632423E+01  0.16664647231E+02  0.85760187325E+02  0.87512045748E+02  0.47000000000E+01 0. -1.
         -5    1    3    3    0  502 -0.13579060611E+02 -0.37350860406E+02 -0.31756842865E+02  0.51088792595E+02  0.47000000000E+01 0. -1.
        -11    1    1    2    0    0  0.50035285652E+02  0.95852038168E+01 -0.11913020708E+02  0.52319461054E+02  0.00000000000E+00 0.  1.
         11    1    1    2    0    0 -0.34520261799E+02  0.11101009358E+02 -0.22698807505E+02  0.42779863787E+02  0.00000000000E+00 0. -1.
<mgrwt>
<rscale>  0 0.11650353E+03</rscale>
<asrwt>0</asrwt>
<pdfrwt beam="2">  1        2 0.16485280E-01 0.12764729E+03</pdfrwt>
<pdfrwt beam="1">  1       -2 0.19468591E-01 0.12764729E+03</pdfrwt>
<totfact> 0.72199090E+03</totfact>
</mgrwt>
</event>
<event>
 7    1  0.6387485E-006  0.1776054E+03  0.7546771E-02  0.1175996E+00
          3   -1    0    0  501    0  0.00000000000E+00  0.00000000000E+00  0.80450679143E+02  0.80450679143E+02  0.00000000000E+00 0. -1.
         -3   -1    0    0    0  501 -0.00000000000E+00 -0.00000000000E+00 -0.38345667565E+03  0.38345667565E+03  0.00000000000E+00 0.  1.
         23    2    1    2    0    0  0.73155670040E+02  0.10279068689E+03 -0.23414298887E+03  0.29388195817E+03  0.12500395486E+03 0.  0.
          5    1    3    3  502    0  0.13503764172E+02 -0.20368176136E+02 -0.96788625310E+02  0.99936691137E+02  0.47000000000E+01 0. -1.
         -5    1    3    3    0  502  0.59651905867E+02  0.12315886303E+03 -0.13735436356E+03  0.19394526703E+03  0.47000000000E+01 0. -1.
        -11    1    1    2    0    0 -0.66199528310E+02 -0.15649775227E+02 -0.31249189423E+02  0.74858565660E+02  0.00000000000E+00 0. -1.
         11    1    1    2    0    0 -0.69561417300E+01 -0.87140911667E+02 -0.37613818211E+02  0.95166830957E+02  0.00000000000E+00 0.  1.
<mgrwt>
<rscale>  0 0.17178840E+03</rscale>
<asrwt>0</asrwt>
<pdfrwt beam="1">  1        3 0.12377027E-01 0.17760537E+03</pdfrwt>
<pdfrwt beam="2">  1       -3 0.58993336E-01 0.17760537E+03</pdfrwt>
<totfact> 0.35390199E+02</totfact>
</mgrwt>
</event>
<event>
 7    1  0.6387485E-006  0.1369642E+03  0.7546771E-02  0.1229722E+00
         -1   -1    0    0    0  501 -0.00000000000E+00  0.00000000000E+00  0.49190462243E+02  0.49190462243E+02  0.00000000000E+00 0.  1.
          1   -1    0    0  501    0  0.00000000000E+00 -0.00000000000E+00 -0.38589377245E+03  0.38589377245E+03  0.00000000000E+00 0. -1.
         23    2    1    2    0    0  0.49510731303E+02  0.26106889885E+02 -0.83120854458E+02  0.16021320926E+03  0.12500525494E+03 0.  0.
          5    1    3    3  502    0  0.73926439753E+01  0.44859552292E+02 -0.10074772777E+03  0.11063103212E+03  0.47000000000E+01 0. -1.
         -5    1    3    3    0  502  0.42118087328E+02 -0.18752662406E+02  0.17626873314E+02  0.49582177143E+02  0.47000000000E+01 0. -1.
        -11    1    1    2    0    0 -0.21917034023E+02 -0.59110839971E+02 -0.15181329260E+03  0.16438285675E+03  0.00000000000E+00 0.  1.
         11    1    1    2    0    0 -0.27593697280E+02  0.33003950085E+02 -0.10176916315E+03  0.11048816868E+03  0.00000000000E+00 0. -1.
<mgrwt>
<rscale>  0 0.12848413E+03</rscale>
<asrwt>0</asrwt>
<pdfrwt beam="2">  1        1 0.59368276E-01 0.13696421E+03</pdfrwt>
<pdfrwt beam="1">  1       -1 0.75677630E-02 0.13696421E+03</pdfrwt>
<totfact> 0.57089555E+03</totfact>
</mgrwt>
</event>
<event>
 7    1  0.6387485E-006  0.2265764E+03  0.7546771E-02  0.1132313E+00
         -2   -1    0    0    0  501 -0.00000000000E+00  0.00000000000E+00  0.83493220189E+03  0.83493220189E+03  0.00000000000E+00 0.  1.
          2   -1    0    0  501    0  0.00000000000E+00 -0.00000000000E+00 -0.56886137089E+02  0.56886137089E+02  0.00000000000E+00 0. -1.
         23    2    1    2    0    0 -0.18217643049E+03 -0.50247337100E+02  0.40960286482E+03  0.46809335705E+03  0.12499534924E+03 0.  0.
          5    1    3    3  502    0 -0.18179278342E+03 -0.71864366716E+02  0.39721575212E+03  0.44273643066E+03  0.47000000000E+01 0. -1.
         -5    1    3    3    0  502 -0.38364707148E+00  0.21617029615E+02  0.12387112702E+02  0.25356926383E+02  0.47000000000E+01 0. -1.
        -11    1    1    2    0    0  0.12124875467E+03  0.70394632955E+02  0.29201681936E+03  0.32392975727E+03  0.00000000000E+00 0.  1.
         11    1    1    2    0    0  0.60927675813E+02 -0.20147295855E+02  0.76426380628E+02  0.99795224666E+02  0.00000000000E+00 0. -1.
<mgrwt>
<rscale>  0 0.22211914E+03</rscale>
<asrwt>0</asrwt>
<pdfrwt beam="2">  1        2 0.87517140E-02 0.22657644E+03</pdfrwt>
<pdfrwt beam="1">  1       -2 0.12845110E+00 0.22657644E+03</pdfrwt>
<totfact> 0.35548451E+02</totfact>
</mgrwt>
</event>
<event>
 7    1  0.6387485E-006  0.1769927E+03  0.7546771E-02  0.1175658E+00
         -2   -1    0    0    0  501 -0.00000000000E+00  0.00000000000E+00  0.67405990594E+02  0.67405990594E+02  0.00000000000E+00 0.  1.
          2   -1    0    0  501    0  0.00000000000E+00 -0.00000000000E+00 -0.59666252706E+03  0.59666252706E+03  0.00000000000E+00 0. -1.
         23    2    1    2    0    0 -0.12235239430E+03  0.27005667161E+02 -0.92899477647E+02  0.19989183576E+03  0.12500807417E+03 0.  0.
          5    1    3    3  502    0 -0.93928536228E+02 -0.41257211565E+02 -0.49240780730E+02  0.11389236985E+03  0.47000000000E+01 0.  1.
         -5    1    3    3    0  502 -0.28423858071E+02  0.68262878726E+02 -0.43658696916E+02  0.85999465905E+02  0.47000000000E+01 0.  1.
        -11    1    1    2    0    0  0.31797081478E+02 -0.44464229331E+02 -0.86141053749E+02  0.10202158214E+03  0.00000000000E+00 0.  1.
         11    1    1    2    0    0  0.90555312821E+02  0.17458562170E+02 -0.35021600507E+03  0.36215509976E+03  0.00000000000E+00 0. -1.
<mgrwt>
<rscale>  0 0.17211670E+03</rscale>
<asrwt>0</asrwt>
<pdfrwt beam="2">  1        2 0.91794237E-01 0.17699275E+03</pdfrwt>
<pdfrwt beam="1">  1       -2 0.10370152E-01 0.17699275E+03</pdfrwt>
<totfact> 0.31302402E+03</totfact>
</mgrwt>
</event>
<event>
 7    1  0.6387485E-006  0.1509452E+03  0.7546771E-02  0.1209106E+00
         -1   -1    0    0    0  501 -0.00000000000E+00  0.00000000000E+00  0.88659184911E+02  0.88659184911E+02  0.00000000000E+00 0.  1.
          1   -1    0    0  501    0  0.00000000000E+00 -0.00000000000E+00 -0.29299370130E+03  0.29299370130E+03  0.00000000000E+00 0. -1.
         23    2    1    2    0    0 -0.82721510504E+02  0.17769130435E+02 -0.89741404081E+01  0.15121169440E+03  0.12500340408E+03 0.  0.
          5    1    3    3  502    0 -0.10591635981E+03 -0.11504440491E+01  0.21558926853E+02  0.10819647001E+03  0.47000000000E+01 0.  1.
         -5    1    3    3    0  502  0.23194849304E+02  0.18919574484E+02 -0.30533067261E+02  0.43015224389E+02  0.47000000000E+01 0.  1.
        -11    1    1    2    0    0  0.74368289773E+02  0.59310218801E+01 -0.19084600561E+03  0.20490977868E+03  0.00000000000E+00 0. -1.
         11    1    1    2    0    0  0.83532207312E+01 -0.23700152315E+02 -0.45143703766E+01  0.25531413126E+02  0.00000000000E+00 0.  1.
<mgrwt>
<rscale>  0 0.14318549E+03</rscale>
<asrwt>0</asrwt>
<pdfrwt beam="2">  1        1 0.45075954E-01 0.15094516E+03</pdfrwt>
<pdfrwt beam="1">  1       -1 0.13639874E-01 0.15094516E+03</pdfrwt>
<totfact> 0.32831527E+03</totfact>
</mgrwt>
</event>
<event>
 7    1  0.6387485E-006  0.1797638E+03  0.7546771E-02  0.1173763E+00
         -2   -1    0    0    0  501 -0.00000000000E+00  0.00000000000E+00  0.59455840568E+02  0.59455840568E+02  0.00000000000E+00 0.  1.
          2   -1    0    0  501    0  0.00000000000E+00 -0.00000000000E+00 -0.49134497029E+03  0.49134497029E+03  0.00000000000E+00 0. -1.
         23    2    1    2    0    0 -0.12302094142E+03  0.39431880281E+02 -0.18591624847E+03  0.25861145414E+03  0.12500403015E+03 0.  0.
          5    1    3    3  502    0  0.11734062398E+02  0.42991273920E+02 -0.43300515715E+02  0.62313421627E+02  0.47000000000E+01 0.  1.
         -5    1    3    3    0  502 -0.13475500382E+03 -0.35593936389E+01 -0.14261573276E+03  0.19629803251E+03  0.47000000000E+01 0.  1.
        -11    1    1    2    0    0  0.28402054304E+02 -0.54904761687E+02 -0.94341970427E+02  0.11279014553E+03  0.00000000000E+00 0. -1.
         11    1    1    2    0    0  0.94618887119E+02  0.15472881406E+02 -0.15163091082E+03  0.17939921119E+03  0.00000000000E+00 0.  1.
<mgrwt>
<rscale>  0 0.17397646E+03</rscale>
<asrwt>0</asrwt>
<pdfrwt beam="2">  1        2 0.75591533E-01 0.17976382E+03</pdfrwt>
<pdfrwt beam="1">  1       -2 0.91470525E-02 0.17976382E+03</pdfrwt>
<totfact> 0.47511336E+03</totfact>
</mgrwt>
</event>
<event>
 7    1  0.6387485E-006  0.1761827E+03  0.7546771E-02  0.1177740E+00
         -1   -1    0    0    0  501 -0.00000000000E+00  0.00000000000E+00  0.65551595181E+02  0.65551595181E+02  0.00000000000E+00 0.  1.
          1   -1    0    0  501    0  0.00000000000E+00 -0.00000000000E+00 -0.48521259600E+03  0.48521259600E+03  0.00000000000E+00 0. -1.
         23    2    1    2    0    0 -0.66418055669E+02  0.10490325651E+03 -0.11672491037E+03  0.21134105504E+03  0.12499714196E+03 0.  0.
          5    1    3    3  502    0 -0.84913837478E+02  0.54858860648E+02 -0.23608103633E+02  0.10391961771E+03  0.47000000000E+01 0.  1.
         -5    1    3    3    0  502  0.18495781809E+02  0.50044395857E+02 -0.93116806737E+02  0.10742143733E+03  0.47000000000E+01 0.  1.
        -11    1    1    2    0    0 -0.18554478181E+02 -0.46109269293E+02 -0.10294510903E+03  0.11431547948E+03  0.00000000000E+00 0. -1.
         11    1    1    2    0    0  0.84972533850E+02 -0.58793987213E+02 -0.19999098142E+03  0.22510765667E+03  0.00000000000E+00 0.  1.
<mgrwt>
<rscale>  0 0.17010301E+03</rscale>
<asrwt>0</asrwt>
<pdfrwt beam="2">  1        1 0.74648092E-01 0.17618268E+03</pdfrwt>
<pdfrwt beam="1">  1       -1 0.10084861E-01 0.17618268E+03</pdfrwt>
<totfact> 0.27832779E+03</totfact>
</mgrwt>
</event>
<event>
 7    1  0.6387485E-006  0.1940204E+03  0.7546771E-02  0.1159608E+00
         -1   -1    0    0    0  501 -0.00000000000E+00  0.00000000000E+00  0.56848359276E+02  0.56848359276E+02  0.00000000000E+00 0.  1.
          1   -1    0    0  501    0  0.00000000000E+00 -0.00000000000E+00 -0.59893324982E+03  0.59893324982E+03  0.00000000000E+00 0. -1.
         23    2    1    2    0    0  0.10638254715E+03  0.10343853690E+03 -0.25845340106E+03  0.32317500419E+03  0.12500858194E+03 0.  0.
          5    1    3    3  502    0  0.60303953050E+02  0.24410298239E+02 -0.20773921234E+02  0.68454913754E+02  0.47000000000E+01 0. -1.
         -5    1    3    3    0  502  0.46078594099E+02  0.79028238657E+02 -0.23767947983E+03  0.25472009043E+03  0.47000000000E+01 0. -1.
        -11    1    1    2    0    0 -0.37514060063E+02 -0.94030801923E+02 -0.13712379610E+03  0.17044656602E+03  0.00000000000E+00 0. -1.
         11    1    1    2    0    0 -0.68868487086E+02 -0.94077349721E+01 -0.14650769339E+03  0.16216003889E+03  0.00000000000E+00 0.  1.
<mgrwt>
<rscale>  0 0.18873441E+03</rscale>
<asrwt>0</asrwt>
<pdfrwt beam="2">  1        1 0.92143580E-01 0.19402042E+03</pdfrwt>
<pdfrwt beam="1">  1       -1 0.87459012E-02 0.19402042E+03</pdfrwt>
<totfact> 0.26183392E+03</totfact>
</mgrwt>
</event>
<event>
 7    1  0.6387485E-006  0.1684781E+03  0.7546771E-02  0.1185824E+00
         -2   -1    0    0    0  501 -0.00000000000E+00  0.00000000000E+00  0.11884488062E+03  0.11884488062E+03  0.00000000000E+00 0.  1.
          2   -1    0    0  501    0  0.00000000000E+00 -0.00000000000E+00 -0.20910945192E+03  0.20910945192E+03  0.00000000000E+00 0. -1.
         23    2    1    2    0    0  0.27498715853E+02 -0.10955871320E+03 -0.37090919553E+02  0.17251259555E+03  0.12500227317E+03 0.  0.
          5    1    3    3  502    0  0.10780706878E+02  0.23531431831E+02 -0.27339267979E+02  0.37940446735E+02  0.47000000000E+01 0.  1.
         -5    1    3    3    0  502  0.16718008975E+02 -0.13309014503E+03 -0.97516515735E+01  0.13457214882E+03  0.47000000000E+01 0.  1.
        -11    1    1    2    0    0  0.34034066042E+02  0.48859941571E+02 -0.19071369382E+02  0.62524624523E+02  0.00000000000E+00 0. -1.
         11    1    1    2    0    0 -0.61532781894E+02  0.60698771630E+02 -0.34102282367E+02  0.92917112458E+02  0.00000000000E+00 0.  1.
<mgrwt>
<rscale>  0 0.16257110E+03</rscale>
<asrwt>0</asrwt>
<pdfrwt beam="2">  1        2 0.32170684E-01 0.16847807E+03</pdfrwt>
<pdfrwt beam="1">  1       -2 0.18283828E-01 0.16847807E+03</pdfrwt>
<totfact> 0.38699769E+03</totfact>
</mgrwt>
</event>
<event>
 7    1  0.6387485E-006  0.1493544E+03  0.7546771E-02  0.1210356E+00
          2   -1    0    0  501    0  0.00000000000E+00  0.00000000000E+00  0.26158356651E+03  0.26158356651E+03  0.00000000000E+00 0. -1.
         -2   -1    0    0    0  501 -0.00000000000E+00 -0.00000000000E+00 -0.73911956403E+02  0.73911956403E+02  0.00000000000E+00 0.  1.
         23    2    1    2    0    0 -0.78056210824E+02 -0.24255530491E+02  0.68377842831E+02  0.16426283017E+03  0.12500258068E+03 0.  0.
          5    1    3    3  502    0 -0.10330612223E+03 -0.23066172688E+02  0.17681582662E+02  0.10741941900E+03  0.47000000000E+01 0. -1.
         -5    1    3    3    0  502  0.25249911408E+02 -0.11893578031E+01  0.50696260169E+02  0.56843411168E+02  0.47000000000E+01 0. -1.
        -11    1    1    2    0    0  0.41342911733E+02 -0.13142644918E+01 -0.25421259863E+01  0.41441839321E+02  0.00000000000E+00 0.  1.
         11    1    1    2    0    0  0.36713299091E+02  0.25569794983E+02  0.12183589326E+03  0.12979085343E+03  0.00000000000E+00 0. -1.
<mgrwt>
<rscale>  0 0.14223236E+03</rscale>
<asrwt>0</asrwt>
<pdfrwt beam="1">  1        2 0.40243625E-01 0.14935444E+03</pdfrwt>
<pdfrwt beam="2">  1       -2 0.11371070E-01 0.14935444E+03</pdfrwt>
<totfact> 0.65654269E+03</totfact>
</mgrwt>
</event>
<event>
 7    1  0.6387485E-006  0.2337956E+03  0.7546771E-02  0.1126782E+00
          1   -1    0    0  501    0  0.00000000000E+00  0.00000000000E+00  0.93169800021E+03  0.93169800021E+03  0.00000000000E+00 0. -1.
         -1   -1    0    0    0  501 -0.00000000000E+00 -0.00000000000E+00 -0.54846885393E+02  0.54846885393E+02  0.00000000000E+00 0.  1.
         23    2    1    2    0    0 -0.19663694141E+03  0.19253590696E+02  0.44293806219E+03  0.50085376268E+03  0.12499430854E+03 0.  0.
          5    1    3    3  502    0 -0.77558618531E+02  0.11261761707E+02  0.57451750147E+02  0.97288026910E+02  0.47000000000E+01 0. -1.
         -5    1    3    3    0  502 -0.11907832288E+03  0.79918289885E+01  0.38548631204E+03  0.40356573576E+03  0.47000000000E+01 0. -1.
        -11    1    1    2    0    0  0.11144994787E+03 -0.34520862843E+02  0.33246577275E+03  0.35234396675E+03  0.00000000000E+00 0.  1.
         11    1    1    2    0    0  0.85186993543E+02  0.15267272148E+02  0.10144727987E+03  0.13334715618E+03  0.00000000000E+00 0. -1.
<mgrwt>
<rscale>  0 0.22979763E+03</rscale>
<asrwt>0</asrwt>
<pdfrwt beam="1">  1        1 0.14333814E+00 0.23379556E+03</pdfrwt>
<pdfrwt beam="2">  1       -1 0.84379830E-02 0.23379556E+03</pdfrwt>
<totfact> 0.14306595E+03</totfact>
</mgrwt>
</event>
<event>
 7    1  0.6387485E-006  0.1195578E+03  0.7546771E-02  0.1253859E+00
          1   -1    0    0  501    0  0.00000000000E+00  0.00000000000E+00  0.10891206060E+03  0.10891206060E+03  0.00000000000E+00 0. -1.
         -1   -1    0    0    0  501 -0.00000000000E+00 -0.00000000000E+00 -0.11565958249E+03  0.11565958249E+03  0.00000000000E+00 0.  1.
         23    2    1    2    0    0 -0.78931761226E+01  0.38048714372E+02 -0.31581348672E+02  0.12365861897E+03  0.11306664215E+03 0.  0.
          5    1    3    3  502    0 -0.56954453739E+02  0.10523259162E+02  0.16874270749E+01  0.58133348383E+02  0.47000000000E+01 0. -1.
         -5    1    3    3    0  502  0.49061277616E+02  0.27525455210E+02 -0.33268775747E+02  0.65525270587E+02  0.47000000000E+01 0.  1.
        -11    1    1    2    0    0  0.22690770949E+02 -0.52460612121E+02  0.44465103411E+02  0.72416381653E+02  0.00000000000E+00 0. -1.
         11    1    1    2    0    0 -0.14797594827E+02  0.14411897749E+02 -0.19631276631E+02  0.28496642461E+02  0.00000000000E+00 0.  1.
<mgrwt>
<rscale>  0 0.11370482E+03</rscale>
<asrwt>0</asrwt>
<pdfrwt beam="1">  1        1 0.16755702E-01 0.11955782E+03</pdfrwt>
<pdfrwt beam="2">  1       -1 0.17793782E-01 0.11955782E+03</pdfrwt>
<totfact> 0.73625791E+03</totfact>
</mgrwt>
</event>
<event>
 7    1  0.6387485E-006  0.2344453E+03  0.7546771E-02  0.1125724E+00
          1   -1    0    0  501    0  0.00000000000E+00  0.00000000000E+00  0.10167013539E+04  0.10167013539E+04  0.00000000000E+00 0. -1.
         -1   -1    0    0    0  501 -0.00000000000E+00 -0.00000000000E+00 -0.54521867434E+02  0.54521867434E+02  0.00000000000E+00 0.  1.
         23    2    1    2    0    0 -0.79650782708E+02  0.18164615057E+03  0.36233658286E+03  0.43156967852E+03  0.12500006776E+03 0.  0.
          5    1    3    3  502    0  0.27692532011E+02  0.83158118895E+01  0.32250356005E+02  0.43568388988E+02  0.47000000000E+01 0. -1.
         -5    1    3    3    0  502 -0.10734331472E+03  0.17333033868E+03  0.33008622686E+03  0.38800128954E+03  0.47000000000E+01 0. -1.
        -11    1    1    2    0    0  0.31854459440E+02 -0.52429636955E+02  0.34054381657E+03  0.34602552568E+03  0.00000000000E+00 0. -1.
         11    1    1    2    0    0  0.47796323267E+02 -0.12921651361E+03  0.25929908704E+03  0.29362801714E+03  0.00000000000E+00 0.  1.
<mgrwt>
<rscale>  0 0.23130588E+03</rscale>
<asrwt>0</asrwt>
<pdfrwt beam="1">  1        1 0.15641558E+00 0.23444528E+03</pdfrwt>
<pdfrwt beam="2">  1       -1 0.83879804E-02 0.23444528E+03</pdfrwt>
<totfact> 0.12452273E+03</totfact>
</mgrwt>
</event>
<event>
 7    1  0.6387485E-006  0.1790055E+03  0.7546771E-02  0.1173823E+00
          2   -1    0    0  501    0  0.00000000000E+00  0.00000000000E+00  0.57131002820E+03  0.57131002820E+03  0.00000000000E+00 0. -1.
         -2   -1    0    0    0  501 -0.00000000000E+00 -0.00000000000E+00 -0.52802324454E+02  0.52802324454E+02  0.00000000000E+00 0.  1.
         23    2    1    2    0    0  0.12587030193E+03 -0.23406049809E+02  0.20351358566E+03  0.27103645099E+03  0.12510716265E+03 0.  0.
          5    1    3    3  502    0  0.29533311015E+02  0.10375285349E+02 -0.10928854396E+02  0.33487204482E+02  0.47000000000E+01 0. -1.
         -5    1    3    3    0  502  0.96336990912E+02 -0.33781335158E+02  0.21444244005E+03  0.23754924651E+03  0.47000000000E+01 0. -1.
        -11    1    1    2    0    0 -0.41749983194E+02  0.89093330039E+01  0.22249512829E+02  0.48140192484E+02  0.00000000000E+00 0. -1.
         11    1    1    2    0    0 -0.84120318732E+02  0.14496716805E+02  0.29274460526E+03  0.30493570917E+03  0.00000000000E+00 0.  1.
<mgrwt>
<rscale>  0 0.17391708E+03</rscale>
<asrwt>0</asrwt>
<pdfrwt beam="1">  1        2 0.87893846E-01 0.17900553E+03</pdfrwt>
<pdfrwt beam="2">  1       -2 0.81234349E-02 0.17900553E+03</pdfrwt>
<totfact> 0.48292450E+03</totfact>
</mgrwt>
</event>
<event>
 7    1  0.6387485E-006  0.1375916E+03  0.7546771E-02  0.1228910E+00
          1   -1    0    0  501    0  0.00000000000E+00  0.00000000000E+00  0.13231506752E+03  0.13231506752E+03  0.00000000000E+00 0. -1.
         -1   -1    0    0    0  501 -0.00000000000E+00 -0.00000000000E+00 -0.13417701021E+03  0.13417701021E+03  0.00000000000E+00 0.  1.
         23    2    1    2    0    0 -0.51265914422E+01  0.57282300392E+02 -0.54248498324E+02  0.14789982456E+03  0.12499565855E+03 0.  0.
          5    1    3    3  502    0  0.26252812524E+02  0.61500286725E+01  0.32394590677E+02  0.42409108965E+02  0.47000000000E+01 0.  1.
         -5    1    3    3    0  502 -0.31379403966E+02  0.51132271719E+02 -0.86643089001E+02  0.10549071559E+03  0.47000000000E+01 0.  1.
        -11    1    1    2    0    0  0.12979940802E+02 -0.34836485516E+02 -0.20130002353E+02  0.42276194023E+02  0.00000000000E+00 0.  1.
         11    1    1    2    0    0 -0.78533493599E+01 -0.22445814876E+02  0.72516557988E+02  0.76316059149E+02  0.00000000000E+00 0. -1.
<mgrwt>
<rscale>  0 0.12902496E+03</rscale>
<asrwt>0</asrwt>
<pdfrwt beam="1">  1        1 0.20356164E-01 0.13759164E+03</pdfrwt>
<pdfrwt beam="2">  1       -1 0.20642617E-01 0.13759164E+03</pdfrwt>
<totfact> 0.45750343E+03</totfact>
</mgrwt>
</event>
<event>
 7    1  0.6387485E-006  0.1302046E+03  0.7546771E-02  0.1241522E+00
          3   -1    0    0  501    0  0.00000000000E+00  0.00000000000E+00  0.49461933059E+02  0.49461933059E+02  0.00000000000E+00 0. -1.
         -3   -1    0    0    0  501 -0.00000000000E+00 -0.00000000000E+00 -0.26490249587E+03  0.26490249587E+03  0.00000000000E+00 0.  1.
         23    2    1    2    0    0 -0.22615400842E+02  0.28611431607E+02 -0.14241624157E+03  0.19296531337E+03  0.12499262349E+03 0.  0.
          5    1    3    3  502    0  0.38903200913E+02  0.49971690498E+02 -0.56081774112E+02  0.84722395387E+02  0.47000000000E+01 0. -1.
         -5    1    3    3    0  502 -0.61518601755E+02 -0.21360258891E+02 -0.86334467460E+02  0.10824291798E+03  0.47000000000E+01 0. -1.
        -11    1    1    2    0    0  0.48806712495E+02 -0.44565554911E+02 -0.46012663093E+02  0.80531664791E+02  0.00000000000E+00 0. -1.
         11    1    1    2    0    0 -0.26191311654E+02  0.15954123304E+02 -0.27011658144E+02  0.40867450767E+02  0.00000000000E+00 0.  1.
<mgrwt>
<rscale>  0 0.12095967E+03</rscale>
<asrwt>0</asrwt>
<pdfrwt beam="1">  1        3 0.76095283E-02 0.13020456E+03</pdfrwt>
<pdfrwt beam="2">  1       -3 0.40754229E-01 0.13020456E+03</pdfrwt>
<totfact> 0.15818577E+03</totfact>
</mgrwt>
</event>
<event>
 7    1  0.6387485E-006  0.1256166E+03  0.7546771E-02  0.1292118E+00
          1   -1    0    0  501    0  0.00000000000E+00  0.00000000000E+00  0.71455545049E+02  0.71455545049E+02  0.00000000000E+00 0. -1.
         -1   -1    0    0    0  501 -0.00000000000E+00 -0.00000000000E+00 -0.10443367757E+03  0.10443367757E+03  0.00000000000E+00 0.  1.
         23    2    1    2    0    0 -0.10283354605E+02 -0.69871532946E+01 -0.45521845843E+02  0.13361051448E+03  0.12499985375E+03 0.  0.
          5    1    3    3  502    0  0.51323088426E+02  0.10443244464E+02 -0.45309691611E+02  0.69413103334E+02  0.47000000000E+01 0.  1.
         -5    1    3    3    0  502 -0.61606443031E+02 -0.17430397758E+02 -0.21215423169E+00  0.64197411150E+02  0.47000000000E+01 0.  1.
        -11    1    1    2    0    0  0.46468673405E+01  0.21785106855E+02  0.32502634568E+00  0.22277564922E+02  0.00000000000E+00 0.  1.
         11    1    1    2    0    0  0.56364872644E+01 -0.14797953560E+02  0.12218686979E+02  0.20001143211E+02  0.00000000000E+00 0. -1.
<mgrwt>
<rscale>  0 0.94583100E+02</rscale>
<asrwt>0</asrwt>
<pdfrwt beam="1">  1        1 0.10993161E-01 0.12561660E+03</pdfrwt>
<pdfrwt beam="2">  1       -1 0.16066720E-01 0.12561660E+03</pdfrwt>
<totfact> 0.15014181E+04</totfact>
</mgrwt>
</event>
<event>
 7    1  0.6387485E-006  0.1603736E+03  0.7546771E-02  0.1195663E+00
         -1   -1    0    0    0  501 -0.00000000000E+00  0.00000000000E+00  0.19132431194E+03  0.19132431194E+03  0.00000000000E+00 0.  1.
          1   -1    0    0  501    0  0.00000000000E+00 -0.00000000000E+00 -0.11765570716E+03  0.11765570716E+03  0.00000000000E+00 0. -1.
         23    2    1    2    0    0 -0.89956032384E+02 -0.44761381892E+02  0.62869747112E+02  0.17225647646E+03  0.12499607798E+03 0.  0.
          5    1    3    3  502    0 -0.82769334800E+02 -0.17427742418E+02  0.96280173401E+02  0.12824371633E+03  0.47000000000E+01 0. -1.
         -5    1    3    3    0  502 -0.71866975831E+01 -0.27333639474E+02 -0.33410426289E+02  0.44012760126E+02  0.47000000000E+01 0. -1.
        -11    1    1    2    0    0  0.65840701024E+02 -0.16483039332E+02  0.18773290543E+02  0.70421054627E+02  0.00000000000E+00 0.  1.
         11    1    1    2    0    0  0.24115331360E+02  0.61244421224E+02 -0.79744328791E+01  0.66302488018E+02  0.00000000000E+00 0. -1.
<mgrwt>
<rscale>  0 0.15398228E+03</rscale>
<asrwt>0</asrwt>
<pdfrwt beam="2">  1        1 0.18100878E-01 0.16037359E+03</pdfrwt>
<pdfrwt beam="1">  1       -1 0.29434509E-01 0.16037359E+03</pdfrwt>
<totfact> 0.29897943E+03</totfact>
</mgrwt>
</event>
<event>
 7    1  0.6387485E-006  0.1321879E+03  0.7546771E-02  0.1237050E+00
         -1   -1    0    0    0  501 -0.00000000000E+00  0.00000000000E+00  0.56897366545E+03  0.56897366545E+03  0.00000000000E+00 0.  1.
          1   -1    0    0  501    0  0.00000000000E+00 -0.00000000000E+00 -0.24105321027E+02  0.24105321027E+02  0.00000000000E+00 0. -1.
         23    2    1    2    0    0  0.25324734998E+02 -0.34755591526E+02  0.28823039274E+03  0.31709682500E+03  0.12499737510E+03 0.  0.
          5    1    3    3  502    0 -0.90141840342E+01  0.31519089888E+02  0.19393448969E+03  0.19674192445E+03  0.47000000000E+01 0. -1.
         -5    1    3    3    0  502  0.34338919032E+02 -0.66274681413E+02  0.94295903040E+02  0.12035490055E+03  0.47000000000E+01 0. -1.
        -11    1    1    2    0    0 -0.26227226238E+02 -0.28213420464E+02  0.95744079236E+02  0.10320268019E+03  0.00000000000E+00 0.  1.
         11    1    1    2    0    0  0.90249124026E+00  0.62969011989E+02  0.16089387245E+03  0.17277948129E+03  0.00000000000E+00 0. -1.
<mgrwt>
<rscale>  0 0.12374134E+03</rscale>
<asrwt>0</asrwt>
<pdfrwt beam="2">  1        1 0.37085114E-02 0.13218789E+03</pdfrwt>
<pdfrwt beam="1">  1       -1 0.87534400E-01 0.13218789E+03</pdfrwt>
<totfact> 0.32759155E+03</totfact>
</mgrwt>
</event>
<event>
 7    1  0.6387485E-006  0.1298388E+03  0.7546771E-02  0.1239812E+00
          1   -1    0    0  501    0  0.00000000000E+00  0.00000000000E+00  0.15376957761E+03  0.15376957761E+03  0.00000000000E+00 0. -1.
         -1   -1    0    0    0  501 -0.00000000000E+00 -0.00000000000E+00 -0.16677089410E+03  0.16677089410E+03  0.00000000000E+00 0.  1.
         23    2    1    2    0    0 -0.17640089930E+02  0.30386559386E+02 -0.11744261947E+03  0.17507392885E+03  0.12499438360E+03 0.  0.
          5    1    3    3  502    0 -0.34067005340E+02  0.74517002009E+02 -0.67393364799E+02  0.10619463292E+03  0.47000000000E+01 0. -1.
         -5    1    3    3    0  502  0.16426915410E+02 -0.44130442623E+02 -0.50049254667E+02  0.68879295937E+02  0.47000000000E+01 0. -1.
        -11    1    1    2    0    0  0.28836334974E+02  0.18734523447E+01  0.10737270930E+03  0.11119326751E+03  0.00000000000E+00 0. -1.
         11    1    1    2    0    0 -0.11196245044E+02 -0.32260011730E+02 -0.29314063202E+01  0.34273275346E+02  0.00000000000E+00 0.  1.
<mgrwt>
<rscale>  0 0.12201331E+03</rscale>
<asrwt>0</asrwt>
<pdfrwt beam="1">  1        1 0.23656858E-01 0.12983879E+03</pdfrwt>
<pdfrwt beam="2">  1       -1 0.25657061E-01 0.12983879E+03</pdfrwt>
<totfact> 0.26477690E+03</totfact>
</mgrwt>
</event>
<event>
 7    1  0.6387485E-006  0.1300456E+03  0.7546771E-02  0.1241189E+00
          3   -1    0    0  501    0  0.00000000000E+00  0.00000000000E+00  0.10405020981E+03  0.10405020981E+03  0.00000000000E+00 0. -1.
         -3   -1    0    0    0  501 -0.00000000000E+00 -0.00000000000E+00 -0.19290360377E+03  0.19290360377E+03  0.00000000000E+00 0.  1.
         23    2    1    2    0    0  0.27552988594E+02  0.22966387136E+02 -0.13603176255E+03  0.18819274301E+03  0.12500098393E+03 0.  0.
          5    1    3    3  502    0  0.24183624722E+02  0.72243238683E+02 -0.10449418579E+03  0.12940269743E+03  0.47000000000E+01 0. -1.
         -5    1    3    3    0  502  0.33693638717E+01 -0.49276851547E+02 -0.31537576764E+02  0.58790045581E+02  0.47000000000E+01 0. -1.
        -11    1    1    2    0    0 -0.44307069955E+02 -0.31151430086E+02 -0.39823067633E+01  0.54308257306E+02  0.00000000000E+00 0.  1.
         11    1    1    2    0    0  0.16754081362E+02  0.81850429503E+01  0.51160675352E+02  0.54452813269E+02  0.00000000000E+00 0. -1.
<mgrwt>
<rscale>  0 0.12116402E+03</rscale>
<asrwt>0</asrwt>
<pdfrwt beam="1">  1        3 0.16007725E-01 0.13004564E+03</pdfrwt>
<pdfrwt beam="2">  1       -3 0.29677478E-01 0.13004564E+03</pdfrwt>
<totfact> 0.83358724E+02</totfact>
</mgrwt>
</event>
<event>
 7    1  0.6387485E-006  0.1518528E+03  0.7546771E-02  0.1207099E+00
          2   -1    0    0  501    0  0.00000000000E+00  0.00000000000E+00  0.13998501936E+04  0.13998501936E+04  0.00000000000E+00 0.  1.
         -2   -1    0    0    0  501 -0.00000000000E+00 -0.00000000000E+00 -0.13776288647E+02  0.13776288647E+02  0.00000000000E+00 0. -1.
         23    2    1    2    0    0  0.66329161290E+02 -0.55106047147E+02  0.71395502356E+03  0.72992536317E+03  0.12499210399E+03 0.  0.
          5    1    3    3  502    0  0.61452208185E+02 -0.37371807791E+02  0.70545175908E+03  0.70912431935E+03  0.47000000000E+01 0. -1.
         -5    1    3    3    0  502  0.48769531053E+01 -0.17734239356E+02  0.85032644853E+01  0.20801043821E+02  0.47000000000E+01 0. -1.
        -11    1    1    2    0    0 -0.68169677251E+02  0.77282800713E+02  0.54973498993E+03  0.55931055357E+03  0.00000000000E+00 0.  1.
         11    1    1    2    0    0  0.18405159605E+01 -0.22176753566E+02  0.12238389148E+03  0.12439056552E+03  0.00000000000E+00 0. -1.
<mgrwt>
<rscale>  0 0.14473259E+03</rscale>
<asrwt>0</asrwt>
<pdfrwt beam="1">  1        2 0.21536146E+00 0.15185276E+03</pdfrwt>
<pdfrwt beam="2">  1       -2 0.21194301E-02 0.15185276E+03</pdfrwt>
<totfact> 0.10718450E+04</totfact>
</mgrwt>
</event>
<event>
 6    1  0.6387485E-006  0.2253665E+03  0.7546771E-02  0.1169066E+00
         -4   -1    0    0    0  501 -0.00000000000E+00  0.00000000000E+00  0.13517704261E+03  0.13517704261E+03  0.00000000000E+00 0.  1.
          4   -1    0    0  501    0  0.00000000000E+00 -0.00000000000E+00 -0.19910681527E+03  0.19910681527E+03  0.00000000000E+00 0. -1.
          5    1    1    2  502    0 -0.40350369430E+02 -0.96038521553E+02  0.29101875983E+02  0.10826153112E+03  0.47000000000E+01 0. -1.
         -5    1    1    2    0  502  0.69953766365E+02  0.88744647096E+02 -0.30383988143E+02  0.11710857591E+03  0.47000000000E+01 0.  1.
        -11    1    1    2    0    0 -0.52508357561E+02 -0.16981592970E+02 -0.44701251245E+02  0.71019039534E+02  0.00000000000E+00 0. -1.
         11    1    1    2    0    0  0.22904960625E+02  0.24275467427E+02 -0.17946409250E+02  0.37894711307E+02  0.00000000000E+00 0.  1.
<mgrwt>
<rscale>  0 0.17870112E+03</rscale>
<asrwt>0</asrwt>
<pdfrwt beam="2">  1        4 0.30631818E-01 0.22536646E+03</pdfrwt>
<pdfrwt beam="1">  1       -4 0.20796468E-01 0.22536646E+03</pdfrwt>
<totfact> 0.38928671E+02</totfact>
</mgrwt>
</event>
<event>
 7    1  0.6387485E-006  0.1647177E+03  0.7546771E-02  0.1190346E+00
          1   -1    0    0  501    0  0.00000000000E+00  0.00000000000E+00  0.13754650598E+04  0.13754650598E+04  0.00000000000E+00 0. -1.
         -1   -1    0    0    0  501 -0.00000000000E+00 -0.00000000000E+00 -0.18048784050E+02  0.18048784050E+02  0.00000000000E+00 0.  1.
         23    2    1    2    0    0 -0.27224182188E+02 -0.10376851724E+03  0.89250700255E+03  0.90757956089E+03  0.12499139360E+03 0.  0.
          5    1    3    3  502    0 -0.50558649269E+02  0.70973117168E+01  0.26713981122E+03  0.27201528926E+03  0.47000000000E+01 0.  1.
         -5    1    3    3    0  502  0.23334467081E+02 -0.11086582896E+03  0.62536719133E+03  0.63556427163E+03  0.47000000000E+01 0.  1.
        -11    1    1    2    0    0 -0.12543333684E+02  0.77791163977E+02  0.38493749821E+03  0.39291942933E+03  0.00000000000E+00 0. -1.
         11    1    1    2    0    0  0.39767515872E+02  0.25977353262E+02  0.79971774943E+02  0.93014853592E+02  0.00000000000E+00 0.  1.
<mgrwt>
<rscale>  0 0.15854801E+03</rscale>
<asrwt>0</asrwt>
<pdfrwt beam="1">  1        1 0.21160993E+00 0.16471767E+03</pdfrwt>
<pdfrwt beam="2">  1       -1 0.27767371E-02 0.16471767E+03</pdfrwt>
<totfact> 0.36364279E+03</totfact>
</mgrwt>
</event>
<event>
 7    1  0.6387485E-006  0.3098998E+03  0.7546771E-02  0.1081856E+00
         -4   -1    0    0    0  501 -0.00000000000E+00  0.00000000000E+00  0.44566608997E+03  0.44566608997E+03  0.00000000000E+00 0.  1.
          4   -1    0    0  501    0  0.00000000000E+00 -0.00000000000E+00 -0.24481517817E+03  0.24481517817E+03  0.00000000000E+00 0. -1.
         23    2    1    2    0    0 -0.13179676715E+03 -0.25108063777E+03  0.23727601257E+03  0.39030474052E+03  0.12500403929E+03 0.  0.
          5    1    3    3  502    0 -0.10651335784E+02 -0.75177345333E+02  0.73186277577E+01  0.76424711433E+02  0.47000000000E+01 0. -1.
         -5    1    3    3    0  502 -0.12114543136E+03 -0.17590329244E+03  0.22995738481E+03  0.31388002909E+03  0.47000000000E+01 0. -1.
        -11    1    1    2    0    0  0.10495626378E+03  0.17302191152E+03 -0.65434399970E+02  0.21268300325E+03  0.00000000000E+00 0. -1.
         11    1    1    2    0    0  0.26840503366E+02  0.78058726251E+02  0.29009299200E+02  0.87493524360E+02  0.00000000000E+00 0.  1.
<mgrwt>
<rscale>  0 0.30687029E+03</rscale>
<asrwt>0</asrwt>
<pdfrwt beam="2">  1        4 0.37663874E-01 0.30989980E+03</pdfrwt>
<pdfrwt beam="1">  1       -4 0.68564014E-01 0.30989980E+03</pdfrwt>
<totfact> 0.25285334E+01</totfact>
</mgrwt>
</event>
<event>
 6    1  0.6387485E-006  0.1729891E+03  0.7546771E-02  0.1198204E+00
          1   -1    0    0  501    0  0.00000000000E+00  0.00000000000E+00  0.18706629361E+03  0.18706629361E+03  0.00000000000E+00 0. -1.
         -1   -1    0    0    0  501 -0.00000000000E+00 -0.00000000000E+00 -0.10238564561E+03  0.10238564561E+03  0.00000000000E+00 0.  1.
          5    1    1    2  502    0 -0.74713209892E+02  0.56627818408E+01 -0.35890798492E+02  0.83212800980E+02  0.47000000000E+01 0. -1.
         -5    1    1    2    0  502  0.40587607420E+02 -0.37190511775E+02  0.76694954049E+02  0.94523510402E+02  0.47000000000E+01 0.  1.
        -11    1    1    2    0    0  0.28902089257E+02 -0.13628891290E+02 -0.16640367215E+02  0.36027479266E+02  0.00000000000E+00 0.  1.
         11    1    1    2    0    0  0.52235132154E+01  0.45156621225E+02  0.60516859655E+02  0.75688148566E+02  0.00000000000E+00 0. -1.
<mgrwt>
<rscale>  0 0.15186143E+03</rscale>
<asrwt>0</asrwt>
<pdfrwt beam="1">  1        1 0.28779430E-01 0.17298907E+03</pdfrwt>
<pdfrwt beam="2">  1       -1 0.15751638E-01 0.17298907E+03</pdfrwt>
<totfact> 0.46091159E+03</totfact>
</mgrwt>
</event>
<event>
 7    1  0.6387485E-006  0.1565502E+03  0.7546771E-02  0.1201094E+00
         -1   -1    0    0    0  501 -0.00000000000E+00  0.00000000000E+00  0.82381408431E+02  0.82381408431E+02  0.00000000000E+00 0.  1.
          1   -1    0    0  501    0  0.00000000000E+00 -0.00000000000E+00 -0.26943406158E+03  0.26943406158E+03  0.00000000000E+00 0. -1.
         23    2    1    2    0    0 -0.98949547541E+01 -0.93915040506E+02 -0.53830320966E+02  0.16554658178E+03  0.12486001089E+03 0.  0.
          5    1    3    3  502    0  0.18390224584E+02 -0.18112097815E+02  0.36009187453E+02  0.44553339140E+02  0.47000000000E+01 0.  1.
         -5    1    3    3    0  502 -0.28285179338E+02 -0.75802942690E+02 -0.89839508419E+02  0.12099324264E+03  0.47000000000E+01 0.  1.
        -11    1    1    2    0    0  0.10744518995E+02  0.32147418329E+02 -0.11782757549E+03  0.12260603060E+03  0.00000000000E+00 0. -1.
         11    1    1    2    0    0 -0.84956424064E+00  0.61767622177E+02 -0.15394756694E+02  0.63662857636E+02  0.00000000000E+00 0.  1.
<mgrwt>
<rscale>  0 0.14949606E+03</rscale>
<asrwt>0</asrwt>
<pdfrwt beam="2">  1        1 0.41451394E-01 0.15655021E+03</pdfrwt>
<pdfrwt beam="1">  1       -1 0.12674063E-01 0.15655021E+03</pdfrwt>
<totfact> 0.40916350E+03</totfact>
</mgrwt>
</event>
<event>
 7    1  0.6387485E-006  0.1463543E+03  0.7546771E-02  0.1214078E+00
         -1   -1    0    0    0  501 -0.00000000000E+00  0.00000000000E+00  0.36989487715E+03  0.36989487715E+03  0.00000000000E+00 0.  1.
          1   -1    0    0  501    0  0.00000000000E+00 -0.00000000000E+00 -0.76668855067E+02  0.76668855067E+02  0.00000000000E+00 0. -1.
         23    2    1    2    0    0 -0.69348422114E+02 -0.31371712665E+02  0.29122656922E+03  0.32593325868E+03  0.12500474586E+03 0.  0.
          5    1    3    3  502    0  0.16460206189E+02  0.34028064622E+02  0.84900245942E+02  0.93053690581E+02  0.47000000000E+01 0. -1.
         -5    1    3    3    0  502 -0.85808628303E+02 -0.65399777287E+02  0.20632632328E+03  0.23287956810E+03  0.47000000000E+01 0. -1.
        -11    1    1    2    0    0  0.60550442417E+02  0.64840144945E+01 -0.38675975312E+02  0.72140346459E+02  0.00000000000E+00 0. -1.
         11    1    1    2    0    0  0.87979796965E+01  0.24887698170E+02  0.40675428166E+02  0.48490127071E+02  0.00000000000E+00 0.  1.
<mgrwt>
<rscale>  0 0.13944515E+03</rscale>
<asrwt>0</asrwt>
<pdfrwt beam="2">  1        1 0.11795209E-01 0.14635428E+03</pdfrwt>
<pdfrwt beam="1">  1       -1 0.56906903E-01 0.14635428E+03</pdfrwt>
<totfact> 0.16187214E+03</totfact>
</mgrwt>
</event>
<event>
 7    1  0.6387485E-006  0.1402938E+03  0.7546771E-02  0.1225841E+00
         -2   -1    0    0    0  501 -0.00000000000E+00  0.00000000000E+00  0.41480690793E+03  0.41480690793E+03  0.00000000000E+00 0.  1.
          2   -1    0    0  501    0  0.00000000000E+00 -0.00000000000E+00 -0.38326021739E+02  0.38326021739E+02  0.00000000000E+00 0. -1.
         23    2    1    2    0    0 -0.60450404880E+02  0.20163868491E+02  0.25678814989E+03  0.29261322083E+03  0.12498603936E+03 0.  0.
          5    1    3    3  502    0 -0.38174721779E+01  0.64546942673E+02  0.90120310950E+02  0.11101640126E+03  0.47000000000E+01 0.  1.
         -5    1    3    3    0  502 -0.56632932702E+02 -0.44383074182E+02  0.16666783894E+03  0.18159681957E+03  0.47000000000E+01 0.  1.
        -11    1    1    2    0    0  0.39969223351E+02 -0.44071353912E+02  0.11391027574E+03  0.12851215495E+03  0.00000000000E+00 0.  1.
         11    1    1    2    0    0  0.20481181529E+02  0.23907485421E+02  0.57824605583E+01  0.32007553891E+02  0.00000000000E+00 0. -1.
<mgrwt>
<rscale>  0 0.13109409E+03</rscale>
<asrwt>0</asrwt>
<pdfrwt beam="2">  1        2 0.58963113E-02 0.14029377E+03</pdfrwt>
<pdfrwt beam="1">  1       -2 0.63816444E-01 0.14029377E+03</pdfrwt>
<totfact> 0.28181281E+03</totfact>
</mgrwt>
</event>
<event>
 7    1  0.6387485E-006  0.1401682E+03  0.7546771E-02  0.1222829E+00
         -1   -1    0    0    0  501 -0.00000000000E+00  0.00000000000E+00  0.74970422759E+02  0.74970422759E+02  0.00000000000E+00 0.  1.
          1   -1    0    0  501    0  0.00000000000E+00 -0.00000000000E+00 -0.21860564802E+03  0.21860564802E+03  0.00000000000E+00 0. -1.
         23    2    1    2    0    0 -0.55067612412E+02 -0.31467356193E+02 -0.62378982912E+02  0.15342188388E+03  0.12499800200E+03 0.  0.
          5    1    3    3  502    0 -0.85616526683E+02 -0.52805756284E+02 -0.33785512098E+02  0.10621764621E+03  0.47000000000E+01 0. -1.
         -5    1    3    3    0  502  0.30548914271E+02  0.21338400091E+02 -0.28593470814E+02  0.47204237678E+02  0.47000000000E+01 0. -1.
        -11    1    1    2    0    0  0.53805890755E+02  0.62569526385E+02 -0.64932242800E+02  0.10500578873E+03  0.00000000000E+00 0.  1.
         11    1    1    2    0    0  0.12617216571E+01 -0.31102170193E+02 -0.16323999553E+02  0.35148398166E+02  0.00000000000E+00 0. -1.
<mgrwt>
<rscale>  0 0.13316789E+03</rscale>
<asrwt>0</asrwt>
<pdfrwt beam="2">  1        1 0.33631638E-01 0.14016825E+03</pdfrwt>
<pdfrwt beam="1">  1       -1 0.11533911E-01 0.14016825E+03</pdfrwt>
<totfact> 0.60968289E+03</totfact>
</mgrwt>
</event>
<event>
 7    1  0.6387485E-006  0.1921781E+03  0.7546771E-02  0.1161234E+00
          2   -1    0    0  501    0  0.00000000000E+00  0.00000000000E+00  0.57527003085E+02  0.57527003085E+02  0.00000000000E+00 0.  1.
         -2   -1    0    0    0  501 -0.00000000000E+00 -0.00000000000E+00 -0.62499984155E+03  0.62499984155E+03  0.00000000000E+00 0. -1.
         23    2    1    2    0    0  0.44740899810E+02  0.13894622847E+03 -0.39280177632E+03  0.43729354872E+03  0.12499843899E+03 0.  0.
          5    1    3    3  502    0 -0.80817036750E+01 -0.38264651748E+01 -0.15222219447E+03  0.15255701314E+03  0.47000000000E+01 0. -1.
         -5    1    3    3    0  502  0.52822603485E+02  0.14277269364E+03 -0.24057958186E+03  0.28473653558E+03  0.47000000000E+01 0. -1.
        -11    1    1    2    0    0 -0.73080845322E+02 -0.98189170831E+02 -0.12064726157E+03  0.17186531048E+03  0.00000000000E+00 0.  1.
         11    1    1    2    0    0  0.28339945512E+02 -0.40757057634E+02 -0.54023800571E+02  0.73367985434E+02  0.00000000000E+00 0. -1.
<mgrwt>
<rscale>  0 0.18695764E+03</rscale>
<asrwt>0</asrwt>
<pdfrwt beam="1">  1        2 0.88503086E-02 0.19217807E+03</pdfrwt>
<pdfrwt beam="2">  1       -2 0.96153817E-01 0.19217807E+03</pdfrwt>
<totfact> 0.69588572E+02</totfact>
</mgrwt>
</event>
<event>
 6    1  0.6387485E-006  0.1532447E+03  0.7546771E-02  0.1215165E+00
          1   -1    0    0  501    0  0.00000000000E+00  0.00000000000E+00  0.69492214947E+03  0.69492214947E+03  0.00000000000E+00 0. -1.
         -1   -1    0    0    0  501 -0.00000000000E+00 -0.00000000000E+00 -0.30353521673E+02  0.30353521673E+02  0.00000000000E+00 0.  1.
          5    1    1    2  502    0  0.78946498636E+02  0.14341176415E+02  0.21415031418E+03  0.22873711122E+03  0.47000000000E+01 0. -1.
         -5    1    1    2    0  502 -0.34360527007E+02  0.20905774005E+01  0.18194493863E+00  0.34743912186E+02  0.47000000000E+01 0.  1.
        -11    1    1    2    0    0 -0.18511423382E+01  0.35081769658E+02  0.13192429636E+03  0.13652170985E+03  0.00000000000E+00 0. -1.
         11    1    1    2    0    0 -0.42734829291E+02 -0.51513523473E+02  0.31831207232E+03  0.32527293788E+03  0.00000000000E+00 0.  1.
<mgrwt>
<rscale>  0 0.13864426E+03</rscale>
<asrwt>0</asrwt>
<pdfrwt beam="1">  1        1 0.10691109E+00 0.15324468E+03</pdfrwt>
<pdfrwt beam="2">  1       -1 0.46697731E-02 0.15324468E+03</pdfrwt>
<totfact> 0.54109257E+03</totfact>
</mgrwt>
</event>
<event>
 7    1  0.6387485E-006  0.1316440E+03  0.7546771E-02  0.1238202E+00
          2   -1    0    0  501    0  0.00000000000E+00  0.00000000000E+00  0.53580971145E+02  0.53580971145E+02  0.00000000000E+00 0. -1.
         -2   -1    0    0    0  501 -0.00000000000E+00 -0.00000000000E+00 -0.25278114799E+03  0.25278114799E+03  0.00000000000E+00 0.  1.
         23    2    1    2    0    0  0.78297152555E+01 -0.40702653038E+02 -0.12499178070E+03  0.18152982679E+03  0.12494847885E+03 0.  0.
          5    1    3    3  502    0 -0.14185918908E+02 -0.41489960773E+02 -0.14490344234E+03  0.15146535822E+03  0.47000000000E+01 0. -1.
         -5    1    3    3    0  502  0.22015634163E+02  0.78730773505E+00  0.19911661637E+02  0.30064468567E+02  0.47000000000E+01 0. -1.
        -11    1    1    2    0    0  0.17133881178E+02  0.84231264706E+01  0.16585287485E+02  0.25290130579E+02  0.00000000000E+00 0. -1.
         11    1    1    2    0    0 -0.24963596433E+02  0.32279526567E+02 -0.90793683632E+02  0.99542161769E+02  0.00000000000E+00 0.  1.
<mgrwt>
<rscale>  0 0.12301636E+03</rscale>
<asrwt>0</asrwt>
<pdfrwt beam="1">  1        2 0.82432263E-02 0.13164396E+03</pdfrwt>
<pdfrwt beam="2">  1       -2 0.38889408E-01 0.13164396E+03</pdfrwt>
<totfact> 0.48818867E+03</totfact>
</mgrwt>
</event>
<event>
 7    1  0.6387485E-006  0.1284362E+03  0.7546771E-02  0.1230560E+00
         -2   -1    0    0    0  501 -0.00000000000E+00  0.00000000000E+00  0.85272955854E+02  0.85272955854E+02  0.00000000000E+00 0.  1.
          2   -1    0    0  501    0  0.00000000000E+00 -0.00000000000E+00 -0.20986640748E+03  0.20986640748E+03  0.00000000000E+00 0. -1.
         23    2    1    2    0    0  0.18941550537E+02 -0.58435127177E-01 -0.16938984119E+02  0.12755257607E+03  0.12499577883E+03 0.  0.
          5    1    3    3  502    0 -0.32274739778E+02  0.35696691192E+02 -0.37967785586E+02  0.61478088228E+02  0.47000000000E+01 0.  1.
         -5    1    3    3    0  502  0.51216290316E+02 -0.35755126319E+02  0.21028801468E+02  0.66074487837E+02  0.47000000000E+01 0.  1.
        -11    1    1    2    0    0  0.40119900852E+02  0.17965699294E+02 -0.53699730431E+00  0.43962042282E+02  0.00000000000E+00 0.  1.
         11    1    1    2    0    0 -0.59061451390E+02 -0.17907264167E+02 -0.10711747020E+03  0.12362474499E+03  0.00000000000E+00 0. -1.
<mgrwt>
<rscale>  0 0.12792984E+03</rscale>
<asrwt>0</asrwt>
<pdfrwt beam="2">  1        2 0.32287139E-01 0.12843616E+03</pdfrwt>
<pdfrwt beam="1">  1       -2 0.13118917E-01 0.12843616E+03</pdfrwt>
<totfact> 0.65460418E+03</totfact>
</mgrwt>
</event>
<event>
 7    1  0.6387485E-006  0.1400323E+03  0.7546771E-02  0.1225428E+00
         -1   -1    0    0    0  501 -0.00000000000E+00  0.00000000000E+00  0.30947598178E+02  0.30947598178E+02  0.00000000000E+00 0.  1.
          1   -1    0    0  501    0  0.00000000000E+00 -0.00000000000E+00 -0.51248470475E+03  0.51248470475E+03  0.00000000000E+00 0. -1.
         23    2    1    2    0    0  0.32786708498E+02 -0.53940855120E+02 -0.22667803756E+03  0.26644320056E+03  0.12499784921E+03 0.  0.
          5    1    3    3  502    0 -0.20117068527E+02  0.26276381310E+02 -0.21263113061E+02  0.39615080940E+02  0.47000000000E+01 0.  1.
         -5    1    3    3    0  502  0.52903777025E+02 -0.80217236430E+02 -0.20541492450E+03  0.22682811962E+03  0.47000000000E+01 0.  1.
        -11    1    1    2    0    0 -0.78016720366E+00  0.51073249385E+02 -0.23199208080E+03  0.23754875503E+03  0.00000000000E+00 0. -1.
         11    1    1    2    0    0 -0.32006541295E+02  0.28676057349E+01 -0.22866988222E+02  0.39440347344E+02  0.00000000000E+00 0.  1.
<mgrwt>
<rscale>  0 0.13137641E+03</rscale>
<asrwt>0</asrwt>
<pdfrwt beam="2">  1        1 0.78843795E-01 0.14003230E+03</pdfrwt>
<pdfrwt beam="1">  1       -1 0.47611693E-02 0.14003230E+03</pdfrwt>
<totfact> 0.79313628E+03</totfact>
</mgrwt>
</event>
<event>
 7    1  0.6387485E-006  0.1923796E+03  0.7546771E-02  0.1161217E+00
         -2   -1    0    0    0  501 -0.00000000000E+00  0.00000000000E+00  0.53570815189E+03  0.53570815189E+03  0.00000000000E+00 0.  1.
          2   -1    0    0  501    0  0.00000000000E+00 -0.00000000000E+00 -0.68771641414E+02  0.68771641414E+02  0.00000000000E+00 0. -1.
         23    2    1    2    0    0  0.14620220647E+03  0.33242482399E+01  0.34119279690E+03  0.39169177301E+03  0.12499513824E+03 0.  0.
          5    1    3    3  502    0  0.16700186678E+03  0.14265815323E+02  0.28616434257E+03  0.33167040560E+03  0.47000000000E+01 0.  1.
         -5    1    3    3    0  502 -0.20799660309E+02 -0.10941567083E+02  0.55028454327E+02  0.60021367403E+02  0.47000000000E+01 0.  1.
        -11    1    1    2    0    0 -0.14762087179E+03  0.17441815923E+02  0.12041945082E+03  0.19130337913E+03  0.00000000000E+00 0.  1.
         11    1    1    2    0    0  0.14186653189E+01 -0.20766064163E+02  0.53242627596E+01  0.21484641166E+02  0.00000000000E+00 0. -1.
<mgrwt>
<rscale>  0 0.18697639E+03</rscale>
<asrwt>0</asrwt>
<pdfrwt beam="2">  1        2 0.10580253E-01 0.19237963E+03</pdfrwt>
<pdfrwt beam="1">  1       -2 0.82416636E-01 0.19237963E+03</pdfrwt>
<totfact> 0.78886121E+02</totfact>
</mgrwt>
</event>
<event>
 7    1  0.6387485E-006  0.1357199E+03  0.7546771E-02  0.1227368E+00
         -3   -1    0    0    0  501 -0.00000000000E+00  0.00000000000E+00  0.93343930160E+02  0.93343930160E+02  0.00000000000E+00 0.  1.
          3   -1    0    0  501    0  0.00000000000E+00 -0.00000000000E+00 -0.16773819877E+03  0.16773819877E+03  0.00000000000E+00 0. -1.
         23    2    1    2    0    0 -0.21552927340E+02 -0.69255472596E+02 -0.37004585049E+02  0.14067419456E+03  0.11471286126E+03 0.  0.
          5    1    3    3  502    0 -0.40993068104E+02 -0.88430135138E+02 -0.50477329623E+02  0.10986524127E+03  0.47000000000E+01 0. -1.
         -5    1    3    3    0  502  0.19440140765E+02  0.19174662541E+02  0.13472744574E+02  0.30808953291E+02  0.47000000000E+01 0.  1.
        -11    1    1    2    0    0  0.11393614523E+02  0.87396777302E+02 -0.44107972931E+02  0.98557213895E+02  0.00000000000E+00 0.  1.
         11    1    1    2    0    0  0.10159312817E+02 -0.18141304706E+02  0.67182893675E+01  0.21850720477E+02  0.00000000000E+00 0. -1.
<mgrwt>
<rscale>  0 0.13005944E+03</rscale>
<asrwt>0</asrwt>
<pdfrwt beam="2">  1        3 0.25805876E-01 0.13571989E+03</pdfrwt>
<pdfrwt beam="1">  1       -3 0.14360605E-01 0.13571989E+03</pdfrwt>
<totfact> 0.13052166E+03</totfact>
</mgrwt>
</event>
<event>
 7    1  0.6387485E-006  0.1261964E+03  0.7546771E-02  0.1245913E+00
         -2   -1    0    0    0  501 -0.00000000000E+00  0.00000000000E+00  0.73028304044E+02  0.73028304044E+02  0.00000000000E+00 0.  1.
          2   -1    0    0  501    0  0.00000000000E+00 -0.00000000000E+00 -0.19300322547E+03  0.19300322547E+03  0.00000000000E+00 0. -1.
         23    2    1    2    0    0  0.16342782361E+02 -0.58065448488E+01 -0.22521164824E+02  0.12819019588E+03  0.12499888382E+03 0.  0.
          5    1    3    3  502    0 -0.38395471674E+02  0.13501183678E+02  0.29194288260E+02  0.50307958344E+02  0.47000000000E+01 0. -1.
         -5    1    3    3    0  502  0.54738254035E+02 -0.19307728527E+02 -0.51715453084E+02  0.77882237534E+02  0.47000000000E+01 0. -1.
        -11    1    1    2    0    0  0.79642500218E+01 -0.21112217012E+02 -0.99000295530E+02  0.10153922149E+03  0.00000000000E+00 0. -1.
         11    1    1    2    0    0 -0.24307032383E+02  0.26918761860E+02  0.15465389324E+01  0.36302112143E+02  0.00000000000E+00 0.  1.
<mgrwt>
<rscale>  0 0.11830898E+03</rscale>
<asrwt>0</asrwt>
<pdfrwt beam="2">  1        2 0.29692804E-01 0.12619637E+03</pdfrwt>
<pdfrwt beam="1">  1       -2 0.11235124E-01 0.12619637E+03</pdfrwt>
<totfact> 0.91639255E+03</totfact>
</mgrwt>
</event>
<event>
 7    1  0.6387485E-006  0.1171462E+03  0.7546771E-02  0.1258312E+00
          1   -1    0    0  501    0  0.00000000000E+00  0.00000000000E+00  0.16129466409E+03  0.16129466409E+03  0.00000000000E+00 0. -1.
         -1   -1    0    0    0  501 -0.00000000000E+00 -0.00000000000E+00 -0.10839980484E+03  0.10839980484E+03  0.00000000000E+00 0.  1.
         23    2    1    2    0    0  0.25442874801E+01 -0.22918918067E+02 -0.51882567153E+02  0.12812112272E+03  0.11485412970E+03 0.  0.
          5    1    3    3  502    0  0.51381961662E+02  0.14116556276E+02 -0.36482904180E+02  0.64749327740E+02  0.47000000000E+01 0. -1.
         -5    1    3    3    0  502 -0.48837674182E+02 -0.37035474343E+02 -0.15399662973E+02  0.63371794981E+02  0.47000000000E+01 0.  1.
        -11    1    1    2    0    0 -0.27875147541E+02 -0.23507113379E+02  0.19827780722E+02  0.41506013037E+02  0.00000000000E+00 0.  1.
         11    1    1    2    0    0  0.25330860060E+02  0.46426031446E+02  0.84949645679E+02  0.10006733317E+03  0.00000000000E+00 0. -1.
<mgrwt>
<rscale>  0 0.11122828E+03</rscale>
<asrwt>0</asrwt>
<pdfrwt beam="1">  1        1 0.24814564E-01 0.11714615E+03</pdfrwt>
<pdfrwt beam="2">  1       -1 0.16676893E-01 0.11714615E+03</pdfrwt>
<totfact> 0.49562933E+03</totfact>
</mgrwt>
</event>
<event>
 6    1  0.6387485E-006  0.1510689E+03  0.7546771E-02  0.1211247E+00
          1   -1    0    0  501    0  0.00000000000E+00  0.00000000000E+00  0.45365724320E+03  0.45365724320E+03  0.00000000000E+00 0. -1.
         -1   -1    0    0    0  501 -0.00000000000E+00 -0.00000000000E+00 -0.39940519077E+02  0.39940519077E+02  0.00000000000E+00 0.  1.
          5    1    1    2  502    0 -0.15308420951E+02 -0.93304374388E+02  0.17310064931E+03  0.19729667718E+03  0.47000000000E+01 0. -1.
         -5    1    1    2    0  502  0.40829923879E+02  0.24730568537E+02  0.32921702358E+02  0.58177419936E+02  0.47000000000E+01 0.  1.
        -11    1    1    2    0    0 -0.51798692445E+02  0.48050877570E+02  0.82762775560E+02  0.10881943022E+03  0.00000000000E+00 0.  1.
         11    1    1    2    0    0  0.26277189516E+02  0.20522928281E+02  0.12493159689E+03  0.12930423495E+03  0.00000000000E+00 0. -1.
<mgrwt>
<rscale>  0 0.14155898E+03</rscale>
<asrwt>0</asrwt>
<pdfrwt beam="1">  1        1 0.69793418E-01 0.15106887E+03</pdfrwt>
<pdfrwt beam="2">  1       -1 0.61446956E-02 0.15106887E+03</pdfrwt>
<totfact> 0.63890084E+03</totfact>
</mgrwt>
</event>
<event>
 7    1  0.6387485E-006  0.1335127E+03  0.7546771E-02  0.1233464E+00
          1   -1    0    0  501    0  0.00000000000E+00  0.00000000000E+00  0.53914584968E+03  0.53914584968E+03  0.00000000000E+00 0. -1.
         -1   -1    0    0    0  501 -0.00000000000E+00 -0.00000000000E+00 -0.35853720847E+02  0.35853720847E+02  0.00000000000E+00 0.  1.
         23    2    1    2    0    0  0.23361503008E+02  0.40690092778E+02  0.12776981419E+03  0.18479927212E+03  0.12499680830E+03 0.  0.
          5    1    3    3  502    0  0.64452560060E+00  0.19111243382E+02  0.14661770946E+03  0.14793409940E+03  0.47000000000E+01 0. -1.
         -5    1    3    3    0  502  0.22716977407E+02  0.21578849396E+02 -0.18847895268E+02  0.36865172722E+02  0.47000000000E+01 0. -1.
        -11    1    1    2    0    0 -0.51327853652E+02 -0.92442543131E+01  0.29258961954E+03  0.29720143045E+03  0.00000000000E+00 0. -1.
         11    1    1    2    0    0  0.27966350645E+02 -0.31445838465E+02  0.82932695104E+02  0.92998867963E+02  0.00000000000E+00 0.  1.
<mgrwt>
<rscale>  0 0.12603298E+03</rscale>
<asrwt>0</asrwt>
<pdfrwt beam="1">  1        1 0.82945510E-01 0.13351272E+03</pdfrwt>
<pdfrwt beam="2">  1       -1 0.55159574E-02 0.13351272E+03</pdfrwt>
<totfact> 0.59493003E+03</totfact>
</mgrwt>
</event>
<event>
 7    1  0.6387485E-006  0.1748805E+03  0.7546771E-02  0.1176670E+00
         -1   -1    0    0    0  501 -0.00000000000E+00  0.00000000000E+00  0.33757610248E+02  0.33757610248E+02  0.00000000000E+00 0.  1.
          1   -1    0    0  501    0  0.00000000000E+00 -0.00000000000E+00 -0.84870268238E+03  0.84870268238E+03  0.00000000000E+00 0. -1.
         23    2    1    2    0    0 -0.94006038001E+02  0.93633928215E+02 -0.48593262690E+03  0.51644331759E+03  0.11392424986E+03 0.  0.
          5    1    3    3  502    0 -0.93814954705E+02  0.10673024281E+03 -0.32287591053E+03  0.35279389742E+03  0.47000000000E+01 0. -1.
         -5    1    3    3    0  502 -0.19108329605E+00 -0.13096314596E+02 -0.16305671637E+03  0.16364942017E+03  0.47000000000E+01 0.  1.
        -11    1    1    2    0    0  0.94357763898E+02 -0.33964334651E+02 -0.19329753705E+03  0.21776340709E+03  0.00000000000E+00 0. -1.
         11    1    1    2    0    0 -0.35172589708E+00 -0.59669593564E+02 -0.13571490818E+03  0.14825356795E+03  0.00000000000E+00 0.  1.
<mgrwt>
<rscale>  0 0.17113477E+03</rscale>
<asrwt>0</asrwt>
<pdfrwt beam="2">  1        1 0.13056963E+00 0.17488048E+03</pdfrwt>
<pdfrwt beam="1">  1       -1 0.51934789E-02 0.17488048E+03</pdfrwt>
<totfact> 0.34451091E+03</totfact>
</mgrwt>
</event>
<event>
 7    1  0.6387485E-006  0.1524368E+03  0.7546771E-02  0.1206420E+00
         -1   -1    0    0    0  501 -0.00000000000E+00  0.00000000000E+00  0.95375700823E+03  0.95375700823E+03  0.00000000000E+00 0.  1.
          1   -1    0    0  501    0  0.00000000000E+00 -0.00000000000E+00 -0.20734497273E+02  0.20734497273E+02  0.00000000000E+00 0. -1.
         23    2    1    2    0    0  0.74574314779E+02  0.45288211998E+02  0.58238147381E+03  0.60200095542E+03  0.12499847484E+03 0.  0.
          5    1    3    3  502    0  0.68871427762E+02 -0.12772654542E+02  0.47075307592E+03  0.47595899273E+03  0.47000000000E+01 0.  1.
         -5    1    3    3    0  502  0.57028870175E+01  0.58060866540E+02  0.11162839789E+03  0.12604196269E+03  0.47000000000E+01 0.  1.
        -11    1    1    2    0    0 -0.66657903503E+02 -0.70501529286E+02  0.24302143255E+03  0.26167376332E+03  0.00000000000E+00 0.  1.
         11    1    1    2    0    0 -0.79164112766E+01  0.25213317287E+02  0.10761960459E+03  0.11081678676E+03  0.00000000000E+00 0. -1.
<mgrwt>
<rscale>  0 0.14526122E+03</rscale>
<asrwt>0</asrwt>
<pdfrwt beam="2">  1        1 0.31899234E-02 0.15243677E+03</pdfrwt>
<pdfrwt beam="1">  1       -1 0.14673181E+00 0.15243677E+03</pdfrwt>
<totfact> 0.12299036E+03</totfact>
</mgrwt>
</event>
<event>
 7    1  0.6387485E-006  0.1746350E+03  0.7546771E-02  0.1178954E+00
          2   -1    0    0  501    0  0.00000000000E+00  0.00000000000E+00  0.22304111648E+03  0.22304111648E+03  0.00000000000E+00 0. -1.
         -2   -1    0    0    0  501 -0.00000000000E+00 -0.00000000000E+00 -0.12125544038E+03  0.12125544038E+03  0.00000000000E+00 0.  1.
         23    2    1    2    0    0 -0.12036019337E+03 -0.19624769302E+02  0.38903420937E+02  0.17891582868E+03  0.12500275947E+03 0.  0.
          5    1    3    3  502    0  0.18406319812E+02 -0.87218681793E+01  0.33562704779E+02  0.39539963905E+02  0.47000000000E+01 0.  1.
         -5    1    3    3    0  502 -0.13876651318E+03 -0.10902901123E+02  0.53407161580E+01  0.13937586478E+03  0.47000000000E+01 0.  1.
        -11    1    1    2    0    0  0.10993265868E+03  0.47082902068E+02  0.64666849384E+02  0.13595510480E+03  0.00000000000E+00 0. -1.
         11    1    1    2    0    0  0.10427534691E+02 -0.27458132766E+02 -0.17845942281E+01  0.29425623380E+02  0.00000000000E+00 0.  1.
<mgrwt>
<rscale>  0 0.16894395E+03</rscale>
<asrwt>0</asrwt>
<pdfrwt beam="1">  1        2 0.34314018E-01 0.17463504E+03</pdfrwt>
<pdfrwt beam="2">  1       -2 0.18654683E-01 0.17463504E+03</pdfrwt>
<totfact> 0.34950996E+03</totfact>
</mgrwt>
</event>
<event>
 7    1  0.6387485E-006  0.1434148E+03  0.7546771E-02  0.1239141E+00
         -2   -1    0    0    0  501 -0.00000000000E+00  0.00000000000E+00  0.11856786182E+02  0.11856786182E+02  0.00000000000E+00 0.  1.
          2   -1    0    0  501    0  0.00000000000E+00 -0.00000000000E+00 -0.10199760217E+04  0.10199760217E+04  0.00000000000E+00 0. -1.
         23    2    1    2    0    0 -0.63665273687E+02  0.30138688600E+02 -0.68601587715E+03  0.70084634566E+03  0.12492481298E+03 0.  0.
          5    1    3    3  502    0  0.16854155361E+02  0.56023025651E+02 -0.27582815487E+03  0.28200337405E+03  0.47000000000E+01 0. -1.
         -5    1    3    3    0  502 -0.80519429048E+02 -0.25884337050E+02 -0.41018772227E+03  0.41884297160E+03  0.47000000000E+01 0.  1.
        -11    1    1    2    0    0  0.13199604277E+02 -0.16361588213E+02 -0.56584493379E+02  0.60363366480E+02  0.00000000000E+00 0.  1.
         11    1    1    2    0    0  0.50465669410E+02 -0.13777100388E+02 -0.26551886504E+03  0.27062309579E+03  0.00000000000E+00 0. -1.
<mgrwt>
<rscale>  0 0.12242998E+03</rscale>
<asrwt>0</asrwt>
<pdfrwt beam="2">  1        2 0.15691946E+00 0.14341484E+03</pdfrwt>
<pdfrwt beam="1">  1       -2 0.18241201E-02 0.14341484E+03</pdfrwt>
<totfact> 0.21622080E+04</totfact>
</mgrwt>
</event>
<event>
 7    1  0.6387485E-006  0.1324478E+03  0.7546771E-02  0.1242743E+00
         -2   -1    0    0    0  501 -0.00000000000E+00  0.00000000000E+00  0.71886295171E+02  0.71886295171E+02  0.00000000000E+00 0.  1.
          2   -1    0    0  501    0  0.00000000000E+00 -0.00000000000E+00 -0.18006681374E+03  0.18006681374E+03  0.00000000000E+00 0. -1.
         23    2    1    2    0    0 -0.94099315975E+01 -0.42787164247E+02 -0.37641708761E+02  0.13769285699E+03  0.12499254534E+03 0.  0.
          5    1    3    3  502    0  0.22445501981E+02 -0.60129159776E+02 -0.65419563401E+02  0.91766691616E+02  0.47000000000E+01 0. -1.
         -5    1    3    3    0  502 -0.31855433578E+02  0.17341995529E+02  0.27777854640E+02  0.45926165372E+02  0.47000000000E+01 0. -1.
        -11    1    1    2    0    0  0.14775285763E+02  0.42371575814E+01  0.14252999631E+02  0.20962122322E+02  0.00000000000E+00 0.  1.
         11    1    1    2    0    0 -0.53653541659E+01  0.38550006665E+02 -0.84791809440E+02  0.93298129602E+02  0.00000000000E+00 0. -1.
<mgrwt>
<rscale>  0 0.12021479E+03</rscale>
<asrwt>0</asrwt>
<pdfrwt beam="2">  1        2 0.27702587E-01 0.13244782E+03</pdfrwt>
<pdfrwt beam="1">  1       -2 0.11059430E-01 0.13244782E+03</pdfrwt>
<totfact> 0.10169939E+04</totfact>
</mgrwt>
</event>
<event>
 7    1  0.6387485E-006  0.1302160E+03  0.7546771E-02  0.1240849E+00
          3   -1    0    0  501    0  0.00000000000E+00  0.00000000000E+00  0.53142573799E+02  0.53142573799E+02  0.00000000000E+00 0. -1.
         -3   -1    0    0    0  501 -0.00000000000E+00 -0.00000000000E+00 -0.24590563320E+03  0.24590563320E+03  0.00000000000E+00 0.  1.
         23    2    1    2    0    0  0.25862543150E+02 -0.25730483587E+02 -0.11477726119E+03  0.17358005077E+03  0.12500114166E+03 0.  0.
          5    1    3    3  502    0  0.73627653039E+02 -0.88307440350E+01 -0.43817235875E+02  0.86261541211E+02  0.47000000000E+01 0. -1.
         -5    1    3    3    0  502 -0.47765109889E+02 -0.16899739552E+02 -0.70960025315E+02  0.87318509563E+02  0.47000000000E+01 0. -1.
        -11    1    1    2    0    0 -0.16662245974E+02  0.59678303454E+02 -0.58719941093E+02  0.85364874662E+02  0.00000000000E+00 0. -1.
         11    1    1    2    0    0 -0.92002971759E+01 -0.33947819867E+02 -0.19265857120E+02  0.40103281566E+02  0.00000000000E+00 0.  1.
<mgrwt>
<rscale>  0 0.12137329E+03</rscale>
<asrwt>0</asrwt>
<pdfrwt beam="1">  1        3 0.81757806E-02 0.13021603E+03</pdfrwt>
<pdfrwt beam="2">  1       -3 0.37831636E-01 0.13021603E+03</pdfrwt>
<totfact> 0.16240408E+03</totfact>
</mgrwt>
</event>
<event>
 7    1  0.6387485E-006  0.1532350E+03  0.7546771E-02  0.1205164E+00
         -2   -1    0    0    0  501 -0.00000000000E+00  0.00000000000E+00  0.47616753072E+02  0.47616753072E+02  0.00000000000E+00 0.  1.
          2   -1    0    0  501    0  0.00000000000E+00 -0.00000000000E+00 -0.43204502940E+03  0.43204502940E+03  0.00000000000E+00 0. -1.
         23    2    1    2    0    0  0.67527265171E+02  0.57401727417E+02 -0.15876827839E+03  0.22065432507E+03  0.12500430031E+03 0.  0.
          5    1    3    3  502    0  0.10937597766E+02  0.73034126505E+02 -0.14082801550E+03  0.15908562043E+03  0.47000000000E+01 0.  1.
         -5    1    3    3    0  502  0.56589667405E+02 -0.15632399088E+02 -0.17940262895E+02  0.61568704640E+02  0.47000000000E+01 0.  1.
        -11    1    1    2    0    0 -0.67418116296E+02  0.98194371631E+00 -0.10218708997E+03  0.12242699039E+03  0.00000000000E+00 0.  1.
         11    1    1    2    0    0 -0.10914887515E+00 -0.58383671133E+02 -0.12347290797E+03  0.13658046702E+03  0.00000000000E+00 0. -1.
<mgrwt>
<rscale>  0 0.14624526E+03</rscale>
<asrwt>0</asrwt>
<pdfrwt beam="2">  1        2 0.66468467E-01 0.15323500E+03</pdfrwt>
<pdfrwt beam="1">  1       -2 0.73256542E-02 0.15323500E+03</pdfrwt>
<totfact> 0.76580552E+03</totfact>
</mgrwt>
</event>
<event>
 6    1  0.6387485E-006  0.2563619E+03  0.7546771E-02  0.1141807E+00
         -1   -1    0    0    0  501 -0.00000000000E+00  0.00000000000E+00  0.73572700369E+02  0.73572700369E+02  0.00000000000E+00 0.  1.
          1   -1    0    0  501    0  0.00000000000E+00 -0.00000000000E+00 -0.48634385224E+03  0.48634385224E+03  0.00000000000E+00 0. -1.
          5    1    1    2  502    0 -0.91847985673E+02  0.59398736001E+02 -0.18666661476E+03  0.21640419907E+03  0.47000000000E+01 0. -1.
         -5    1    1    2    0  502  0.12075885571E+03  0.72153710772E+01 -0.45101509821E+02  0.12919364923E+03  0.47000000000E+01 0.  1.
        -11    1    1    2    0    0  0.15899887860E+02  0.11582921197E+02 -0.61954177426E+02  0.65002235330E+02  0.00000000000E+00 0. -1.
         11    1    1    2    0    0 -0.44810757897E+02 -0.78197028276E+02 -0.11904884986E+03  0.14931646898E+03  0.00000000000E+00 0.  1.
<mgrwt>
<rscale>  0 0.20969593E+03</rscale>
<asrwt>0</asrwt>
<pdfrwt beam="2">  1        1 0.74822131E-01 0.25636187E+03</pdfrwt>
<pdfrwt beam="1">  1       -1 0.11318877E-01 0.25636187E+03</pdfrwt>
<totfact> 0.23444177E+03</totfact>
</mgrwt>
</event>
<event>
 7    1  0.6387485E-006  0.1580695E+03  0.7546771E-02  0.1198494E+00
          2   -1    0    0  501    0  0.00000000000E+00  0.00000000000E+00  0.30797749852E+03  0.30797749852E+03  0.00000000000E+00 0. -1.
         -2   -1    0    0    0  501 -0.00000000000E+00 -0.00000000000E+00 -0.69972052080E+02  0.69972052080E+02  0.00000000000E+00 0.  1.
         23    2    1    2    0    0 -0.18142908075E+02  0.95162684198E+02  0.10845605866E+03  0.19169945252E+03  0.12490341012E+03 0.  0.
          5    1    3    3  502    0  0.40137521413E+02  0.12752300588E+02 -0.14524057179E+01  0.42400958454E+02  0.47000000000E+01 0. -1.
         -5    1    3    3    0  502 -0.58280429487E+02  0.82410383610E+02  0.10990846438E+03  0.14929849406E+03  0.47000000000E+01 0. -1.
        -11    1    1    2    0    0  0.31923399111E+02 -0.87280712505E+01  0.41909663317E+01  0.33359359066E+02  0.00000000000E+00 0.  1.
         11    1    1    2    0    0 -0.13780491036E+02 -0.86434612948E+02  0.12535842145E+03  0.15289073902E+03  0.00000000000E+00 0. -1.
<mgrwt>
<rscale>  0 0.15162158E+03</rscale>
<asrwt>0</asrwt>
<pdfrwt beam="1">  1        2 0.47381153E-01 0.15806949E+03</pdfrwt>
<pdfrwt beam="2">  1       -2 0.10764931E-01 0.15806949E+03</pdfrwt>
<totfact> 0.60412349E+03</totfact>
</mgrwt>
</event>
<event>
 7    1  0.6387485E-006  0.1338590E+03  0.7546771E-02  0.1233929E+00
         -1   -1    0    0    0  501 -0.00000000000E+00  0.00000000000E+00  0.19053847559E+03  0.19053847559E+03  0.00000000000E+00 0.  1.
          1   -1    0    0  501    0  0.00000000000E+00 -0.00000000000E+00 -0.81319071475E+02  0.81319071475E+02  0.00000000000E+00 0. -1.
         23    2    1    2    0    0  0.86771461346E+01 -0.47175905920E+02  0.10032691226E+03  0.16728332035E+03  0.12496944018E+03 0.  0.
          5    1    3    3  502    0 -0.53798825985E+02 -0.41965015669E+02  0.68578425804E+02  0.96852809475E+02  0.47000000000E+01 0.  1.
         -5    1    3    3    0  502  0.62475972120E+02 -0.52108902507E+01  0.31748486460E+02  0.70430510874E+02  0.47000000000E+01 0.  1.
        -11    1    1    2    0    0  0.23470751067E+01 -0.12497447353E+02 -0.29940914509E+02  0.32529268568E+02  0.00000000000E+00 0. -1.
         11    1    1    2    0    0 -0.11024221241E+02  0.59673353273E+02  0.38833406360E+02  0.72044958147E+02  0.00000000000E+00 0.  1.
<mgrwt>
<rscale>  0 0.12573256E+03</rscale>
<asrwt>0</asrwt>
<pdfrwt beam="2">  1        1 0.12510626E-01 0.13385896E+03</pdfrwt>
<pdfrwt beam="1">  1       -1 0.29313612E-01 0.13385896E+03</pdfrwt>
<totfact> 0.48124588E+03</totfact>
</mgrwt>
</event>
<event>
 7    1  0.6387485E-006  0.1326247E+03  0.7546771E-02  0.1236234E+00
          2   -1    0    0  501    0  0.00000000000E+00  0.00000000000E+00  0.33236009334E+02  0.33236009334E+02  0.00000000000E+00 0. -1.
         -2   -1    0    0    0  501 -0.00000000000E+00 -0.00000000000E+00 -0.44273514676E+03  0.44273514676E+03  0.00000000000E+00 0.  1.
         23    2    1    2    0    0 -0.65367790157E+01  0.43811471839E+02 -0.28896757695E+03  0.31794902824E+03  0.12500859766E+03 0.  0.
          5    1    3    3  502    0 -0.33109472212E+02  0.90820103810E+01 -0.26615924573E+03  0.26840557772E+03  0.47000000000E+01 0.  1.
         -5    1    3    3    0  502  0.26572693196E+02  0.34729461458E+02 -0.22808331217E+02  0.49543450523E+02  0.47000000000E+01 0.  1.
        -11    1    1    2    0    0  0.44615296082E+02 -0.16853291933E+02 -0.91186407885E+02  0.10290538896E+03  0.00000000000E+00 0.  1.
         11    1    1    2    0    0 -0.38078517067E+02 -0.26958179905E+02 -0.29345152597E+02  0.55116738898E+02  0.00000000000E+00 0. -1.
<mgrwt>
<rscale>  0 0.12425741E+03</rscale>
<asrwt>0</asrwt>
<pdfrwt beam="1">  1        2 0.51132327E-02 0.13262475E+03</pdfrwt>
<pdfrwt beam="2">  1       -2 0.68113092E-01 0.13262475E+03</pdfrwt>
<totfact> 0.29463583E+03</totfact>
</mgrwt>
</event>
<event>
 7    1  0.6387485E-006  0.2347680E+03  0.7546771E-02  0.1125781E+00
         -2   -1    0    0    0  501 -0.00000000000E+00  0.00000000000E+00  0.54531067328E+02  0.54531067328E+02  0.00000000000E+00 0.  1.
          2   -1    0    0  501    0  0.00000000000E+00 -0.00000000000E+00 -0.12070288838E+04  0.12070288838E+04  0.00000000000E+00 0. -1.
         23    2    1    2    0    0 -0.19534416398E+03 -0.36497274755E+02 -0.30019994786E+03  0.38109843421E+03  0.12499845759E+03 0.  0.
          5    1    3    3  502    0 -0.14146048943E+03  0.33328189023E+02 -0.20376867882E+03  0.25033098634E+03  0.47000000000E+01 0. -1.
         -5    1    3    3    0  502 -0.53883674549E+02 -0.69825463778E+02 -0.96431269034E+02  0.13076744787E+03  0.47000000000E+01 0. -1.
        -11    1    1    2    0    0  0.97776677951E+02 -0.89620933954E+01 -0.56890037506E+03  0.57731121123E+03  0.00000000000E+00 0. -1.
         11    1    1    2    0    0  0.97567486031E+02  0.45459368151E+02 -0.28339749354E+03  0.30315030567E+03  0.00000000000E+00 0.  1.
<mgrwt>
<rscale>  0 0.23122381E+03</rscale>
<asrwt>0</asrwt>
<pdfrwt beam="2">  1        2 0.18569674E+00 0.23476799E+03</pdfrwt>
<pdfrwt beam="1">  1       -2 0.83893955E-02 0.23476799E+03</pdfrwt>
<totfact> 0.17376280E+03</totfact>
</mgrwt>
</event>
<event>
 7    1  0.6387485E-006  0.1512147E+03  0.7546771E-02  0.1210061E+00
         -1   -1    0    0    0  501 -0.00000000000E+00  0.00000000000E+00  0.29766754285E+02  0.29766754285E+02  0.00000000000E+00 0.  1.
          1   -1    0    0  501    0  0.00000000000E+00 -0.00000000000E+00 -0.61454697968E+03  0.61454697968E+03  0.00000000000E+00 0. -1.
         23    2    1    2    0    0 -0.18786265493E+02  0.82981557922E+02 -0.31545850760E+03  0.34982844688E+03  0.12500803778E+03 0.  0.
          5    1    3    3  502    0 -0.53788921672E+02  0.23961674758E+01 -0.18297445489E+03  0.19078975563E+03  0.47000000000E+01 0.  1.
         -5    1    3    3    0  502  0.35002656179E+02  0.80585390446E+02 -0.13248405271E+03  0.15903869125E+03  0.47000000000E+01 0.  1.
        -11    1    1    2    0    0 -0.61356543615E+01 -0.80337613043E+02 -0.13012158125E+03  0.15304706541E+03  0.00000000000E+00 0. -1.
         11    1    1    2    0    0  0.24921919855E+02 -0.26439448790E+01 -0.13920013655E+03  0.14143822167E+03  0.00000000000E+00 0.  1.
<mgrwt>
<rscale>  0 0.14245682E+03</rscale>
<asrwt>0</asrwt>
<pdfrwt beam="2">  1        1 0.94545685E-01 0.15121466E+03</pdfrwt>
<pdfrwt beam="1">  1       -1 0.45795009E-02 0.15121466E+03</pdfrwt>
<totfact> 0.66133416E+03</totfact>
</mgrwt>
</event>
<event>
 7    1  0.6387485E-006  0.1271820E+03  0.7546771E-02  0.1246940E+00
          2   -1    0    0  501    0  0.00000000000E+00  0.00000000000E+00  0.55989205496E+03  0.55989205496E+03  0.00000000000E+00 0. -1.
         -2   -1    0    0    0  501 -0.00000000000E+00 -0.00000000000E+00 -0.26827176372E+02  0.26827176372E+02  0.00000000000E+00 0.  1.
         23    2    1    2    0    0 -0.23378694211E+02 -0.20163801187E+01  0.17271347472E+03  0.21448822590E+03  0.12499850225E+03 0.  0.
          5    1    3    3  502    0  0.38519632296E+02  0.20576931793E+02  0.20326449223E+02  0.48398623248E+02  0.47000000000E+01 0.  1.
         -5    1    3    3    0  502 -0.61898326508E+02 -0.22593311912E+02  0.15238702550E+03  0.16608960265E+03  0.47000000000E+01 0.  1.
        -11    1    1    2    0    0  0.30191889504E+02  0.39703856382E+02  0.14102906631E+03  0.14958991927E+03  0.00000000000E+00 0.  1.
         11    1    1    2    0    0 -0.68131952933E+01 -0.37687476263E+02  0.21932233756E+03  0.22264108616E+03  0.00000000000E+00 0. -1.
<mgrwt>
<rscale>  0 0.11770000E+03</rscale>
<asrwt>0</asrwt>
<pdfrwt beam="1">  1        2 0.86137231E-01 0.12718197E+03</pdfrwt>
<pdfrwt beam="2">  1       -2 0.41272583E-02 0.12718197E+03</pdfrwt>
<totfact> 0.13535916E+04</totfact>
</mgrwt>
</event>
<event>
 7    1  0.6387485E-006  0.1720322E+03  0.7546771E-02  0.1185031E+00
         -4   -1    0    0    0  501 -0.00000000000E+00  0.00000000000E+00  0.39570313066E+02  0.39570313066E+02  0.00000000000E+00 0.  1.
          4   -1    0    0  501    0  0.00000000000E+00 -0.00000000000E+00 -0.61793178003E+03  0.61793178003E+03  0.00000000000E+00 0. -1.
         23    2    1    2    0    0 -0.11125581099E+03 -0.39926674082E+02 -0.29204281257E+03  0.33894553090E+03  0.12499229479E+03 0.  0.
          5    1    3    3  502    0 -0.36579716373E+02  0.29883366416E+02 -0.18444600118E+03  0.19045605422E+03  0.47000000000E+01 0. -1.
         -5    1    3    3    0  502 -0.74676094622E+02 -0.69810040498E+02 -0.10759681140E+03  0.14848947668E+03  0.47000000000E+01 0. -1.
        -11    1    1    2    0    0  0.23418909500E+02  0.10757808885E+02 -0.10862855764E+02  0.27967434804E+02  0.00000000000E+00 0.  1.
         11    1    1    2    0    0  0.87836901495E+02  0.29168865197E+02 -0.27545579862E+03  0.29058912739E+03  0.00000000000E+00 0. -1.
<mgrwt>
<rscale>  0 0.16329066E+03</rscale>
<asrwt>0</asrwt>
<pdfrwt beam="2">  1        4 0.95066419E-01 0.17203217E+03</pdfrwt>
<pdfrwt beam="1">  1       -4 0.60877410E-02 0.17203217E+03</pdfrwt>
<totfact> 0.28970233E+02</totfact>
</mgrwt>
</event>
<event>
 7    1  0.6387485E-006  0.1511799E+03  0.7546771E-02  0.1209212E+00
          2   -1    0    0  501    0  0.00000000000E+00  0.00000000000E+00  0.60926917409E+03  0.60926917409E+03  0.00000000000E+00 0. -1.
         -2   -1    0    0    0  501 -0.00000000000E+00 -0.00000000000E+00 -0.35566253918E+02  0.35566253918E+02  0.00000000000E+00 0.  1.
         23    2    1    2    0    0 -0.84885179284E+02  0.49821251529E+01  0.19245281765E+03  0.24473136505E+03  0.12500015515E+03 0.  0.
          5    1    3    3  502    0 -0.98751043484E+02  0.19595014242E+02  0.19897287623E+03  0.22304266105E+03  0.47000000000E+01 0. -1.
         -5    1    3    3    0  502  0.13865864200E+02 -0.14612889089E+02 -0.65200585798E+01  0.21688704005E+02  0.47000000000E+01 0. -1.
        -11    1    1    2    0    0  0.52287918155E+02 -0.43986559831E+02  0.17997663987E+03  0.19251086912E+03  0.00000000000E+00 0.  1.
         11    1    1    2    0    0  0.32597261129E+02  0.39004434679E+02  0.20127346266E+03  0.20759319384E+03  0.00000000000E+00 0. -1.
<mgrwt>
<rscale>  0 0.14310401E+03</rscale>
<asrwt>0</asrwt>
<pdfrwt beam="1">  1        2 0.93733711E-01 0.15117987E+03</pdfrwt>
<pdfrwt beam="2">  1       -2 0.54717318E-02 0.15117987E+03</pdfrwt>
<totfact> 0.81554466E+03</totfact>
</mgrwt>
</event>
<event>
 7    1  0.6387485E-006  0.1292782E+03  0.7546771E-02  0.1242911E+00
         -4   -1    0    0    0  501 -0.00000000000E+00  0.00000000000E+00  0.77668307247E+02  0.77668307247E+02  0.00000000000E+00 0.  1.
          4   -1    0    0  501    0  0.00000000000E+00 -0.00000000000E+00 -0.19949649139E+03  0.19949649139E+03  0.00000000000E+00 0. -1.
         23    2    1    2    0    0  0.25199258678E+02  0.21270483070E+02 -0.10146189026E+02  0.12967576018E+03  0.12500168615E+03 0.  0.
          5    1    3    3  502    0  0.61753975624E+02  0.51959481825E+02 -0.11736427108E+02  0.81689503476E+02  0.47000000000E+01 0. -1.
         -5    1    3    3    0  502 -0.36554716946E+02 -0.30688998755E+02  0.15902380814E+01  0.47986256707E+02  0.47000000000E+01 0. -1.
        -11    1    1    2    0    0  0.12788270297E+02 -0.69688364691E+01  0.11009895321E+02  0.18257117349E+02  0.00000000000E+00 0.  1.
         11    1    1    2    0    0 -0.37987528975E+02 -0.14301646601E+02 -0.12269189044E+03  0.12923192111E+03  0.00000000000E+00 0. -1.
<mgrwt>
<rscale>  0 0.12011255E+03</rscale>
<asrwt>0</asrwt>
<pdfrwt beam="2">  1        4 0.30691768E-01 0.12927822E+03</pdfrwt>
<pdfrwt beam="1">  1       -4 0.11948970E-01 0.12927822E+03</pdfrwt>
<totfact> 0.93170801E+02</totfact>
</mgrwt>
</event>
<event>
 7    1  0.6387485E-006  0.1693943E+03  0.7546771E-02  0.1185425E+00
         -2   -1    0    0    0  501 -0.00000000000E+00  0.00000000000E+00  0.27022115639E+02  0.27022115639E+02  0.00000000000E+00 0.  1.
          2   -1    0    0  501    0  0.00000000000E+00 -0.00000000000E+00 -0.91781949009E+03  0.91781949009E+03  0.00000000000E+00 0. -1.
         23    2    1    2    0    0 -0.11421787263E+03 -0.51877538062E+01 -0.50854293959E+03  0.53601337550E+03  0.12498712772E+03 0.  0.
          5    1    3    3  502    0 -0.12836188535E+03 -0.34852365832E+02 -0.44271423104E+03  0.46228718497E+03  0.47000000000E+01 0. -1.
         -5    1    3    3    0  502  0.14144012721E+02  0.29664612026E+02 -0.65828708541E+02  0.73726190534E+02  0.47000000000E+01 0. -1.
        -11    1    1    2    0    0  0.43848439913E+02 -0.33649975575E+02 -0.89068975215E+02  0.10482503940E+03  0.00000000000E+00 0.  1.
         11    1    1    2    0    0  0.70369432717E+02  0.38837729381E+02 -0.29318545965E+03  0.30400319083E+03  0.00000000000E+00 0. -1.
<mgrwt>
<rscale>  0 0.16293278E+03</rscale>
<asrwt>0</asrwt>
<pdfrwt beam="2">  1        2 0.14120301E+00 0.16939427E+03</pdfrwt>
<pdfrwt beam="1">  1       -2 0.41572483E-02 0.16939427E+03</pdfrwt>
<totfact> 0.75004789E+03</totfact>
</mgrwt>
</event>
<event>
 7    1  0.6387485E-006  0.1489584E+03  0.7546771E-02  0.1211154E+00
          2   -1    0    0  501    0  0.00000000000E+00  0.00000000000E+00  0.50405866690E+03  0.50405866690E+03  0.00000000000E+00 0. -1.
         -2   -1    0    0    0  501 -0.00000000000E+00 -0.00000000000E+00 -0.37744865954E+02  0.37744865954E+02  0.00000000000E+00 0.  1.
         23    2    1    2    0    0 -0.29302812938E+02  0.75506913452E+02  0.20376213819E+03  0.25240368141E+03  0.12501464156E+03 0.  0.
          5    1    3    3  502    0 -0.60116813199E+02 -0.65273870565E+01  0.94058829687E+02  0.11191868232E+03  0.47000000000E+01 0.  1.
         -5    1    3    3    0  502  0.30814000261E+02  0.82034300509E+02  0.10970330850E+03  0.14048499909E+03  0.47000000000E+01 0.  1.
        -11    1    1    2    0    0 -0.20043006924E+02 -0.68725849865E+02  0.16524417847E+03  0.18008498850E+03  0.00000000000E+00 0. -1.
         11    1    1    2    0    0  0.49345819862E+02 -0.67810635870E+01  0.97307484285E+02  0.10931486294E+03  0.00000000000E+00 0.  1.
<mgrwt>
<rscale>  0 0.14162854E+03</rscale>
<asrwt>0</asrwt>
<pdfrwt beam="1">  1        2 0.77547483E-01 0.14895842E+03</pdfrwt>
<pdfrwt beam="2">  1       -2 0.58069028E-02 0.14895842E+03</pdfrwt>
<totfact> 0.92137195E+03</totfact>
</mgrwt>
</event>
<event>
 7    1  0.6387485E-006  0.1342929E+03  0.7546771E-02  0.1233582E+00
         -2   -1    0    0    0  501 -0.00000000000E+00  0.00000000000E+00  0.25821064956E+02  0.25821064956E+02  0.00000000000E+00 0.  1.
          2   -1    0    0  501    0  0.00000000000E+00 -0.00000000000E+00 -0.59936249774E+03  0.59936249774E+03  0.00000000000E+00 0. -1.
         23    2    1    2    0    0  0.11612739753E+02 -0.47706950068E+02 -0.23073897000E+03  0.26697388850E+03  0.12499510412E+03 0.  0.
          5    1    3    3  502    0  0.46888707978E+02 -0.63023302083E+02 -0.83563821883E+02  0.11478453672E+03  0.47000000000E+01 0.  1.
         -5    1    3    3    0  502 -0.35275968225E+02  0.15316352015E+02 -0.14717514812E+03  0.15218935178E+03  0.47000000000E+01 0.  1.
        -11    1    1    2    0    0 -0.11835209670E+02  0.75325573523E+02 -0.24632232049E+03  0.25785402806E+03  0.00000000000E+00 0. -1.
         11    1    1    2    0    0  0.22246991617E+00 -0.27618623455E+02 -0.96480142291E+02  0.10035564613E+03  0.00000000000E+00 0.  1.
<mgrwt>
<rscale>  0 0.12595662E+03</rscale>
<asrwt>0</asrwt>
<pdfrwt beam="2">  1        2 0.92209612E-01 0.13429291E+03</pdfrwt>
<pdfrwt beam="1">  1       -2 0.39724717E-02 0.13429291E+03</pdfrwt>
<totfact> 0.13322595E+04</totfact>
</mgrwt>
</event>
<event>
 6    1  0.6387485E-006  0.3452400E+03  0.7546771E-02  0.1066742E+00
         -2   -1    0    0    0  501 -0.00000000000E+00  0.00000000000E+00  0.33748223601E+03  0.33748223601E+03  0.00000000000E+00 0.  1.
          2   -1    0    0  501    0  0.00000000000E+00 -0.00000000000E+00 -0.75009814221E+03  0.75009814221E+03  0.00000000000E+00 0. -1.
          5    1    1    2  502    0 -0.17982806239E+03  0.16440876022E+03  0.11202610708E+03  0.26821691059E+03  0.47000000000E+01 0. -1.
         -5    1    1    2    0  502 -0.95761356666E+02 -0.18027040026E+02  0.84349812579E+02  0.12896585783E+03  0.47000000000E+01 0.  1.
        -11    1    1    2    0    0  0.15002862207E+03 -0.79630589835E+02 -0.42626291444E+03  0.45885693904E+03  0.00000000000E+00 0. -1.
         11    1    1    2    0    0  0.12556079699E+03 -0.66751130364E+02 -0.18272891142E+03  0.23154067075E+03  0.00000000000E+00 0.  1.
<mgrwt>
<rscale>  0 0.34012624E+03</rscale>
<asrwt>0</asrwt>
<pdfrwt beam="2">  1        2 0.11539971E+00 0.34523999E+03</pdfrwt>
<pdfrwt beam="1">  1       -2 0.51920344E-01 0.34523999E+03</pdfrwt>
<totfact> 0.13726158E+02</totfact>
</mgrwt>
</event>
<event>
 7    1  0.6387485E-006  0.1596821E+03  0.7546771E-02  0.1196747E+00
          2   -1    0    0  501    0  0.00000000000E+00  0.00000000000E+00  0.62417614732E+03  0.62417614732E+03  0.00000000000E+00 0. -1.
         -2   -1    0    0    0  501 -0.00000000000E+00 -0.00000000000E+00 -0.40673793800E+02  0.40673793800E+02  0.00000000000E+00 0.  1.
         23    2    1    2    0    0 -0.42357087209E+02 -0.89881793616E+02  0.18622560104E+03  0.24531274207E+03  0.12500202911E+03 0.  0.
          5    1    3    3  502    0 -0.64792637912E+02 -0.26518481890E+01  0.50375162539E+02  0.82248800765E+02  0.47000000000E+01 0.  1.
         -5    1    3    3    0  502  0.22435550703E+02 -0.87229945427E+02  0.13585043850E+03  0.16306394131E+03  0.47000000000E+01 0.  1.
        -11    1    1    2    0    0 -0.71078976023E+01  0.82246640742E+02  0.28266872769E+03  0.29447689508E+03  0.00000000000E+00 0. -1.
         11    1    1    2    0    0  0.49464984811E+02  0.76351528744E+01  0.11460802479E+03  0.12506030396E+03  0.00000000000E+00 0.  1.
<mgrwt>
<rscale>  0 0.15307324E+03</rscale>
<asrwt>0</asrwt>
<pdfrwt beam="1">  1        2 0.96027093E-01 0.15968208E+03</pdfrwt>
<pdfrwt beam="2">  1       -2 0.62575072E-02 0.15968208E+03</pdfrwt>
<totfact> 0.64884593E+03</totfact>
</mgrwt>
</event>
<event>
 7    1  0.6387485E-006  0.2152839E+03  0.7546771E-02  0.1141072E+00
         -1   -1    0    0    0  501 -0.00000000000E+00  0.00000000000E+00  0.64541516052E+03  0.64541516052E+03  0.00000000000E+00 0.  1.
          1   -1    0    0  501    0  0.00000000000E+00 -0.00000000000E+00 -0.65958506937E+02  0.65958506937E+02  0.00000000000E+00 0. -1.
         23    2    1    2    0    0 -0.13880435872E+03 -0.10702328135E+03  0.29372760380E+03  0.36417449563E+03  0.12500610098E+03 0.  0.
          5    1    3    3  502    0 -0.10731005520E+03 -0.13406400716E+03  0.21652792752E+03  0.27639652559E+03  0.47000000000E+01 0. -1.
         -5    1    3    3    0  502 -0.31494303519E+02  0.27040725810E+02  0.77199676285E+02  0.87777970044E+02  0.47000000000E+01 0. -1.
        -11    1    1    2    0    0 -0.75001032459E+01  0.24887141101E+02  0.64510239821E+02  0.69549927266E+02  0.00000000000E+00 0.  1.
         11    1    1    2    0    0  0.14630446196E+03  0.82136140246E+02  0.22121880996E+03  0.27764924456E+03  0.00000000000E+00 0. -1.
<mgrwt>
<rscale>  0 0.21062552E+03</rscale>
<asrwt>0</asrwt>
<pdfrwt beam="2">  1        1 0.10147463E-01 0.21528390E+03</pdfrwt>
<pdfrwt beam="1">  1       -1 0.99294636E-01 0.21528390E+03</pdfrwt>
<totfact> 0.64331890E+02</totfact>
</mgrwt>
</event>
<event>
 6    1  0.6387485E-006  0.1527862E+03  0.7546771E-02  0.1217738E+00
          4   -1    0    0  501    0  0.00000000000E+00  0.00000000000E+00  0.48586945293E+03  0.48586945293E+03  0.00000000000E+00 0. -1.
         -4   -1    0    0    0  501 -0.00000000000E+00 -0.00000000000E+00 -0.32399691576E+02  0.32399691576E+02  0.00000000000E+00 0.  1.
          5    1    1    2  502    0 -0.47475273442E+02  0.14647151440E+02  0.25703935142E+03  0.26183918502E+03  0.47000000000E+01 0. -1.
         -5    1    1    2    0  502  0.47758586496E+02  0.20792131005E+02  0.22928090987E+02  0.57105014247E+02  0.47000000000E+01 0.  1.
        -11    1    1    2    0    0  0.44960252153E+02 -0.21134094809E+02  0.10280745142E+03  0.11418163733E+03  0.00000000000E+00 0. -1.
         11    1    1    2    0    0 -0.45243565206E+02 -0.14305187636E+02  0.70694867524E+02  0.85143307900E+02  0.00000000000E+00 0.  1.
<mgrwt>
<rscale>  0 0.13677341E+03</rscale>
<asrwt>0</asrwt>
<pdfrwt beam="1">  1        4 0.74749142E-01 0.15278623E+03</pdfrwt>
<pdfrwt beam="2">  1       -4 0.49845683E-02 0.15278623E+03</pdfrwt>
<totfact> 0.67265021E+02</totfact>
</mgrwt>
</event>
<event>
 7    1  0.6387485E-006  0.2985123E+03  0.7546771E-02  0.1087669E+00
          1   -1    0    0  501    0  0.00000000000E+00  0.00000000000E+00  0.73477237071E+03  0.73477237071E+03  0.00000000000E+00 0. -1.
         -1   -1    0    0    0  501 -0.00000000000E+00 -0.00000000000E+00 -0.11630864240E+03  0.11630864240E+03  0.00000000000E+00 0.  1.
         23    2    1    2    0    0  0.94802884559E+02 -0.25396953351E+03  0.33701574861E+03  0.45021019081E+03  0.12498596011E+03 0.  0.
          5    1    3    3  502    0  0.96034692014E+01 -0.21982553020E+01  0.78992740113E+02  0.79743350429E+02  0.47000000000E+01 0. -1.
         -5    1    3    3    0  502  0.85199415358E+02 -0.25177127821E+03  0.25802300849E+03  0.37046684038E+03  0.47000000000E+01 0. -1.
        -11    1    1    2    0    0 -0.29753589855E+02  0.36094373570E+02  0.98454379439E+02  0.10900158138E+03  0.00000000000E+00 0. -1.
         11    1    1    2    0    0 -0.65049294705E+02  0.21787515994E+03  0.18299360027E+03  0.29186924093E+03  0.00000000000E+00 0.  1.
<mgrwt>
<rscale>  0 0.29519298E+03</rscale>
<asrwt>0</asrwt>
<pdfrwt beam="1">  1        1 0.11304190E+00 0.29851231E+03</pdfrwt>
<pdfrwt beam="2">  1       -1 0.17893638E-01 0.29851231E+03</pdfrwt>
<totfact> 0.63607022E+02</totfact>
</mgrwt>
</event>
<event>
 7    1  0.6387485E-006  0.1325903E+03  0.7546771E-02  0.1237119E+00
         -1   -1    0    0    0  501 -0.00000000000E+00  0.00000000000E+00  0.37100317462E+02  0.37100317462E+02  0.00000000000E+00 0.  1.
          1   -1    0    0  501    0  0.00000000000E+00 -0.00000000000E+00 -0.41704380449E+03  0.41704380449E+03  0.00000000000E+00 0. -1.
         23    2    1    2    0    0  0.44038011854E+02  0.39711711119E+01 -0.13413247605E+03  0.18860464113E+03  0.12500029135E+03 0.  0.
          5    1    3    3  502    0  0.15518152927E+02 -0.13629179312E+02  0.20998068096E+02  0.29825768435E+02  0.47000000000E+01 0.  1.
         -5    1    3    3    0  502  0.28519858927E+02  0.17600350424E+02 -0.15513054414E+03  0.15877887270E+03  0.47000000000E+01 0.  1.
        -11    1    1    2    0    0 -0.69782951371E+02  0.31112620495E+01 -0.14063764714E+03  0.15702957698E+03  0.00000000000E+00 0.  1.
         11    1    1    2    0    0  0.25744939517E+02 -0.70824331614E+01 -0.10517336384E+03  0.10850990384E+03  0.00000000000E+00 0. -1.
<mgrwt>
<rscale>  0 0.12369733E+03</rscale>
<asrwt>0</asrwt>
<pdfrwt beam="2">  1        1 0.64160582E-01 0.13259031E+03</pdfrwt>
<pdfrwt beam="1">  1       -1 0.57077414E-02 0.13259031E+03</pdfrwt>
<totfact> 0.78765147E+03</totfact>
</mgrwt>
</event>
<event>
 7    1  0.6387485E-006  0.1450480E+03  0.7546771E-02  0.1216671E+00
          2   -1    0    0  501    0  0.00000000000E+00  0.00000000000E+00  0.36239289016E+03  0.36239289016E+03  0.00000000000E+00 0. -1.
         -2   -1    0    0    0  501 -0.00000000000E+00 -0.00000000000E+00 -0.49565081642E+02  0.49565081642E+02  0.00000000000E+00 0.  1.
         23    2    1    2    0    0 -0.72176044430E+02 -0.14291689498E+02  0.13019954534E+03  0.19491241266E+03  0.12500117288E+03 0.  0.
          5    1    3    3  502    0 -0.40106363941E+02 -0.15053070257E+02 -0.15386761369E+02  0.45759783414E+02  0.47000000000E+01 0.  1.
         -5    1    3    3    0  502 -0.32069680489E+02  0.76138075865E+00  0.14558630671E+03  0.14915262924E+03  0.47000000000E+01 0.  1.
        -11    1    1    2    0    0  0.27504094950E+02 -0.41489368866E+01  0.16221552432E+03  0.16458300413E+03  0.00000000000E+00 0. -1.
         11    1    1    2    0    0  0.44671949480E+02  0.18440626385E+02  0.20412738852E+02  0.52462555020E+02  0.00000000000E+00 0.  1.
<mgrwt>
<rscale>  0 0.13754479E+03</rscale>
<asrwt>0</asrwt>
<pdfrwt beam="1">  1        2 0.55752751E-01 0.14504802E+03</pdfrwt>
<pdfrwt beam="2">  1       -2 0.76253974E-02 0.14504802E+03</pdfrwt>
<totfact> 0.86617280E+03</totfact>
</mgrwt>
</event>
<event>
 7    1  0.6387485E-006  0.1319404E+03  0.7546771E-02  0.1235257E+00
          1   -1    0    0  501    0  0.00000000000E+00  0.00000000000E+00  0.42755562201E+03  0.42755562201E+03  0.00000000000E+00 0. -1.
         -1   -1    0    0    0  501 -0.00000000000E+00 -0.00000000000E+00 -0.33248946660E+02  0.33248946660E+02  0.00000000000E+00 0.  1.
         23    2    1    2    0    0  0.37717003625E+02 -0.19066381201E+02  0.20194792201E+03  0.24122858011E+03  0.12498866110E+03 0.  0.
          5    1    3    3  502    0  0.59105084298E+02  0.26164504748E+02  0.16935415158E+03  0.18133094318E+03  0.47000000000E+01 0.  1.
         -5    1    3    3    0  502 -0.21388080673E+02 -0.45230885949E+02  0.32593770430E+02  0.59897636927E+02  0.47000000000E+01 0.  1.
        -11    1    1    2    0    0 -0.35407306599E+02  0.43188075082E+02  0.49345265158E+02  0.74524106056E+02  0.00000000000E+00 0.  1.
         11    1    1    2    0    0 -0.23096970259E+01 -0.24121693880E+02  0.14301348819E+03  0.14505188251E+03  0.00000000000E+00 0. -1.
<mgrwt>
<rscale>  0 0.12487985E+03</rscale>
<asrwt>0</asrwt>
<pdfrwt beam="1">  1        1 0.65777784E-01 0.13194038E+03</pdfrwt>
<pdfrwt beam="2">  1       -1 0.51152229E-02 0.13194038E+03</pdfrwt>
<totfact> 0.89752432E+03</totfact>
</mgrwt>
</event>
<event>
 7    1  0.6387485E-006  0.1799899E+03  0.7546771E-02  0.1173355E+00
          1   -1    0    0  501    0  0.00000000000E+00  0.00000000000E+00  0.49774091225E+03  0.49774091225E+03  0.00000000000E+00 0. -1.
         -1   -1    0    0    0  501 -0.00000000000E+00 -0.00000000000E+00 -0.10014648350E+03  0.10014648350E+03  0.00000000000E+00 0.  1.
         23    2    1    2    0    0 -0.10677235830E+03 -0.73280830855E+02  0.11340390661E+02  0.18034675576E+03  0.12500372468E+03 0.  0.
          5    1    3    3  502    0  0.12051589201E+02 -0.48646197238E+01 -0.33315902896E+02  0.36068611189E+02  0.47000000000E+01 0.  1.
         -5    1    3    3    0  502 -0.11882394750E+03 -0.68416211131E+02  0.44656293557E+02  0.14427814457E+03  0.47000000000E+01 0.  1.
        -11    1    1    2    0    0  0.53357440020E+02  0.31004782448E+02  0.30651605131E+03  0.31266659983E+03  0.00000000000E+00 0.  1.
         11    1    1    2    0    0  0.53414918283E+02  0.42276048407E+02  0.79737986785E+02  0.10487404017E+03  0.00000000000E+00 0. -1.
<mgrwt>
<rscale>  0 0.17438092E+03</rscale>
<asrwt>0</asrwt>
<pdfrwt beam="1">  1        1 0.76575524E-01 0.17998985E+03</pdfrwt>
<pdfrwt beam="2">  1       -1 0.15407152E-01 0.17998985E+03</pdfrwt>
<totfact> 0.13916313E+03</totfact>
</mgrwt>
</event>
<event>
 7    1  0.6387485E-006  0.1410297E+03  0.7546771E-02  0.1222642E+00
          2   -1    0    0  501    0  0.00000000000E+00  0.00000000000E+00  0.10509880779E+03  0.10509880779E+03  0.00000000000E+00 0. -1.
         -2   -1    0    0    0  501 -0.00000000000E+00 -0.00000000000E+00 -0.16624528282E+03  0.16624528282E+03  0.00000000000E+00 0.  1.
         23    2    1    2    0    0 -0.57717975042E+02  0.30550611616E+02 -0.71854092224E+02  0.15827943200E+03  0.12499865404E+03 0.  0.
          5    1    3    3  502    0  0.17893145755E+02  0.31906936621E+02  0.17752576500E+02  0.40932398439E+02  0.47000000000E+01 0. -1.
         -5    1    3    3    0  502 -0.75611120797E+02 -0.13563250054E+01 -0.89606668724E+02  0.11734703356E+03  0.47000000000E+01 0. -1.
        -11    1    1    2    0    0  0.10972255371E+01  0.29786484252E+02  0.23047689673E+01  0.29895660354E+02  0.00000000000E+00 0.  1.
         11    1    1    2    0    0  0.56620749504E+02 -0.60337095868E+02  0.84028482316E+01  0.83168998254E+02  0.00000000000E+00 0. -1.
<mgrwt>
<rscale>  0 0.13329857E+03</rscale>
<asrwt>0</asrwt>
<pdfrwt beam="1">  1        2 0.16169047E-01 0.14102967E+03</pdfrwt>
<pdfrwt beam="2">  1       -2 0.25576197E-01 0.14102967E+03</pdfrwt>
<totfact> 0.46528990E+03</totfact>
</mgrwt>
</event>
<event>
 7    1  0.6387485E-006  0.1295807E+03  0.7546771E-02  0.1241354E+00
         -2   -1    0    0    0  501 -0.00000000000E+00  0.00000000000E+00  0.21988641382E+02  0.21988641382E+02  0.00000000000E+00 0. -1.
          2   -1    0    0  501    0  0.00000000000E+00 -0.00000000000E+00 -0.66818568531E+03  0.66818568531E+03  0.00000000000E+00 0.  1.
         23    2    1    2    0    0  0.25777165457E+02 -0.22470376013E+02 -0.24671952601E+03  0.27867847760E+03  0.12498715656E+03 0.  0.
          5    1    3    3  502    0  0.28549990897E+02 -0.46304438865E+02 -0.24824627662E+03  0.25418006785E+03  0.47000000000E+01 0. -1.
         -5    1    3    3    0  502 -0.27728254402E+01  0.23834062852E+02  0.15267506038E+01  0.24498409752E+02  0.47000000000E+01 0. -1.
        -11    1    1    2    0    0  0.44528810502E+01 -0.33486312386E+02 -0.17247314372E+03  0.17575023918E+03  0.00000000000E+00 0.  1.
         11    1    1    2    0    0 -0.30230046507E+02  0.55956688399E+02 -0.22700437420E+03  0.23574560991E+03  0.00000000000E+00 0. -1.
<mgrwt>
<rscale>  0 0.12106307E+03</rscale>
<asrwt>0</asrwt>
<pdfrwt beam="2">  1        2 0.10279778E+00 0.12958074E+03</pdfrwt>
<pdfrwt beam="1">  1       -2 0.33828685E-02 0.12958074E+03</pdfrwt>
<totfact> 0.14868798E+04</totfact>
</mgrwt>
</event>
<event>
 7    1  0.6387485E-006  0.1611535E+03  0.7546771E-02  0.1194696E+00
          2   -1    0    0  501    0  0.00000000000E+00  0.00000000000E+00  0.24065270289E+03  0.24065270289E+03  0.00000000000E+00 0. -1.
         -2   -1    0    0    0  501 -0.00000000000E+00 -0.00000000000E+00 -0.10503902300E+03  0.10503902300E+03  0.00000000000E+00 0.  1.
         23    2    1    2    0    0  0.81359574442E+02 -0.61042410777E+02  0.12986655384E+02  0.16167595095E+03  0.12499961453E+03 0.  0.
          5    1    3    3  502    0  0.14500977669E+01 -0.15704936785E+02 -0.48372555642E+02  0.51095420170E+02  0.47000000000E+01 0.  1.
         -5    1    3    3    0  502  0.79909476675E+02 -0.45337473993E+02  0.61359211026E+02  0.11058053078E+03  0.47000000000E+01 0.  1.
        -11    1    1    2    0    0 -0.62346931142E+02  0.72010195754E+02  0.48856944291E+02  0.10704956385E+03  0.00000000000E+00 0.  1.
         11    1    1    2    0    0 -0.19012643300E+02 -0.10967784976E+02  0.73770080219E+02  0.76966211080E+02  0.00000000000E+00 0. -1.
<mgrwt>
<rscale>  0 0.15479968E+03</rscale>
<asrwt>0</asrwt>
<pdfrwt beam="1">  1        2 0.37023493E-01 0.16115353E+03</pdfrwt>
<pdfrwt beam="2">  1       -2 0.16159850E-01 0.16115353E+03</pdfrwt>
<totfact> 0.40770123E+03</totfact>
</mgrwt>
</event>
<event>
 7    1  0.6387485E-006  0.1264966E+03  0.7546771E-02  0.1247238E+00
         -2   -1    0    0    0  501 -0.00000000000E+00  0.00000000000E+00  0.15237829980E+04  0.15237829980E+04  0.00000000000E+00 0.  1.
          2   -1    0    0  501    0  0.00000000000E+00 -0.00000000000E+00 -0.88915950179E+01  0.88915950179E+01  0.00000000000E+00 0. -1.
         23    2    1    2    0    0 -0.19052579797E+02 -0.35771716619E+01  0.10979898659E+04  0.11052525240E+04  0.12500239709E+03 0.  0.
          5    1    3    3  502    0 -0.29898658659E+02 -0.48889524208E+02  0.89858311430E+03  0.90042091194E+03  0.47000000000E+01 0.  1.
         -5    1    3    3    0  502  0.10846078863E+02  0.45312352546E+02  0.19940675155E+03  0.20483161203E+03  0.47000000000E+01 0.  1.
        -11    1    1    2    0    0 -0.89466202482E+01  0.42174836987E+02  0.14147665339E+03  0.14789997411E+03  0.00000000000E+00 0. -1.
         11    1    1    2    0    0  0.27999200045E+02 -0.38597665326E+02  0.27542488376E+03  0.27952209495E+03  0.00000000000E+00 0.  1.
<mgrwt>
<rscale>  0 0.11752426E+03</rscale>
<asrwt>0</asrwt>
<pdfrwt beam="2">  1        2 0.13679389E-02 0.12649663E+03</pdfrwt>
<pdfrwt beam="1">  1       -2 0.23442795E+00 0.12649663E+03</pdfrwt>
<totfact> 0.79953079E+02</totfact>
</mgrwt>
</event>
<event>
 7    1  0.6387485E-006  0.1422549E+03  0.7546771E-02  0.1220564E+00
         -1   -1    0    0    0  501 -0.00000000000E+00  0.00000000000E+00  0.23516169925E+03  0.23516169925E+03  0.00000000000E+00 0.  1.
          1   -1    0    0  501    0  0.00000000000E+00 -0.00000000000E+00 -0.70483842146E+02  0.70483842146E+02  0.00000000000E+00 0. -1.
         23    2    1    2    0    0  0.17915255566E+02 -0.65510099533E+02  0.10224711325E+03  0.17518827217E+03  0.12499571599E+03 0.  0.
          5    1    3    3  502    0 -0.84950311698E+01 -0.11509545210E+02 -0.27927005730E+02  0.31727635188E+02  0.47000000000E+01 0.  1.
         -5    1    3    3    0  502  0.26410286736E+02 -0.54000554323E+02  0.13017411898E+03  0.14346063698E+03  0.47000000000E+01 0.  1.
        -11    1    1    2    0    0 -0.46617388999E+02  0.66747870605E+02  0.29113275965E+02  0.86464108304E+02  0.00000000000E+00 0. -1.
         11    1    1    2    0    0  0.28702133433E+02 -0.12377710721E+01  0.33317467891E+02  0.43993160917E+02  0.00000000000E+00 0.  1.
<mgrwt>
<rscale>  0 0.13475608E+03</rscale>
<asrwt>0</asrwt>
<pdfrwt beam="2">  1        1 0.10843668E-01 0.14225491E+03</pdfrwt>
<pdfrwt beam="1">  1       -1 0.36178723E-01 0.14225491E+03</pdfrwt>
<totfact> 0.40768547E+03</totfact>
</mgrwt>
</event>
<event>
 7    1  0.6387485E-006  0.1180442E+03  0.7546771E-02  0.1258373E+00
          4   -1    0    0  501    0  0.00000000000E+00  0.00000000000E+00  0.38022856741E+03  0.38022856741E+03  0.00000000000E+00 0. -1.
         -4   -1    0    0    0  501 -0.00000000000E+00 -0.00000000000E+00 -0.31500160851E+02  0.31500160851E+02  0.00000000000E+00 0.  1.
         23    2    1    2    0    0 -0.10760105459E+01  0.16874529530E+02  0.13920473554E+03  0.18251683857E+03  0.11682692505E+03 0.  0.
          5    1    3    3  502    0 -0.47121501868E+02 -0.12640080754E+02  0.10980044578E+03  0.12024323463E+03  0.47000000000E+01 0. -1.
         -5    1    3    3    0  502  0.46045491322E+02  0.29514610283E+02  0.29404289760E+02  0.62273603939E+02  0.47000000000E+01 0.  1.
        -11    1    1    2    0    0 -0.37522642651E+02 -0.14673742404E+02  0.16678010808E+03  0.17157759725E+03  0.00000000000E+00 0. -1.
         11    1    1    2    0    0  0.38598653197E+02 -0.22007871257E+01  0.42743562936E+02  0.57634292440E+02  0.00000000000E+00 0.  1.
<mgrwt>
<rscale>  0 0.11119486E+03</rscale>
<asrwt>0</asrwt>
<pdfrwt beam="1">  1        4 0.58496699E-01 0.11804422E+03</pdfrwt>
<pdfrwt beam="2">  1       -4 0.48461789E-02 0.11804422E+03</pdfrwt>
<totfact> 0.11260830E+03</totfact>
</mgrwt>
</event>
<event>
 7    1  0.6387485E-006  0.1473963E+03  0.7546771E-02  0.1213746E+00
         -4   -1    0    0    0  501 -0.00000000000E+00  0.00000000000E+00  0.30537168510E+03  0.30537168510E+03  0.00000000000E+00 0. -1.
          4   -1    0    0  501    0  0.00000000000E+00 -0.00000000000E+00 -0.63004242943E+02  0.63004242943E+02  0.00000000000E+00 0.  1.
         23    2    1    2    0    0 -0.34073383944E+02 -0.70284714004E+02  0.18446147466E+03  0.23611796648E+03  0.12499888777E+03 0.  0.
          5    1    3    3  502    0  0.34382785317E+02 -0.69370876569E+02  0.11282598012E+03  0.13691707794E+03  0.47000000000E+01 0. -1.
         -5    1    3    3    0  502 -0.68456169260E+02 -0.91383743571E+00  0.71635494541E+02  0.99200888539E+02  0.47000000000E+01 0. -1.
        -11    1    1    2    0    0  0.64205512456E+02  0.39151844019E+02  0.41778406911E+02  0.86027030658E+02  0.00000000000E+00 0.  1.
         11    1    1    2    0    0 -0.30132128513E+02  0.31132869985E+02  0.16127560591E+02  0.46230930910E+02  0.00000000000E+00 0. -1.
<mgrwt>
<rscale>  0 0.13969069E+03</rscale>
<asrwt>0</asrwt>
<pdfrwt beam="2">  1        4 0.96929607E-02 0.14739626E+03</pdfrwt>
<pdfrwt beam="1">  1       -4 0.46980258E-01 0.14739626E+03</pdfrwt>
<totfact> 0.59350708E+02</totfact>
</mgrwt>
</event>
<event>
 7    1  0.6387485E-006  0.1983949E+03  0.7546771E-02  0.1155394E+00
          2   -1    0    0  501    0  0.00000000000E+00  0.00000000000E+00  0.10023373845E+04  0.10023373845E+04  0.00000000000E+00 0. -1.
         -2   -1    0    0    0  501 -0.00000000000E+00 -0.00000000000E+00 -0.42503039401E+02  0.42503039401E+02  0.00000000000E+00 0.  1.
         23    2    1    2    0    0 -0.89907880212E+02  0.12511340960E+03  0.28962701305E+03  0.35106174672E+03  0.12499500447E+03 0.  0.
          5    1    3    3  502    0  0.29737470850E+02  0.22234017935E+02  0.33702469521E+02  0.50364820837E+02  0.47000000000E+01 0. -1.
         -5    1    3    3    0  502 -0.11964535106E+03  0.10287939166E+03  0.25592454353E+03  0.30069692589E+03  0.47000000000E+01 0. -1.
        -11    1    1    2    0    0  0.32007409780E+02 -0.22159407468E+02  0.55294546019E+02  0.67623963501E+02  0.00000000000E+00 0.  1.
         11    1    1    2    0    0  0.57900470432E+02 -0.10295400213E+03  0.61491278606E+03  0.62615471370E+03  0.00000000000E+00 0. -1.
<mgrwt>
<rscale>  0 0.19344040E+03</rscale>
<asrwt>0</asrwt>
<pdfrwt beam="1">  1        2 0.15420573E+00 0.19839492E+03</pdfrwt>
<pdfrwt beam="2">  1       -2 0.65389299E-02 0.19839492E+03</pdfrwt>
<totfact> 0.33643092E+03</totfact>
</mgrwt>
</event>
<event>
 7    1  0.6387485E-006  0.1270402E+03  0.7546771E-02  0.1247139E+00
          1   -1    0    0  501    0  0.00000000000E+00  0.00000000000E+00  0.29455253419E+02  0.29455253419E+02  0.00000000000E+00 0. -1.
         -1   -1    0    0    0  501 -0.00000000000E+00 -0.00000000000E+00 -0.41812404155E+03  0.41812404155E+03  0.00000000000E+00 0.  1.
         23    2    1    2    0    0 -0.10514329677E+02  0.20055434952E+02 -0.25091739619E+03  0.28124498317E+03  0.12500571685E+03 0.  0.
          5    1    3    3  502    0 -0.50304030087E+02 -0.72949919443E+01 -0.40088252235E+02  0.64906627687E+02  0.47000000000E+01 0. -1.
         -5    1    3    3    0  502  0.39789700410E+02  0.27350426897E+02 -0.21082914396E+03  0.21633835548E+03  0.47000000000E+01 0. -1.
        -11    1    1    2    0    0 -0.30103115760E+01  0.35407965373E+02 -0.43854634019E+02  0.56444795266E+02  0.00000000000E+00 0.  1.
         11    1    1    2    0    0  0.13524641253E+02 -0.55463400326E+02 -0.93896757922E+02  0.10988951654E+03  0.00000000000E+00 0. -1.
<mgrwt>
<rscale>  0 0.11758274E+03</rscale>
<asrwt>0</asrwt>
<pdfrwt beam="1">  1        1 0.45315779E-02 0.12704015E+03</pdfrwt>
<pdfrwt beam="2">  1       -1 0.64326770E-01 0.12704015E+03</pdfrwt>
<totfact> 0.46086155E+03</totfact>
</mgrwt>
</event>
<event>
 7    1  0.6387485E-006  0.1951331E+03  0.7546771E-02  0.1158269E+00
          1   -1    0    0  501    0  0.00000000000E+00  0.00000000000E+00  0.83607512055E+03  0.83607512055E+03  0.00000000000E+00 0. -1.
         -1   -1    0    0    0  501 -0.00000000000E+00 -0.00000000000E+00 -0.41698610237E+02  0.41698610237E+02  0.00000000000E+00 0.  1.
         23    2    1    2    0    0  0.14925763835E+03 -0.13155141875E+02  0.37066772453E+03  0.41889319333E+03  0.12500418013E+03 0.  0.
          5    1    3    3  502    0  0.16796090546E+03 -0.14194586500E+02  0.28563904275E+03  0.33169881639E+03  0.47000000000E+01 0. -1.
         -5    1    3    3    0  502 -0.18703267114E+02  0.10394446247E+01  0.85028681776E+02  0.87194376943E+02  0.47000000000E+01 0. -1.
        -11    1    1    2    0    0 -0.55518451365E+02 -0.32838394748E+02  0.22937674363E+03  0.23827368535E+03  0.00000000000E+00 0. -1.
         11    1    1    2    0    0 -0.93739186984E+02  0.45993536623E+02  0.19433204216E+03  0.22060685211E+03  0.00000000000E+00 0.  1.
<mgrwt>
<rscale>  0 0.19021395E+03</rscale>
<asrwt>0</asrwt>
<pdfrwt beam="1">  1        1 0.12862693E+00 0.19513315E+03</pdfrwt>
<pdfrwt beam="2">  1       -1 0.64151714E-02 0.19513315E+03</pdfrwt>
<totfact> 0.25764473E+03</totfact>
</mgrwt>
</event>
<event>
 7    1  0.6387485E-006  0.1319492E+03  0.7546771E-02  0.1235920E+00
          4   -1    0    0  501    0  0.00000000000E+00  0.00000000000E+00  0.30823015525E+03  0.30823015525E+03  0.00000000000E+00 0. -1.
         -4   -1    0    0    0  501 -0.00000000000E+00 -0.00000000000E+00 -0.54077054484E+02  0.54077054484E+02  0.00000000000E+00 0.  1.
         23    2    1    2    0    0 -0.33780741266E+02 -0.25373514772E+02  0.66999138715E+02  0.14798467731E+03  0.12500250556E+03 0.  0.
          5    1    3    3  502    0  0.45480317216E+02 -0.25761180203E+02  0.28986195778E+02  0.59953208465E+02  0.47000000000E+01 0.  1.
         -5    1    3    3    0  502 -0.79261058482E+02  0.38766543147E+00  0.38012942937E+02  0.88031468844E+02  0.47000000000E+01 0.  1.
        -11    1    1    2    0    0  0.18306357268E+02 -0.35896586572E+02  0.59174981133E+02  0.71591661777E+02  0.00000000000E+00 0.  1.
         11    1    1    2    0    0  0.15474383998E+02  0.61270101344E+02  0.12797898092E+03  0.14273087065E+03  0.00000000000E+00 0. -1.
<mgrwt>
<rscale>  0 0.12445743E+03</rscale>
<asrwt>0</asrwt>
<pdfrwt beam="1">  1        4 0.47420023E-01 0.13194916E+03</pdfrwt>
<pdfrwt beam="2">  1       -4 0.83195470E-02 0.13194916E+03</pdfrwt>
<totfact> 0.73576629E+02</totfact>
</mgrwt>
</event>
<event>
 7    1  0.6387485E-006  0.2159316E+03  0.7546771E-02  0.1140463E+00
          1   -1    0    0  501    0  0.00000000000E+00  0.00000000000E+00  0.11866990053E+04  0.11866990053E+04  0.00000000000E+00 0. -1.
         -1   -1    0    0    0  501 -0.00000000000E+00 -0.00000000000E+00 -0.37029858762E+02  0.37029858762E+02  0.00000000000E+00 0.  1.
         23    2    1    2    0    0 -0.75288817453E+02 -0.15916252448E+03  0.69238434650E+03  0.72527412717E+03  0.12500144410E+03 0.  0.
          5    1    3    3  502    0 -0.34558501955E+02 -0.14986528822E+03  0.37840689424E+03  0.40849450704E+03  0.47000000000E+01 0.  1.
         -5    1    3    3    0  502 -0.40730315498E+02 -0.92972362650E+01  0.31397745226E+03  0.31677962013E+03  0.47000000000E+01 0.  1.
        -11    1    1    2    0    0  0.94396021986E+02  0.14778667630E+03  0.41835487867E+03  0.45362133456E+03  0.00000000000E+00 0.  1.
         11    1    1    2    0    0 -0.19107204533E+02  0.11375848180E+02  0.38929921326E+02  0.44833402295E+02  0.00000000000E+00 0. -1.
<mgrwt>
<rscale>  0 0.21139864E+03</rscale>
<asrwt>0</asrwt>
<pdfrwt beam="1">  1        1 0.18256905E+00 0.21593165E+03</pdfrwt>
<pdfrwt beam="2">  1       -1 0.56969023E-02 0.21593165E+03</pdfrwt>
<totfact> 0.16909081E+03</totfact>
</mgrwt>
</event>
<event>
 7    1  0.6387485E-006  0.1351341E+03  0.7546771E-02  0.1232580E+00
          1   -1    0    0  501    0  0.00000000000E+00  0.00000000000E+00  0.16693870037E+03  0.16693870037E+03  0.00000000000E+00 0. -1.
         -1   -1    0    0    0  501 -0.00000000000E+00 -0.00000000000E+00 -0.93242667675E+02  0.93242667675E+02  0.00000000000E+00 0.  1.
         23    2    1    2    0    0 -0.44065986801E+02  0.26326457076E+02  0.45823098459E+01  0.13521180010E+03  0.12500535903E+03 0.  0.
          5    1    3    3  502    0 -0.60425792320E+02  0.17971326802E+01  0.51530706741E+02  0.79573926639E+02  0.47000000000E+01 0.  1.
         -5    1    3    3    0  502  0.16359805520E+02  0.24529324396E+02 -0.46948396896E+02  0.55637873459E+02  0.47000000000E+01 0.  1.
        -11    1    1    2    0    0  0.15176041518E+02 -0.29497750356E+02 -0.14682150283E+02  0.36276646057E+02  0.00000000000E+00 0.  1.
         11    1    1    2    0    0  0.28889945283E+02  0.31712932802E+01  0.83795873130E+02  0.88692921888E+02  0.00000000000E+00 0. -1.
<mgrwt>
<rscale>  0 0.12660647E+03</rscale>
<asrwt>0</asrwt>
<pdfrwt beam="1">  1        1 0.25682877E-01 0.13513413E+03</pdfrwt>
<pdfrwt beam="2">  1       -1 0.14345026E-01 0.13513413E+03</pdfrwt>
<totfact> 0.60687542E+03</totfact>
</mgrwt>
</event>
<event>
 7    1  0.6387485E-006  0.2165995E+03  0.7546771E-02  0.1140147E+00
         -1   -1    0    0    0  501 -0.00000000000E+00  0.00000000000E+00  0.39852210742E+02  0.39852210742E+02  0.00000000000E+00 0.  1.
          1   -1    0    0  501    0  0.00000000000E+00 -0.00000000000E+00 -0.12042879698E+04  0.12042879698E+04  0.00000000000E+00 0. -1.
         23    2    1    2    0    0 -0.11058610828E+03 -0.13806374917E+03 -0.80642381469E+03  0.83500580602E+03  0.12499776399E+03 0.  0.
          5    1    3    3  502    0 -0.86978045895E+02 -0.70857540120E+02 -0.68507889846E+03  0.69421982007E+03  0.47000000000E+01 0.  1.
         -5    1    3    3    0  502 -0.23608062387E+02 -0.67206209054E+02 -0.12134491623E+03  0.14078598595E+03  0.47000000000E+01 0.  1.
        -11    1    1    2    0    0  0.93162573439E+02  0.10033605414E+03 -0.33438487053E+03  0.36133063874E+03  0.00000000000E+00 0.  1.
         11    1    1    2    0    0  0.17423534843E+02  0.37727695033E+02 -0.23627073876E+02  0.47803735826E+02  0.00000000000E+00 0. -1.
<mgrwt>
<rscale>  0 0.21180160E+03</rscale>
<asrwt>0</asrwt>
<pdfrwt beam="2">  1        1 0.18527510E+00 0.21659946E+03</pdfrwt>
<pdfrwt beam="1">  1       -1 0.61311086E-02 0.21659946E+03</pdfrwt>
<totfact> 0.14717404E+03</totfact>
</mgrwt>
</event>
<event>
 7    1  0.6387485E-006  0.1315460E+03  0.7546771E-02  0.1237770E+00
          2   -1    0    0  501    0  0.00000000000E+00  0.00000000000E+00  0.50311708995E+03  0.50311708995E+03  0.00000000000E+00 0. -1.
         -2   -1    0    0    0  501 -0.00000000000E+00 -0.00000000000E+00 -0.27037807179E+02  0.27037807179E+02  0.00000000000E+00 0.  1.
         23    2    1    2    0    0  0.40319191135E+02  0.74111858809E+01  0.25714863793E+03  0.28884210853E+03  0.12499511518E+03 0.  0.
          5    1    3    3  502    0 -0.29012004454E+00 -0.48927043262E+02  0.49172836289E+02  0.69526955642E+02  0.47000000000E+01 0.  1.
         -5    1    3    3    0  502  0.40609311180E+02  0.56338229143E+02  0.20797580165E+03  0.21931515289E+03  0.47000000000E+01 0.  1.
        -11    1    1    2    0    0 -0.53990451460E+01 -0.44593597436E+02  0.14259517589E+03  0.14950291906E+03  0.00000000000E+00 0.  1.
         11    1    1    2    0    0 -0.34920145990E+02  0.37182411555E+02  0.76335468947E+02  0.91809869537E+02  0.00000000000E+00 0. -1.
<mgrwt>
<rscale>  0 0.12328758E+03</rscale>
<asrwt>0</asrwt>
<pdfrwt beam="1">  1        2 0.77402622E-01 0.13154597E+03</pdfrwt>
<pdfrwt beam="2">  1       -2 0.41596630E-02 0.13154597E+03</pdfrwt>
<totfact> 0.15101574E+04</totfact>
</mgrwt>
</event>
<event>
 7    1  0.6387485E-006  0.1767154E+03  0.7546771E-02  0.1176964E+00
          1   -1    0    0  501    0  0.00000000000E+00  0.00000000000E+00  0.90153765923E+02  0.90153765923E+02  0.00000000000E+00 0. -1.
         -1   -1    0    0    0  501 -0.00000000000E+00 -0.00000000000E+00 -0.30868337664E+03  0.30868337664E+03  0.00000000000E+00 0.  1.
         23    2    1    2    0    0  0.78844037191E+02  0.96879998449E+02 -0.14096265622E+03  0.22605042293E+03  0.12500482775E+03 0.  0.
          5    1    3    3  502    0  0.97882693327E+02  0.10556945920E+03 -0.87720822139E+02  0.16865042249E+03  0.47000000000E+01 0.  1.
         -5    1    3    3    0  502 -0.19038656136E+02 -0.86894607469E+01 -0.53241834078E+02  0.57400000449E+02  0.47000000000E+01 0.  1.
        -11    1    1    2    0    0 -0.67948726213E+02 -0.38592917990E+02 -0.82066391017E+02  0.11331961546E+03  0.00000000000E+00 0.  1.
         11    1    1    2    0    0 -0.10895310977E+02 -0.58287080459E+02  0.44994365136E+01  0.59467104173E+02  0.00000000000E+00 0. -1.
<mgrwt>
<rscale>  0 0.17085035E+03</rscale>
<asrwt>0</asrwt>
<pdfrwt beam="1">  1        1 0.13869810E-01 0.17671537E+03</pdfrwt>
<pdfrwt beam="2">  1       -1 0.47489751E-01 0.17671537E+03</pdfrwt>
<totfact> 0.18397539E+03</totfact>
</mgrwt>
</event>
<event>
 7    1  0.6387485E-006  0.1435473E+03  0.7546771E-02  0.1218753E+00
          1   -1    0    0  501    0  0.00000000000E+00  0.00000000000E+00  0.11234654880E+03  0.11234654880E+03  0.00000000000E+00 0. -1.
         -1   -1    0    0    0  501 -0.00000000000E+00 -0.00000000000E+00 -0.18352489958E+03  0.18352489958E+03  0.00000000000E+00 0.  1.
         23    2    1    2    0    0  0.48013425107E+02 -0.51724916204E+02 -0.10192454241E+03  0.17605239608E+03  0.12500031149E+03 0.  0.
          5    1    3    3  502    0  0.46529940383E+02  0.31893283371E+02 -0.23448805282E+02  0.61271146108E+02  0.47000000000E+01 0.  1.
         -5    1    3    3    0  502  0.14834847239E+01 -0.83618199575E+02 -0.78475737130E+02  0.11478124997E+03  0.47000000000E+01 0.  1.
        -11    1    1    2    0    0  0.23784502978E+02  0.85973144881E+01 -0.93464517225E+01  0.26962428639E+02  0.00000000000E+00 0.  1.
         11    1    1    2    0    0 -0.71797928086E+02  0.43127601716E+02  0.40092643351E+02  0.92856623663E+02  0.00000000000E+00 0. -1.
<mgrwt>
<rscale>  0 0.13604422E+03</rscale>
<asrwt>0</asrwt>
<pdfrwt beam="1">  1        1 0.17284084E-01 0.14354732E+03</pdfrwt>
<pdfrwt beam="2">  1       -1 0.28234600E-01 0.14354732E+03</pdfrwt>
<totfact> 0.33830684E+03</totfact>
</mgrwt>
</event>
<event>
 7    1  0.6387485E-006  0.1385080E+03  0.7546771E-02  0.1227978E+00
          1   -1    0    0  501    0  0.00000000000E+00  0.00000000000E+00  0.38635182325E+02  0.38635182325E+02  0.00000000000E+00 0. -1.
         -1   -1    0    0    0  501 -0.00000000000E+00 -0.00000000000E+00 -0.48301693279E+03  0.48301693279E+03  0.00000000000E+00 0.  1.
         23    2    1    2    0    0 -0.23301429644E+02 -0.54920969560E+02 -0.36058719025E+03  0.38627397647E+03  0.12500077443E+03 0.  0.
          5    1    3    3  502    0  0.47188973763E+02 -0.81874040233E-01 -0.15460219751E+03  0.16171189017E+03  0.47000000000E+01 0. -1.
         -5    1    3    3    0  502 -0.70490403407E+02 -0.54839095520E+02 -0.20598499274E+03  0.22456208630E+03  0.47000000000E+01 0. -1.
        -11    1    1    2    0    0  0.38528404801E+02 -0.54514620077E+01 -0.53450769558E+02  0.66114606411E+02  0.00000000000E+00 0. -1.
         11    1    1    2    0    0 -0.15226975157E+02  0.60372431567E+02 -0.30343790658E+02  0.69263532233E+02  0.00000000000E+00 0.  1.
<mgrwt>
<rscale>  0 0.12964876E+03</rscale>
<asrwt>0</asrwt>
<pdfrwt beam="1">  1        1 0.59438742E-02 0.13850799E+03</pdfrwt>
<pdfrwt beam="2">  1       -1 0.74310297E-01 0.13850799E+03</pdfrwt>
<totfact> 0.24094035E+03</totfact>
</mgrwt>
</event>
<event>
 6    1  0.6387485E-006  0.2121474E+03  0.7546771E-02  0.1145665E+00
          1   -1    0    0  501    0  0.00000000000E+00  0.00000000000E+00  0.84358594842E+03  0.84358594842E+03  0.00000000000E+00 0. -1.
         -1   -1    0    0    0  501 -0.00000000000E+00 -0.00000000000E+00 -0.80206763817E+02  0.80206763817E+02  0.00000000000E+00 0.  1.
          5    1    1    2  502    0 -0.47311987767E+02 -0.50149556670E+02  0.11376848991E+03  0.13311183838E+03  0.47000000000E+01 0. -1.
         -5    1    1    2    0  502 -0.99357941250E+02 -0.78412363887E+01 -0.15002788118E+02  0.10089925237E+03  0.47000000000E+01 0.  1.
        -11    1    1    2    0    0  0.14659373022E+03  0.31996859557E+02  0.62220094411E+03  0.64003713612E+03  0.00000000000E+00 0. -1.
         11    1    1    2    0    0  0.76198798175E-01  0.25993933502E+02  0.42412538694E+02  0.49744485359E+02  0.00000000000E+00 0.  1.
<mgrwt>
<rscale>  0 0.20490515E+03</rscale>
<asrwt>0</asrwt>
<pdfrwt beam="1">  1        1 0.12978245E+00 0.21214742E+03</pdfrwt>
<pdfrwt beam="2">  1       -1 0.12339503E-01 0.21214742E+03</pdfrwt>
<totfact> 0.93269124E+02</totfact>
</mgrwt>
</event>
<event>
 7    1  0.6387485E-006  0.1265318E+03  0.7546771E-02  0.1250403E+00
         -2   -1    0    0    0  501 -0.00000000000E+00  0.00000000000E+00  0.72165508795E+03  0.72165508795E+03  0.00000000000E+00 0.  1.
          2   -1    0    0  501    0  0.00000000000E+00 -0.00000000000E+00 -0.17610781908E+02  0.17610781908E+02  0.00000000000E+00 0. -1.
         23    2    1    2    0    0 -0.86752511410E+01  0.17742184805E+02  0.51890883925E+03  0.53411298319E+03  0.12498099958E+03 0.  0.
          5    1    3    3  502    0 -0.47723554197E+02  0.61863122243E+00  0.81184098396E+02  0.94291400255E+02  0.47000000000E+01 0.  1.
         -5    1    3    3    0  502  0.39048303056E+02  0.17123553583E+02  0.43772474086E+03  0.43982158294E+03  0.47000000000E+01 0.  1.
        -11    1    1    2    0    0 -0.24517769451E+02 -0.30698743640E+02  0.41431858474E+02  0.57097572423E+02  0.00000000000E+00 0. -1.
         11    1    1    2    0    0  0.33193020592E+02  0.12956558835E+02  0.14370360832E+03  0.14805531425E+03  0.00000000000E+00 0.  1.
<mgrwt>
<rscale>  0 0.11567752E+03</rscale>
<asrwt>0</asrwt>
<pdfrwt beam="2">  1        2 0.27093516E-02 0.12653180E+03</pdfrwt>
<pdfrwt beam="1">  1       -2 0.11102384E+00 0.12653180E+03</pdfrwt>
<totfact> 0.22949769E+03</totfact>
</mgrwt>
</event>
<event>
 7    1  0.6387485E-006  0.1360323E+03  0.7546771E-02  0.1231439E+00
         -2   -1    0    0    0  501 -0.00000000000E+00  0.00000000000E+00  0.15228848576E+03  0.15228848576E+03  0.00000000000E+00 0.  1.
          2   -1    0    0  501    0  0.00000000000E+00 -0.00000000000E+00 -0.12065688890E+03  0.12065688890E+03  0.00000000000E+00 0. -1.
         23    2    1    2    0    0  0.51885009879E+02  0.13676990498E+02  0.79985789718E+02  0.15780533556E+03  0.12500273219E+03 0.  0.
          5    1    3    3  502    0  0.50972842746E+02  0.62029541102E+02  0.73193142055E+02  0.10874383068E+03  0.47000000000E+01 0. -1.
         -5    1    3    3    0  502  0.91216713303E+00 -0.48352550604E+02  0.67926476629E+01  0.49061504880E+02  0.47000000000E+01 0. -1.
        -11    1    1    2    0    0 -0.24689186737E+02  0.37944107168E+02 -0.13786488831E+02  0.47322071856E+02  0.00000000000E+00 0. -1.
         11    1    1    2    0    0 -0.27195823142E+02 -0.51621097666E+02 -0.34567704026E+02  0.67817967252E+02  0.00000000000E+00 0.  1.
<mgrwt>
<rscale>  0 0.12735177E+03</rscale>
<asrwt>0</asrwt>
<pdfrwt beam="2">  1        2 0.18562598E-01 0.13603234E+03</pdfrwt>
<pdfrwt beam="1">  1       -2 0.23428998E-01 0.13603234E+03</pdfrwt>
<totfact> 0.46136339E+03</totfact>
</mgrwt>
</event>
<event>
 7    1  0.6387485E-006  0.1924909E+03  0.7546771E-02  0.1161510E+00
         -2   -1    0    0    0  501 -0.00000000000E+00  0.00000000000E+00  0.10620034870E+03  0.10620034870E+03  0.00000000000E+00 0.  1.
          2   -1    0    0  501    0  0.00000000000E+00 -0.00000000000E+00 -0.44362861154E+03  0.44362861154E+03  0.00000000000E+00 0. -1.
         23    2    1    2    0    0 -0.14510022276E+03 -0.19312015258E+02 -0.25079850373E+02  0.19411783836E+03  0.12500283076E+03 0.  0.
          5    1    3    3  502    0 -0.93376637329E+01 -0.38637558872E+02 -0.39395006016E+02  0.56161458480E+02  0.47000000000E+01 0.  1.
         -5    1    3    3    0  502 -0.13576255903E+03  0.19325543614E+02  0.14315155643E+02  0.13795637988E+03  0.47000000000E+01 0.  1.
        -11    1    1    2    0    0  0.37589296203E+02  0.41695617271E+02 -0.70676387068E+02  0.90258691424E+02  0.00000000000E+00 0.  1.
         11    1    1    2    0    0  0.10751092656E+03 -0.22383602013E+02 -0.24167202541E+03  0.26545243045E+03  0.00000000000E+00 0. -1.
<mgrwt>
<rscale>  0 0.18665905E+03</rscale>
<asrwt>0</asrwt>
<pdfrwt beam="2">  1        2 0.68250558E-01 0.19249087E+03</pdfrwt>
<pdfrwt beam="1">  1       -2 0.16338515E-01 0.19249087E+03</pdfrwt>
<totfact> 0.20903921E+03</totfact>
</mgrwt>
</event>
<event>
 7    1  0.6387485E-006  0.2075490E+03  0.7546771E-02  0.1147541E+00
          1   -1    0    0  501    0  0.00000000000E+00  0.00000000000E+00  0.10922749077E+03  0.10922749077E+03  0.00000000000E+00 0. -1.
         -1   -1    0    0    0  501 -0.00000000000E+00 -0.00000000000E+00 -0.35910606365E+03  0.35910606365E+03  0.00000000000E+00 0.  1.
         23    2    1    2    0    0 -0.59285604790E+02 -0.15471459101E+03 -0.13106281828E+03  0.24546704237E+03  0.12500087579E+03 0.  0.
          5    1    3    3  502    0 -0.66647502113E+02 -0.51500052113E+02 -0.81839903874E+01  0.84753835336E+02  0.47000000000E+01 0. -1.
         -5    1    3    3    0  502  0.73618973234E+01 -0.10321453890E+03 -0.12287882789E+03  0.16071320704E+03  0.47000000000E+01 0. -1.
        -11    1    1    2    0    0  0.54825822144E+02  0.56877610259E+02 -0.92119664860E+02  0.12135471139E+03  0.00000000000E+00 0.  1.
         11    1    1    2    0    0  0.44597826463E+01  0.97836980753E+02 -0.26696089742E+02  0.10151180065E+03  0.00000000000E+00 0. -1.
<mgrwt>
<rscale>  0 0.20262779E+03</rscale>
<asrwt>0</asrwt>
<pdfrwt beam="1">  1        1 0.16804229E-01 0.20754905E+03</pdfrwt>
<pdfrwt beam="2">  1       -1 0.55247086E-01 0.20754905E+03</pdfrwt>
<totfact> 0.10869486E+03</totfact>
</mgrwt>
</event>
<event>
 7    1  0.6387485E-006  0.1295657E+03  0.7546771E-02  0.1292253E+00
         -2   -1    0    0    0  501 -0.00000000000E+00  0.00000000000E+00  0.38298604788E+02  0.38298604788E+02  0.00000000000E+00 0. -1.
          2   -1    0    0  501    0  0.00000000000E+00 -0.00000000000E+00 -0.18273274954E+03  0.18273274954E+03  0.00000000000E+00 0.  1.
         23    2    1    2    0    0  0.13152013215E+02  0.31464601941E+02 -0.10178917023E+03  0.16476744785E+03  0.12499712025E+03 0.  0.
          5    1    3    3  502    0 -0.49158821368E+01  0.76511642227E+02 -0.81380149836E+02  0.11190628258E+03  0.47000000000E+01 0. -1.
         -5    1    3    3    0  502  0.18067895352E+02 -0.45047040286E+02 -0.20409020390E+02  0.52861165275E+02  0.47000000000E+01 0. -1.
        -11    1    1    2    0    0 -0.69226238892E+01 -0.16729917741E+02 -0.32841222729E+02  0.37501450365E+02  0.00000000000E+00 0.  1.
         11    1    1    2    0    0 -0.62293893258E+01 -0.14734684201E+02 -0.98037517945E+01  0.18762456106E+02  0.00000000000E+00 0. -1.
<mgrwt>
<rscale>  0 0.94523520E+02</rscale>
<asrwt>0</asrwt>
<pdfrwt beam="2">  1        2 0.28112730E-01 0.12956572E+03</pdfrwt>
<pdfrwt beam="1">  1       -2 0.58920931E-02 0.12956572E+03</pdfrwt>
<totfact> 0.26430519E+04</totfact>
</mgrwt>
</event>
<event>
 7    1  0.6387485E-006  0.4005214E+03  0.7546771E-02  0.1043599E+00
         -4   -1    0    0    0  501 -0.00000000000E+00  0.00000000000E+00  0.15359127165E+03  0.15359127165E+03  0.00000000000E+00 0.  1.
          4   -1    0    0  501    0  0.00000000000E+00 -0.00000000000E+00 -0.26111087605E+03  0.26111087605E+03  0.00000000000E+00 0. -1.
         23    2    1    2    0    0 -0.92490270386E+01  0.44727378157E+02 -0.35461902105E+02  0.13772579221E+03  0.12499905792E+03 0.  0.
          5    1    3    3  502    0 -0.10244943271E+02  0.57815753012E+02  0.33231573240E+02  0.67631705723E+02  0.47000000000E+01 0. -1.
         -5    1    3    3    0  502  0.99591623239E+00 -0.13088374855E+02 -0.68693475345E+02  0.70094086487E+02  0.47000000000E+01 0. -1.
        -11    1    1    2    0    0  0.31491117670E+02 -0.10926367983E+03 -0.14020505326E+03  0.18052063367E+03  0.00000000000E+00 0. -1.
         11    1    1    2    0    0 -0.22242090631E+02  0.64536301673E+02  0.68147350966E+02  0.96455721826E+02  0.00000000000E+00 0.  1.
<mgrwt>
<rscale>  0 0.40052142E+03</rscale>
<asrwt>0</asrwt>
<pdfrwt beam="2">  1        4 0.40170904E-01 0.40052142E+03</pdfrwt>
<pdfrwt beam="1">  1       -4 0.23629427E-01 0.40052142E+03</pdfrwt>
<totfact> 0.19487717E+02</totfact>
</mgrwt>
</event>
<event>
 7    1  0.6387485E-006  0.1337160E+03  0.7546771E-02  0.1234669E+00
         -1   -1    0    0    0  501 -0.00000000000E+00  0.00000000000E+00  0.89619262855E+02  0.89619262855E+02  0.00000000000E+00 0.  1.
          1   -1    0    0  501    0  0.00000000000E+00 -0.00000000000E+00 -0.20060802686E+03  0.20060802686E+03  0.00000000000E+00 0. -1.
         23    2    1    2    0    0 -0.13223193018E+02  0.45577382407E+02  0.66710356459E+01  0.13388234688E+03  0.12501131736E+03 0.  0.
          5    1    3    3  502    0 -0.40587424403E+02 -0.11383965669E+02 -0.37519163919E+02  0.56627831984E+02  0.47000000000E+01 0. -1.
         -5    1    3    3    0  502  0.27364231385E+02  0.56961348076E+02  0.44190199565E+02  0.77254514894E+02  0.47000000000E+01 0. -1.
        -11    1    1    2    0    0  0.14638304821E+02  0.21431446393E+02 -0.68504133867E+01  0.26842410959E+02  0.00000000000E+00 0.  1.
         11    1    1    2    0    0 -0.14151118027E+01 -0.67008828800E+02 -0.11080938626E+03  0.12950253188E+03  0.00000000000E+00 0. -1.
<mgrwt>
<rscale>  0 0.12525654E+03</rscale>
<asrwt>0</asrwt>
<pdfrwt beam="2">  1        1 0.30862773E-01 0.13371604E+03</pdfrwt>
<pdfrwt beam="1">  1       -1 0.13787579E-01 0.13371604E+03</pdfrwt>
<totfact> 0.51303536E+03</totfact>
</mgrwt>
</event>
<event>
 7    1  0.6387485E-006  0.1353051E+03  0.7546771E-02  0.1231693E+00
         -1   -1    0    0    0  501 -0.00000000000E+00  0.00000000000E+00  0.23721826467E+02  0.23721826467E+02  0.00000000000E+00 0.  1.
          1   -1    0    0  501    0  0.00000000000E+00 -0.00000000000E+00 -0.61859385753E+03  0.61859385753E+03  0.00000000000E+00 0. -1.
         23    2    1    2    0    0  0.52129732179E+02 -0.31823436752E+01 -0.30026437444E+03  0.32934203580E+03  0.12481925211E+03 0.  0.
          5    1    3    3  502    0  0.30430108701E+02  0.21603376258E+02 -0.29284264809E+03  0.29524837666E+03  0.47000000000E+01 0.  1.
         -5    1    3    3    0  502  0.21699623479E+02 -0.24785719934E+02 -0.74217263598E+01  0.34093659145E+02  0.47000000000E+01 0.  1.
        -11    1    1    2    0    0 -0.14548152261E+02  0.36944415896E+02 -0.21538077418E+03  0.21901008307E+03  0.00000000000E+00 0. -1.
         11    1    1    2    0    0 -0.37581579918E+02 -0.33762072221E+02 -0.79226882430E+02  0.93963565116E+02  0.00000000000E+00 0.  1.
<mgrwt>
<rscale>  0 0.12718564E+03</rscale>
<asrwt>0</asrwt>
<pdfrwt beam="2">  1        1 0.95168291E-01 0.13530514E+03</pdfrwt>
<pdfrwt beam="1">  1       -1 0.36495116E-02 0.13530514E+03</pdfrwt>
<totfact> 0.90929768E+03</totfact>
</mgrwt>
</event>
<event>
 7    1  0.6387485E-006  0.1551681E+03  0.7546771E-02  0.1203378E+00
          1   -1    0    0  501    0  0.00000000000E+00  0.00000000000E+00  0.45304213310E+03  0.45304213310E+03  0.00000000000E+00 0. -1.
         -1   -1    0    0    0  501 -0.00000000000E+00 -0.00000000000E+00 -0.53596481215E+02  0.53596481215E+02  0.00000000000E+00 0.  1.
         23    2    1    2    0    0 -0.85121422684E+01 -0.91540376010E+02  0.10924925178E+03  0.18976971341E+03  0.12500019242E+03 0.  0.
          5    1    3    3  502    0 -0.46397172737E+02 -0.51714392510E+02  0.11485683979E+03  0.13431775638E+03  0.47000000000E+01 0. -1.
         -5    1    3    3    0  502  0.37885030469E+02 -0.39825983499E+02 -0.56075880119E+01  0.55451957032E+02  0.47000000000E+01 0. -1.
        -11    1    1    2    0    0  0.26543826486E+02  0.30681082453E+02  0.34019832371E+02  0.52945750912E+02  0.00000000000E+00 0.  1.
         11    1    1    2    0    0 -0.18031684218E+02  0.60859293557E+02  0.25617656773E+03  0.26392315000E+03  0.00000000000E+00 0. -1.
<mgrwt>
<rscale>  0 0.14766048E+03</rscale>
<asrwt>0</asrwt>
<pdfrwt beam="1">  1        1 0.69698787E-01 0.15516812E+03</pdfrwt>
<pdfrwt beam="2">  1       -1 0.82456128E-02 0.15516812E+03</pdfrwt>
<totfact> 0.41166980E+03</totfact>
</mgrwt>
</event>
<event>
 7    1  0.6387485E-006  0.1268148E+03  0.7546771E-02  0.1247702E+00
         -2   -1    0    0    0  501 -0.00000000000E+00  0.00000000000E+00  0.43920616968E+02  0.43920616968E+02  0.00000000000E+00 0.  1.
          2   -1    0    0  501    0  0.00000000000E+00 -0.00000000000E+00 -0.27837972078E+03  0.27837972078E+03  0.00000000000E+00 0. -1.
         23    2    1    2    0    0 -0.54499829475E+01  0.20742538406E+02 -0.11572171887E+03  0.17167847254E+03  0.12498810545E+03 0.  0.
          5    1    3    3  502    0 -0.48598441460E+01 -0.27958281233E+02  0.14755620453E+02  0.32328035969E+02  0.47000000000E+01 0.  1.
         -5    1    3    3    0  502 -0.59013880146E+00  0.48700819640E+02 -0.13047733932E+03  0.13935043657E+03  0.47000000000E+01 0.  1.
        -11    1    1    2    0    0 -0.27369128325E+02 -0.96633416922E+01 -0.22711132543E+01  0.29113696319E+02  0.00000000000E+00 0.  1.
         11    1    1    2    0    0  0.32819111273E+02 -0.11079196714E+02 -0.11646627170E+03  0.12150816889E+03  0.00000000000E+00 0. -1.
<mgrwt>
<rscale>  0 0.11725092E+03</rscale>
<asrwt>0</asrwt>
<pdfrwt beam="2">  1        2 0.42827649E-01 0.12681475E+03</pdfrwt>
<pdfrwt beam="1">  1       -2 0.67570181E-02 0.12681475E+03</pdfrwt>
<totfact> 0.13650187E+04</totfact>
</mgrwt>
</event>
<event>
 7    1  0.6387485E-006  0.1603478E+03  0.7546771E-02  0.1195005E+00
         -1   -1    0    0    0  501 -0.00000000000E+00  0.00000000000E+00  0.14896897355E+04  0.14896897355E+04  0.00000000000E+00 0.  1.
          1   -1    0    0  501    0  0.00000000000E+00 -0.00000000000E+00 -0.17128999046E+02  0.17128999046E+02  0.00000000000E+00 0. -1.
         23    2    1    2    0    0  0.20936534224E+02 -0.98225067500E+02  0.10504014025E+04  0.10625697787E+04  0.12499970357E+03 0.  0.
          5    1    3    3  502    0  0.17383819247E+02 -0.23357286579E+01  0.17528671857E+02  0.25238802211E+02  0.47000000000E+01 0. -1.
         -5    1    3    3    0  502  0.35527149773E+01 -0.95889338842E+02  0.10328727306E+04  0.10373309765E+04  0.47000000000E+01 0. -1.
        -11    1    1    2    0    0 -0.10989927326E+01  0.70944829510E+02  0.39391695927E+03  0.40025610229E+03  0.00000000000E+00 0.  1.
         11    1    1    2    0    0 -0.19837541492E+02  0.27280237990E+02  0.28242374728E+02  0.43992853596E+02  0.00000000000E+00 0. -1.
<mgrwt>
<rscale>  0 0.15453832E+03</rscale>
<asrwt>0</asrwt>
<pdfrwt beam="2">  1        1 0.26352318E-02 0.16034784E+03</pdfrwt>
<pdfrwt beam="1">  1       -1 0.22918293E+00 0.16034784E+03</pdfrwt>
<totfact> 0.43908756E+02</totfact>
</mgrwt>
</event>
<event>
 7    1  0.6387485E-006  0.1445999E+03  0.7546771E-02  0.1216957E+00
         -2   -1    0    0    0  501 -0.00000000000E+00  0.00000000000E+00  0.91814566156E+02  0.91814566156E+02  0.00000000000E+00 0.  1.
          2   -1    0    0  501    0  0.00000000000E+00 -0.00000000000E+00 -0.18964946178E+03  0.18964946178E+03  0.00000000000E+00 0. -1.
         23    2    1    2    0    0  0.51039994170E+02  0.51753083193E+02 -0.38262172637E+02  0.14957644879E+03  0.12500263019E+03 0.  0.
          5    1    3    3  502    0 -0.24440134282E+02  0.19444530382E+02 -0.57059266262E+02  0.65217020722E+02  0.47000000000E+01 0. -1.
         -5    1    3    3    0  502  0.75480128452E+02  0.32308552811E+02  0.18797093626E+02  0.84359428072E+02  0.47000000000E+01 0. -1.
        -11    1    1    2    0    0 -0.36035813887E+02  0.15284568338E+02 -0.48466638069E+02  0.62299381357E+02  0.00000000000E+00 0. -1.
         11    1    1    2    0    0 -0.15004180283E+02 -0.67037651531E+02 -0.11106084920E+02  0.69588197785E+02  0.00000000000E+00 0.  1.
<mgrwt>
<rscale>  0 0.13733752E+03</rscale>
<asrwt>0</asrwt>
<pdfrwt beam="2">  1        2 0.29176840E-01 0.14459986E+03</pdfrwt>
<pdfrwt beam="1">  1       -2 0.14125318E-01 0.14459986E+03</pdfrwt>
<totfact> 0.65324112E+03</totfact>
</mgrwt>
</event>
<event>
 7    1  0.6387485E-006  0.1251979E+03  0.7546771E-02  0.1249639E+00
         -2   -1    0    0    0  501 -0.00000000000E+00  0.00000000000E+00  0.34284148593E+03  0.34284148593E+03  0.00000000000E+00 0.  1.
          2   -1    0    0  501    0  0.00000000000E+00 -0.00000000000E+00 -0.36804539561E+02  0.36804539561E+02  0.00000000000E+00 0. -1.
         23    2    1    2    0    0  0.26956907704E+01  0.64651250117E+01  0.22042936355E+03  0.25350270278E+03  0.12500180562E+03 0.  0.
          5    1    3    3  502    0  0.33034387506E+02  0.56045810797E+02  0.13672942501E+03  0.15149069057E+03  0.47000000000E+01 0. -1.
         -5    1    3    3    0  502 -0.30338696736E+02 -0.49580685786E+02  0.83699938546E+02  0.10201201221E+03  0.47000000000E+01 0. -1.
        -11    1    1    2    0    0  0.15428006109E+02 -0.38965623301E+02  0.11884976587E+02  0.43561403102E+02  0.00000000000E+00 0.  1.
         11    1    1    2    0    0 -0.18123696879E+02  0.32500498290E+02  0.73722606228E+02  0.82581919611E+02  0.00000000000E+00 0. -1.
<mgrwt>
<rscale>  0 0.11611965E+03</rscale>
<asrwt>0</asrwt>
<pdfrwt beam="2">  1        2 0.56622371E-02 0.12519791E+03</pdfrwt>
<pdfrwt beam="1">  1       -2 0.52744842E-01 0.12519791E+03</pdfrwt>
<totfact> 0.43440493E+03</totfact>
</mgrwt>
</event>
<event>
 7    1  0.6387485E-006  0.1294361E+03  0.7546771E-02  0.1242453E+00
          3   -1    0    0  501    0  0.00000000000E+00  0.00000000000E+00  0.41016660491E+02  0.41016660491E+02  0.00000000000E+00 0. -1.
         -3   -1    0    0    0  501 -0.00000000000E+00 -0.00000000000E+00 -0.34015466135E+03  0.34015466135E+03  0.00000000000E+00 0.  1.
         23    2    1    2    0    0 -0.31124484268E+02 -0.12585038933E+02 -0.22345795400E+03  0.25823856877E+03  0.12500633770E+03 0.  0.
          5    1    3    3  502    0 -0.72822203322E+02 -0.34836040102E+02 -0.15635455595E+03  0.17602687339E+03  0.47000000000E+01 0. -1.
         -5    1    3    3    0  502  0.41697719054E+02  0.22251001170E+02 -0.67103398048E+02  0.82211695378E+02  0.47000000000E+01 0. -1.
        -11    1    1    2    0    0  0.56642994147E+02  0.24933180926E+02 -0.71022788861E+02  0.94203656164E+02  0.00000000000E+00 0. -1.
         11    1    1    2    0    0 -0.25518509880E+02 -0.12348141993E+02 -0.46572579915E+01  0.28729096908E+02  0.00000000000E+00 0.  1.
<mgrwt>
<rscale>  0 0.12039149E+03</rscale>
<asrwt>0</asrwt>
<pdfrwt beam="1">  1        3 0.63102556E-02 0.12943609E+03</pdfrwt>
<pdfrwt beam="2">  1       -3 0.52331485E-01 0.12943609E+03</pdfrwt>
<totfact> 0.13057635E+03</totfact>
</mgrwt>
</event>
<event>
 7    1  0.6387485E-006  0.1632543E+03  0.7546771E-02  0.1192527E+00
         -3   -1    0    0    0  501 -0.00000000000E+00  0.00000000000E+00  0.59151807352E+03  0.59151807352E+03  0.00000000000E+00 0.  1.
          3   -1    0    0  501    0  0.00000000000E+00 -0.00000000000E+00 -0.46656832550E+02  0.46656832550E+02  0.00000000000E+00 0. -1.
         23    2    1    2    0    0  0.99853406881E+02 -0.32475232469E+02  0.42428308406E+03  0.45460764335E+03  0.12500652136E+03 0.  0.
          5    1    3    3  502    0 -0.18423217360E+02  0.25067074276E+02  0.90494986120E+02  0.95808171173E+02  0.47000000000E+01 0.  1.
         -5    1    3    3    0  502  0.11827662424E+03 -0.57542306745E+02  0.33378809794E+03  0.35879947218E+03  0.47000000000E+01 0.  1.
        -11    1    1    2    0    0 -0.40284062240E+01  0.25508506071E+02  0.70793969715E+02  0.75357136933E+02  0.00000000000E+00 0.  1.
         11    1    1    2    0    0 -0.95825000657E+02  0.69667263976E+01  0.49784187189E+02  0.10821012578E+03  0.00000000000E+00 0. -1.
<mgrwt>
<rscale>  0 0.15665413E+03</rscale>
<asrwt>0</asrwt>
<pdfrwt beam="2">  1        3 0.71779746E-02 0.16325432E+03</pdfrwt>
<pdfrwt beam="1">  1       -3 0.91002775E-01 0.16325432E+03</pdfrwt>
<totfact> 0.34020400E+02</totfact>
</mgrwt>
</event>
<event>
 7    1  0.6387485E-006  0.1303545E+03  0.7546771E-02  0.1239065E+00
          1   -1    0    0  501    0  0.00000000000E+00  0.00000000000E+00  0.19474892875E+03  0.19474892875E+03  0.00000000000E+00 0. -1.
         -1   -1    0    0    0  501 -0.00000000000E+00 -0.00000000000E+00 -0.69096149601E+02  0.69096149601E+02  0.00000000000E+00 0.  1.
         23    2    1    2    0    0  0.23030724850E+02  0.28949829366E+02  0.67655593806E+02  0.14686582399E+03  0.12499513581E+03 0.  0.
          5    1    3    3  502    0  0.62660919790E+02  0.36297883060E+02  0.76383867320E+02  0.10535896910E+03  0.47000000000E+01 0.  1.
         -5    1    3    3    0  502 -0.39630194940E+02 -0.73480536935E+01 -0.87282735140E+01  0.41506854887E+02  0.47000000000E+01 0.  1.
        -11    1    1    2    0    0 -0.33899536708E+02 -0.52339129098E+02  0.65181161118E+02  0.90206134982E+02  0.00000000000E+00 0. -1.
         11    1    1    2    0    0  0.10868811858E+02  0.23389299732E+02 -0.71839757777E+01  0.26773119376E+02  0.00000000000E+00 0.  1.
<mgrwt>
<rscale>  0 0.12247767E+03</rscale>
<asrwt>0</asrwt>
<pdfrwt beam="1">  1        1 0.29961373E-01 0.13035448E+03</pdfrwt>
<pdfrwt beam="2">  1       -1 0.10630177E-01 0.13035448E+03</pdfrwt>
<totfact> 0.79369217E+03</totfact>
</mgrwt>
</event>
<event>
 7    1  0.6387485E-006  0.1300419E+03  0.7546771E-02  0.1243305E+00
         -2   -1    0    0    0  501 -0.00000000000E+00  0.00000000000E+00  0.11473472010E+03  0.11473472010E+03  0.00000000000E+00 0.  1.
          2   -1    0    0  501    0  0.00000000000E+00 -0.00000000000E+00 -0.10927096248E+03  0.10927096248E+03  0.00000000000E+00 0. -1.
         23    2    1    2    0    0  0.35864982794E+02  0.10846142192E+01  0.32397114903E+01  0.13008227542E+03  0.12499371692E+03 0.  0.
          5    1    3    3  502    0 -0.38159691895E+02  0.14432244792E+02  0.29179018497E+02  0.50378139065E+02  0.47000000000E+01 0.  1.
         -5    1    3    3    0  502  0.74024674688E+02 -0.13347630572E+02 -0.25939307007E+02  0.79704136358E+02  0.47000000000E+01 0.  1.
        -11    1    1    2    0    0 -0.46801361331E+02  0.26769093044E+02  0.21809277646E+02  0.58160092472E+02  0.00000000000E+00 0.  1.
         11    1    1    2    0    0  0.10936378538E+02 -0.27853707263E+02 -0.19585231515E+02  0.35763314686E+02  0.00000000000E+00 0. -1.
<mgrwt>
<rscale>  0 0.11987415E+03</rscale>
<asrwt>0</asrwt>
<pdfrwt beam="2">  1        2 0.16810917E-01 0.13004193E+03</pdfrwt>
<pdfrwt beam="1">  1       -2 0.17651495E-01 0.13004193E+03</pdfrwt>
<totfact> 0.83284316E+03</totfact>
</mgrwt>
</event>
<event>
 7    1  0.6387485E-006  0.1497713E+03  0.7546771E-02  0.1210053E+00
          1   -1    0    0  501    0  0.00000000000E+00  0.00000000000E+00  0.37947352891E+03  0.37947352891E+03  0.00000000000E+00 0. -1.
         -1   -1    0    0    0  501 -0.00000000000E+00 -0.00000000000E+00 -0.48903568788E+02  0.48903568788E+02  0.00000000000E+00 0.  1.
         23    2    1    2    0    0  0.63009461535E+02  0.53265645295E+02  0.17686373208E+03  0.23175897687E+03  0.12499608963E+03 0.  0.
          5    1    3    3  502    0  0.47571078340E+02  0.32885679437E+02  0.19274985352E+03  0.20129349577E+03  0.47000000000E+01 0. -1.
         -5    1    3    3    0  502  0.15438383195E+02  0.20379965858E+02 -0.15886121444E+02  0.30465481099E+02  0.47000000000E+01 0. -1.
        -11    1    1    2    0    0  0.13146680228E+02 -0.32849334068E+02  0.18068079844E+02  0.39728698179E+02  0.00000000000E+00 0. -1.
         11    1    1    2    0    0 -0.76156141763E+02 -0.20416311227E+02  0.13563814820E+03  0.15688942265E+03  0.00000000000E+00 0.  1.
<mgrwt>
<rscale>  0 0.14246312E+03</rscale>
<asrwt>0</asrwt>
<pdfrwt beam="1">  1        1 0.58380541E-01 0.14977130E+03</pdfrwt>
<pdfrwt beam="2">  1       -1 0.75236262E-02 0.14977130E+03</pdfrwt>
<totfact> 0.59125824E+03</totfact>
</mgrwt>
</event>
<event>
 7    1  0.6387485E-006  0.1435636E+03  0.7546771E-02  0.1219670E+00
         -2   -1    0    0    0  501 -0.00000000000E+00  0.00000000000E+00  0.98168650380E+03  0.98168650380E+03  0.00000000000E+00 0.  1.
          2   -1    0    0  501    0  0.00000000000E+00 -0.00000000000E+00 -0.18871821555E+02  0.18871821555E+02  0.00000000000E+00 0. -1.
         23    2    1    2    0    0  0.46837252582E+02  0.49005533976E+02  0.69483634576E+03  0.70951253910E+03  0.12655127480E+03 0.  0.
          5    1    3    3  502    0  0.86707442233E+02  0.48486160174E+02  0.41162223002E+03  0.42346669115E+03  0.47000000000E+01 0. -1.
         -5    1    3    3    0  502 -0.39870189652E+02  0.51937380134E+00  0.28321411574E+03  0.28604584795E+03  0.47000000000E+01 0.  1.
        -11    1    1    2    0    0  0.10871254573E+02 -0.50701861953E+02  0.89205491264E+02  0.10318179419E+03  0.00000000000E+00 0.  1.
         11    1    1    2    0    0 -0.57708507155E+02  0.16963279776E+01  0.17877284521E+03  0.18786399206E+03  0.00000000000E+00 0. -1.
<mgrwt>
<rscale>  0 0.13539011E+03</rscale>
<asrwt>0</asrwt>
<pdfrwt beam="2">  1        2 0.29033579E-02 0.14356356E+03</pdfrwt>
<pdfrwt beam="1">  1       -2 0.15102865E+00 0.14356356E+03</pdfrwt>
<totfact> 0.99109491E+02</totfact>
</mgrwt>
</event>
<event>
 7    1  0.6387485E-006  0.1186043E+03  0.7546771E-02  0.1256876E+00
         -1   -1    0    0    0  501 -0.00000000000E+00  0.00000000000E+00  0.27149921053E+03  0.27149921053E+03  0.00000000000E+00 0.  1.
          1   -1    0    0  501    0  0.00000000000E+00 -0.00000000000E+00 -0.74667586987E+02  0.74667586987E+02  0.00000000000E+00 0. -1.
         23    2    1    2    0    0 -0.14743695560E+01 -0.32044368552E+02  0.21915010244E+03  0.24918614887E+03  0.11418386079E+03 0.  0.
          5    1    3    3  502    0  0.23634761583E+02  0.31658106130E+02  0.13420833091E+03  0.13998144064E+03  0.47000000000E+01 0. -1.
         -5    1    3    3    0  502 -0.25109131139E+02 -0.63702474682E+02  0.84941771534E+02  0.10920470823E+03  0.47000000000E+01 0.  1.
        -11    1    1    2    0    0 -0.41511546095E+02  0.48420722590E+01 -0.94701056585E+00  0.41803719356E+02  0.00000000000E+00 0.  1.
         11    1    1    2    0    0  0.42985915651E+02  0.27202296293E+02 -0.21371468331E+02  0.55176929297E+02  0.00000000000E+00 0. -1.
<mgrwt>
<rscale>  0 0.11201919E+03</rscale>
<asrwt>0</asrwt>
<pdfrwt beam="2">  1        1 0.11487321E-01 0.11860426E+03</pdfrwt>
<pdfrwt beam="1">  1       -1 0.41769109E-01 0.11860426E+03</pdfrwt>
<totfact> 0.29116466E+03</totfact>
</mgrwt>
</event>
<event>
 7    1  0.6387485E-006  0.1314152E+03  0.7546771E-02  0.1241952E+00
          2   -1    0    0  501    0  0.00000000000E+00  0.00000000000E+00  0.62798679706E+02  0.62798679706E+02  0.00000000000E+00 0.  1.
         -2   -1    0    0    0  501 -0.00000000000E+00 -0.00000000000E+00 -0.26210309953E+03  0.26210309953E+03  0.00000000000E+00 0. -1.
         23    2    1    2    0    0 -0.23139778687E+02 -0.33421713696E+02 -0.18987927578E+03  0.23092012182E+03  0.12497000835E+03 0.  0.
          5    1    3    3  502    0 -0.18317108075E+02 -0.57040830857E+02 -0.26452577251E+02  0.65658218650E+02  0.47000000000E+01 0.  1.
         -5    1    3    3    0  502 -0.48226706115E+01  0.23619117160E+02 -0.16342669852E+03  0.16526190317E+03  0.47000000000E+01 0.  1.
        -11    1    1    2    0    0  0.27080305773E+02  0.57487277036E+02  0.79459583728E+01  0.64041144870E+02  0.00000000000E+00 0.  1.
         11    1    1    2    0    0 -0.39405270868E+01 -0.24065563340E+02 -0.17371102423E+02  0.29940512554E+02  0.00000000000E+00 0. -1.
<mgrwt>
<rscale>  0 0.12069695E+03</rscale>
<asrwt>0</asrwt>
<pdfrwt beam="1">  1        2 0.96613355E-02 0.13141523E+03</pdfrwt>
<pdfrwt beam="2">  1       -2 0.40323553E-01 0.13141523E+03</pdfrwt>
<totfact> 0.37439872E+03</totfact>
</mgrwt>
</event>
<event>
 7    1  0.6387485E-006  0.2749859E+03  0.7546771E-02  0.1100639E+00
         -1   -1    0    0    0  501 -0.00000000000E+00  0.00000000000E+00  0.93820990137E+02  0.93820990137E+02  0.00000000000E+00 0.  1.
          1   -1    0    0  501    0  0.00000000000E+00 -0.00000000000E+00 -0.76315106337E+03  0.76315106337E+03  0.00000000000E+00 0. -1.
         23    2    1    2    0    0  0.24180451804E+03 -0.39050960722E+02 -0.35895562764E+03  0.45217959638E+03  0.12499136888E+03 0.  0.
          5    1    3    3  502    0  0.16244269343E+03 -0.12893795449E+02 -0.13032457201E+03  0.20871143399E+03  0.47000000000E+01 0.  1.
         -5    1    3    3    0  502  0.79361824609E+02 -0.26157165273E+02 -0.22863105563E+03  0.24346816239E+03  0.47000000000E+01 0.  1.
        -11    1    1    2    0    0 -0.14844218930E+03 -0.14401021124E+02 -0.21064777200E+03  0.25809873464E+03  0.00000000000E+00 0. -1.
         11    1    1    2    0    0 -0.93362328738E+02  0.53451981846E+02 -0.99726673589E+02  0.14669372248E+03  0.00000000000E+00 0.  1.
<mgrwt>
<rscale>  0 0.27112253E+03</rscale>
<asrwt>0</asrwt>
<pdfrwt beam="2">  1        1 0.11740786E+00 0.27498590E+03</pdfrwt>
<pdfrwt beam="1">  1       -1 0.14433998E-01 0.27498590E+03</pdfrwt>
<totfact> 0.84877960E+02</totfact>
</mgrwt>
</event>
<event>
 7    1  0.6387485E-006  0.1555170E+03  0.7546771E-02  0.1202112E+00
         -2   -1    0    0    0  501 -0.00000000000E+00  0.00000000000E+00  0.30817588892E+02  0.30817588892E+02  0.00000000000E+00 0. -1.
          2   -1    0    0  501    0  0.00000000000E+00 -0.00000000000E+00 -0.71178439320E+03  0.71178439320E+03  0.00000000000E+00 0.  1.
         23    2    1    2    0    0  0.14152466137E+02 -0.91371181030E+02 -0.26989368419E+03  0.31149339302E+03  0.12504618389E+03 0.  0.
          5    1    3    3  502    0  0.26061324101E+01  0.31422701347E+02 -0.49031550292E+02  0.58483852558E+02  0.47000000000E+01 0. -1.
         -5    1    3    3    0  502  0.11546333727E+02 -0.12279388238E+03 -0.22086213390E+03  0.25300954046E+03  0.47000000000E+01 0. -1.
        -11    1    1    2    0    0  0.25186116741E+01  0.93342436760E+02 -0.40056310629E+03  0.41130275470E+03  0.00000000000E+00 0.  1.
         11    1    1    2    0    0 -0.16671077812E+02 -0.19712557303E+01 -0.10510013822E+02  0.19805834370E+02  0.00000000000E+00 0. -1.
<mgrwt>
<rscale>  0 0.14867366E+03</rscale>
<asrwt>0</asrwt>
<pdfrwt beam="2">  1        2 0.10950529E+00 0.15551699E+03</pdfrwt>
<pdfrwt beam="1">  1       -2 0.47411677E-02 0.15551699E+03</pdfrwt>
<totfact> 0.84489530E+03</totfact>
</mgrwt>
</event>
<event>
 7    1  0.6387485E-006  0.1229341E+03  0.7546771E-02  0.1247100E+00
          1   -1    0    0  501    0  0.00000000000E+00  0.00000000000E+00  0.91717067296E+02  0.91717067296E+02  0.00000000000E+00 0. -1.
         -1   -1    0    0    0  501 -0.00000000000E+00 -0.00000000000E+00 -0.14074134155E+03  0.14074134155E+03  0.00000000000E+00 0.  1.
         23    2    1    2    0    0 -0.85912793369E+01 -0.46686224918E+02 -0.39156893950E+02  0.12901959352E+03  0.11339920410E+03 0.  0.
          5    1    3    3  502    0 -0.48533465381E+02  0.11234922754E+02 -0.39214269512E+01  0.50191516619E+02  0.47000000000E+01 0. -1.
         -5    1    3    3    0  502  0.39942186045E+02 -0.57921147673E+02 -0.35235466999E+02  0.78828076904E+02  0.47000000000E+01 0.  1.
        -11    1    1    2    0    0 -0.11166648382E+02  0.34435863389E+02  0.36600975140E+02  0.51479647480E+02  0.00000000000E+00 0. -1.
         11    1    1    2    0    0  0.19757927719E+02  0.12250361529E+02 -0.46468355448E+02  0.51959167847E+02  0.00000000000E+00 0.  1.
<mgrwt>
<rscale>  0 0.11760584E+03</rscale>
<asrwt>0</asrwt>
<pdfrwt beam="1">  1        1 0.14110318E-01 0.12293410E+03</pdfrwt>
<pdfrwt beam="2">  1       -1 0.21652514E-01 0.12293410E+03</pdfrwt>
<totfact> 0.67271639E+03</totfact>
</mgrwt>
</event>
<event>
 7    1  0.6387485E-006  0.1585104E+03  0.7546771E-02  0.1198235E+00
         -1   -1    0    0    0  501 -0.00000000000E+00  0.00000000000E+00  0.35517066077E+02  0.35517066077E+02  0.00000000000E+00 0.  1.
          1   -1    0    0  501    0  0.00000000000E+00 -0.00000000000E+00 -0.66716076798E+03  0.66716076798E+03  0.00000000000E+00 0. -1.
         23    2    1    2    0    0  0.46825097562E+02 -0.85473499313E+02 -0.22910238260E+03  0.27859192437E+03  0.12500899873E+03 0.  0.
          5    1    3    3  502    0  0.63599289983E+02 -0.23567884505E+02 -0.40065611459E+02  0.78915512340E+02  0.47000000000E+01 0.  1.
         -5    1    3    3    0  502 -0.16774192421E+02 -0.61905614807E+02 -0.18903677114E+03  0.19967641203E+03  0.47000000000E+01 0.  1.
        -11    1    1    2    0    0 -0.36687293896E+02  0.59362287833E+02 -0.38447052814E+03  0.39075238421E+03  0.00000000000E+00 0. -1.
         11    1    1    2    0    0 -0.10137803666E+02  0.26111211480E+02 -0.18070791157E+02  0.33333525483E+02  0.00000000000E+00 0.  1.
<mgrwt>
<rscale>  0 0.15183587E+03</rscale>
<asrwt>0</asrwt>
<pdfrwt beam="2">  1        1 0.10264011E+00 0.15851044E+03</pdfrwt>
<pdfrwt beam="1">  1       -1 0.54641645E-02 0.15851044E+03</pdfrwt>
<totfact> 0.45478017E+03</totfact>
</mgrwt>
</event>
<event>
 7    1  0.6387485E-006  0.2115059E+03  0.7546771E-02  0.1144230E+00
         -2   -1    0    0    0  501 -0.00000000000E+00  0.00000000000E+00  0.52337755547E+02  0.52337755547E+02  0.00000000000E+00 0.  1.
          2   -1    0    0  501    0  0.00000000000E+00 -0.00000000000E+00 -0.11020757444E+04  0.11020757444E+04  0.00000000000E+00 0. -1.
         23    2    1    2    0    0 -0.16133981127E+03 -0.55492602989E+02 -0.23068516223E+03  0.31297028791E+03  0.12499917341E+03 0.  0.
          5    1    3    3  502    0 -0.16096523434E+03 -0.59854904748E+02 -0.13880256350E+03  0.22086343727E+03  0.47000000000E+01 0. -1.
         -5    1    3    3    0  502 -0.37457692517E+00  0.43623017588E+01 -0.91882598732E+02  0.92106850637E+02  0.47000000000E+01 0. -1.
        -11    1    1    2    0    0  0.41012179788E+02  0.52150525981E+02 -0.19762511168E+03  0.20846429195E+03  0.00000000000E+00 0.  1.
         11    1    1    2    0    0  0.12032763148E+03  0.33420770083E+01 -0.62142771494E+03  0.63297892008E+03  0.00000000000E+00 0. -1.
<mgrwt>
<rscale>  0 0.20667090E+03</rscale>
<asrwt>0</asrwt>
<pdfrwt beam="2">  1        2 0.16955010E+00 0.21150593E+03</pdfrwt>
<pdfrwt beam="1">  1       -2 0.80519631E-02 0.21150593E+03</pdfrwt>
<totfact> 0.21279058E+03</totfact>
</mgrwt>
</event>
<event>
 7    1  0.6387485E-006  0.1274902E+03  0.7546771E-02  0.1245136E+00
         -2   -1    0    0    0  501 -0.00000000000E+00  0.00000000000E+00  0.15591933210E+03  0.15591933210E+03  0.00000000000E+00 0.  1.
          2   -1    0    0  501    0  0.00000000000E+00 -0.00000000000E+00 -0.80344262292E+02  0.80344262292E+02  0.00000000000E+00 0. -1.
         23    2    1    2    0    0  0.20929324891E+01  0.24986574304E+02  0.36799655275E+02  0.13269499536E+03  0.12500015162E+03 0.  0.
          5    1    3    3  502    0 -0.53890118755E+02  0.20881867276E+02 -0.10757200643E+02  0.58974610181E+02  0.47000000000E+01 0.  1.
         -5    1    3    3    0  502  0.55983051244E+02  0.41047070286E+01  0.47556855918E+02  0.73720385181E+02  0.47000000000E+01 0.  1.
        -11    1    1    2    0    0 -0.46649388463E+02 -0.57556371813E+01  0.24376187826E+02  0.52948005971E+02  0.00000000000E+00 0. -1.
         11    1    1    2    0    0  0.44556455974E+02 -0.19230937123E+02  0.14399226703E+02  0.50620593055E+02  0.00000000000E+00 0.  1.
<mgrwt>
<rscale>  0 0.11877256E+03</rscale>
<asrwt>0</asrwt>
<pdfrwt beam="2">  1        2 0.12360656E-01 0.12749018E+03</pdfrwt>
<pdfrwt beam="1">  1       -2 0.23987589E-01 0.12749018E+03</pdfrwt>
<totfact> 0.70902665E+03</totfact>
</mgrwt>
</event>
<event>
 7    1  0.6387485E-006  0.1252769E+03  0.7546771E-02  0.1250447E+00
         -3   -1    0    0    0  501 -0.00000000000E+00  0.00000000000E+00  0.11425875174E+03  0.11425875174E+03  0.00000000000E+00 0.  1.
          3   -1    0    0  501    0  0.00000000000E+00 -0.00000000000E+00 -0.10308871471E+03  0.10308871471E+03  0.00000000000E+00 0. -1.
         23    2    1    2    0    0  0.28698526280E+01 -0.81046362775E+01  0.15616034067E+02  0.12624639893E+03  0.12498148478E+03 0.  0.
          5    1    3    3  502    0  0.62690366075E+02 -0.50766424727E+01  0.19564156865E+02  0.66035600484E+02  0.47000000000E+01 0. -1.
         -5    1    3    3    0  502 -0.59820513447E+02 -0.30279938048E+01 -0.39481227987E+01  0.60210798444E+02  0.47000000000E+01 0. -1.
        -11    1    1    2    0    0  0.34730078849E+02 -0.69492400302E+01 -0.27188905015E+02  0.44650944780E+02  0.00000000000E+00 0. -1.
         11    1    1    2    0    0 -0.37599931477E+02  0.15053876308E+02  0.22742907988E+02  0.46450122742E+02  0.00000000000E+00 0.  1.
<mgrwt>
<rscale>  0 0.11565238E+03</rscale>
<asrwt>0</asrwt>
<pdfrwt beam="2">  1        3 0.15859802E-01 0.12527686E+03</pdfrwt>
<pdfrwt beam="1">  1       -3 0.17578269E-01 0.12527686E+03</pdfrwt>
<totfact> 0.21449020E+03</totfact>
</mgrwt>
</event>
<event>
 7    1  0.6387485E-006  0.1760360E+03  0.7546771E-02  0.1177804E+00
          1   -1    0    0  501    0  0.00000000000E+00  0.00000000000E+00  0.55690494393E+02  0.55690494393E+02  0.00000000000E+00 0. -1.
         -1   -1    0    0    0  501 -0.00000000000E+00 -0.00000000000E+00 -0.50140212884E+03  0.50140212884E+03  0.00000000000E+00 0.  1.
         23    2    1    2    0    0  0.11364657215E+03 -0.49480069977E+02 -0.28529325726E+03  0.33523261669E+03  0.12499937587E+03 0.  0.
          5    1    3    3  502    0  0.42520653315E+02 -0.71561805118E+02 -0.22283214667E+03  0.23791879602E+03  0.47000000000E+01 0.  1.
         -5    1    3    3    0  502  0.71125918839E+02  0.22081735141E+02 -0.62461110587E+02  0.97313820669E+02  0.47000000000E+01 0.  1.
        -11    1    1    2    0    0 -0.12100772148E+03  0.19724540536E+02 -0.12827918991E+03  0.17744710965E+03  0.00000000000E+00 0. -1.
         11    1    1    2    0    0  0.73611493282E+01  0.29755529441E+02 -0.32139187276E+02  0.44412896894E+02  0.00000000000E+00 0.  1.
<mgrwt>
<rscale>  0 0.17004207E+03</rscale>
<asrwt>0</asrwt>
<pdfrwt beam="1">  1        1 0.85677686E-02 0.17603598E+03</pdfrwt>
<pdfrwt beam="2">  1       -1 0.77138787E-01 0.17603598E+03</pdfrwt>
<totfact> 0.13750530E+03</totfact>
</mgrwt>
</event>
<event>
 7    1  0.6387485E-006  0.1252582E+03  0.7546771E-02  0.1250011E+00
          1   -1    0    0  501    0  0.00000000000E+00  0.00000000000E+00  0.25591110771E+02  0.25591110771E+02  0.00000000000E+00 0. -1.
         -1   -1    0    0    0  501 -0.00000000000E+00 -0.00000000000E+00 -0.46636977419E+03  0.46636977419E+03  0.00000000000E+00 0.  1.
         23    2    1    2    0    0  0.42116895179E+01  0.68635158434E+01 -0.22634621980E+03  0.25869331967E+03  0.12499910497E+03 0.  0.
          5    1    3    3  502    0  0.56492826382E+02 -0.27001403569E+02 -0.11326905533E+03  0.12950862567E+03  0.47000000000E+01 0.  1.
         -5    1    3    3    0  502 -0.52281136864E+02  0.33864919413E+02 -0.11307716448E+03  0.12918469400E+03  0.47000000000E+01 0.  1.
        -11    1    1    2    0    0 -0.21189391634E+02 -0.41382971778E+02 -0.71796743298E+02  0.85535448904E+02  0.00000000000E+00 0.  1.
         11    1    1    2    0    0  0.16977702116E+02  0.34519455935E+02 -0.14263570032E+03  0.14773211638E+03  0.00000000000E+00 0. -1.
<mgrwt>
<rscale>  0 0.11590419E+03</rscale>
<asrwt>0</asrwt>
<pdfrwt beam="1">  1        1 0.39370944E-02 0.12525822E+03</pdfrwt>
<pdfrwt beam="2">  1       -1 0.71749187E-01 0.12525822E+03</pdfrwt>
<totfact> 0.45100549E+03</totfact>
</mgrwt>
</event>
<event>
 7    1  0.6387485E-006  0.2327251E+03  0.7546771E-02  0.1127018E+00
         -3   -1    0    0    0  501 -0.00000000000E+00  0.00000000000E+00  0.77228076305E+02  0.77228076305E+02  0.00000000000E+00 0.  1.
          3   -1    0    0  501    0  0.00000000000E+00 -0.00000000000E+00 -0.10054978549E+04  0.10054978549E+04  0.00000000000E+00 0. -1.
         23    2    1    2    0    0 -0.10048377489E+03 -0.17492170213E+03 -0.15706268808E+03  0.28076619187E+03  0.11604471388E+03 0.  0.
          5    1    3    3  502    0 -0.34030354983E+02  0.77773055147E+01 -0.90143093593E+01  0.36357933310E+02  0.47000000000E+01 0. -1.
         -5    1    3    3    0  502 -0.66453419905E+02 -0.18269900764E+03 -0.14804837872E+03  0.24440825856E+03  0.47000000000E+01 0.  1.
        -11    1    1    2    0    0  0.74147905544E+01  0.92540658148E+02 -0.39454910348E+03  0.40532424993E+03  0.00000000000E+00 0.  1.
         11    1    1    2    0    0  0.93068984334E+02  0.82381043977E+02 -0.37665798702E+03  0.39663548939E+03  0.00000000000E+00 0. -1.
<mgrwt>
<rscale>  0 0.22946400E+03</rscale>
<asrwt>0</asrwt>
<pdfrwt beam="2">  1        3 0.15469197E+00 0.23272509E+03</pdfrwt>
<pdfrwt beam="1">  1       -3 0.11881243E-01 0.23272509E+03</pdfrwt>
<totfact> 0.43372048E+01</totfact>
</mgrwt>
</event>
<event>
 7    1  0.6387485E-006  0.1384485E+03  0.7546771E-02  0.1227903E+00
         -3   -1    0    0    0  501 -0.00000000000E+00  0.00000000000E+00  0.85904727486E+02  0.85904727486E+02  0.00000000000E+00 0. -1.
          3   -1    0    0  501    0  0.00000000000E+00 -0.00000000000E+00 -0.18855835077E+03  0.18855835077E+03  0.00000000000E+00 0.  1.
         23    2    1    2    0    0 -0.64370988025E+01 -0.59179159089E+02 -0.20721168422E+02  0.13999059153E+03  0.12499755911E+03 0.  0.
          5    1    3    3  502    0 -0.55125252928E+02 -0.68918359960E+02 -0.96598617708E+01  0.88904087529E+02  0.47000000000E+01 0.  1.
         -5    1    3    3    0  502  0.48688154125E+02  0.97392008712E+01 -0.11061306651E+02  0.51086503996E+02  0.47000000000E+01 0.  1.
        -11    1    1    2    0    0 -0.22497743418E+02  0.27409231526E+02 -0.84280942382E+02  0.91436817971E+02  0.00000000000E+00 0.  1.
         11    1    1    2    0    0  0.28934842221E+02  0.31769927563E+02  0.23484875245E+01  0.43035668756E+02  0.00000000000E+00 0. -1.
<mgrwt>
<rscale>  0 0.12969881E+03</rscale>
<asrwt>0</asrwt>
<pdfrwt beam="2">  1        3 0.29008977E-01 0.13844854E+03</pdfrwt>
<pdfrwt beam="1">  1       -3 0.13216112E-01 0.13844854E+03</pdfrwt>
<totfact> 0.12174099E+03</totfact>
</mgrwt>
</event>
<event>
 6    1  0.6387485E-006  0.1660334E+03  0.7546771E-02  0.1199546E+00
          2   -1    0    0  501    0  0.00000000000E+00  0.00000000000E+00  0.19017120805E+03  0.19017120805E+03  0.00000000000E+00 0. -1.
         -2   -1    0    0    0  501 -0.00000000000E+00 -0.00000000000E+00 -0.14307921636E+03  0.14307921636E+03  0.00000000000E+00 0.  1.
          5    1    1    2  502    0 -0.92750973685E+01 -0.16284084249E+02  0.35247280218E+02  0.40195268301E+02  0.47000000000E+01 0. -1.
         -5    1    1    2    0  502  0.64584309673E+02  0.72235807218E+02 -0.96340310956E+02  0.13672121421E+03  0.47000000000E+01 0.  1.
        -11    1    1    2    0    0 -0.31813350728E+02 -0.41048596597E+00 -0.74460665073E+00  0.31824710876E+02  0.00000000000E+00 0.  1.
         11    1    1    2    0    0 -0.23495861576E+02 -0.55541237003E+02  0.10892962907E+03  0.12450923102E+03  0.00000000000E+00 0. -1.
<mgrwt>
<rscale>  0 0.15075682E+03</rscale>
<asrwt>0</asrwt>
<pdfrwt beam="1">  1        2 0.29257109E-01 0.16603338E+03</pdfrwt>
<pdfrwt beam="2">  1       -2 0.22012187E-01 0.16603338E+03</pdfrwt>
<totfact> 0.31272712E+03</totfact>
</mgrwt>
</event>
<event>
 7    1  0.6387485E-006  0.1351530E+03  0.7546771E-02  0.1232259E+00
         -1   -1    0    0    0  501 -0.00000000000E+00  0.00000000000E+00  0.59305139236E+03  0.59305139236E+03  0.00000000000E+00 0.  1.
          1   -1    0    0  501    0  0.00000000000E+00 -0.00000000000E+00 -0.24754834569E+02  0.24754834569E+02  0.00000000000E+00 0. -1.
         23    2    1    2    0    0  0.51035381289E+02 -0.55780767490E+01  0.36257158289E+03  0.38694249408E+03  0.12502246168E+03 0.  0.
          5    1    3    3  502    0 -0.15283342564E+02  0.28834235757E+02  0.24733976303E+03  0.24952763792E+03  0.47000000000E+01 0. -1.
         -5    1    3    3    0  502  0.66318723853E+02 -0.34412312506E+02  0.11523181985E+03  0.13741485616E+03  0.47000000000E+01 0. -1.
        -11    1    1    2    0    0 -0.22946346407E+02 -0.40584988772E+02  0.63958905227E+02  0.79148074423E+02  0.00000000000E+00 0. -1.
         11    1    1    2    0    0 -0.28089034882E+02  0.46163065521E+02  0.14176606968E+03  0.15171565842E+03  0.00000000000E+00 0.  1.
<mgrwt>
<rscale>  0 0.12681522E+03</rscale>
<asrwt>0</asrwt>
<pdfrwt beam="2">  1        1 0.38084365E-02 0.13515303E+03</pdfrwt>
<pdfrwt beam="1">  1       -1 0.91238665E-01 0.13515303E+03</pdfrwt>
<totfact> 0.28966512E+03</totfact>
</mgrwt>
</event>
<event>
 7    1  0.6387485E-006  0.1261962E+03  0.7546771E-02  0.1247393E+00
         -1   -1    0    0    0  501 -0.00000000000E+00  0.00000000000E+00  0.60440648667E+02  0.60440648667E+02  0.00000000000E+00 0.  1.
          1   -1    0    0  501    0  0.00000000000E+00 -0.00000000000E+00 -0.20341173611E+03  0.20341173611E+03  0.00000000000E+00 0. -1.
         23    2    1    2    0    0  0.12613500921E+02  0.11655183195E+02 -0.69637225205E+02  0.14413472042E+03  0.12502212122E+03 0.  0.
          5    1    3    3  502    0 -0.20126400077E+02 -0.48786013142E+02 -0.12045641348E+02  0.54335389332E+02  0.47000000000E+01 0. -1.
         -5    1    3    3    0  502  0.32739900998E+02  0.60441196337E+02 -0.57591583858E+02  0.89799331085E+02  0.47000000000E+01 0. -1.
        -11    1    1    2    0    0  0.89095697945E+00 -0.16320599007E+02 -0.93547304675E+02  0.94964487932E+02  0.00000000000E+00 0. -1.
         11    1    1    2    0    0 -0.13504457900E+02  0.46654158121E+01  0.20213442440E+02  0.24753176426E+02  0.00000000000E+00 0.  1.
<mgrwt>
<rscale>  0 0.11743285E+03</rscale>
<asrwt>0</asrwt>
<pdfrwt beam="2">  1        1 0.31294113E-01 0.12619617E+03</pdfrwt>
<pdfrwt beam="1">  1       -1 0.92985613E-02 0.12619617E+03</pdfrwt>
<totfact> 0.91975855E+03</totfact>
</mgrwt>
</event>
<event>
 7    1  0.6387485E-006  0.1477155E+03  0.7546771E-02  0.1212190E+00
          1   -1    0    0  501    0  0.00000000000E+00  0.00000000000E+00  0.38937205301E+03  0.38937205301E+03  0.00000000000E+00 0. -1.
         -1   -1    0    0    0  501 -0.00000000000E+00 -0.00000000000E+00 -0.49011839078E+02  0.49011839078E+02  0.00000000000E+00 0.  1.
         23    2    1    2    0    0 -0.67673916456E+02 -0.40193907776E+02  0.13864736391E+03  0.20259064433E+03  0.12499827383E+03 0.  0.
          5    1    3    3  502    0 -0.37167672857E+02  0.36332654777E+02  0.15661312445E+02  0.54487286740E+02  0.47000000000E+01 0. -1.
         -5    1    3    3    0  502 -0.30506243599E+02 -0.76526562553E+02  0.12298605147E+03  0.14810335759E+03  0.47000000000E+01 0. -1.
        -11    1    1    2    0    0 -0.10847795335E+02  0.15592037986E+02  0.11381855704E+03  0.11539259179E+03  0.00000000000E+00 0. -1.
         11    1    1    2    0    0  0.78521711791E+02  0.24601869790E+02  0.87894292977E+02  0.12040065597E+03  0.00000000000E+00 0.  1.
<mgrwt>
<rscale>  0 0.14084963E+03</rscale>
<asrwt>0</asrwt>
<pdfrwt beam="1">  1        1 0.59903391E-01 0.14771553E+03</pdfrwt>
<pdfrwt beam="2">  1       -1 0.75402832E-02 0.14771553E+03</pdfrwt>
<totfact> 0.57003454E+03</totfact>
</mgrwt>
</event>
<event>
 7    1  0.6387485E-006  0.1505864E+03  0.7546771E-02  0.1205724E+00
          1   -1    0    0  501    0  0.00000000000E+00  0.00000000000E+00  0.90439341720E+02  0.90439341720E+02  0.00000000000E+00 0. -1.
         -1   -1    0    0    0  501 -0.00000000000E+00 -0.00000000000E+00 -0.26774389596E+03  0.26774389596E+03  0.00000000000E+00 0.  1.
         23    2    1    2    0    0 -0.41050424491E+02  0.73249632269E+02 -0.16783669056E+03  0.22548925633E+03  0.12500241615E+03 0.  0.
          5    1    3    3  502    0 -0.29979351399E+02  0.83383848946E+02 -0.41117157451E+02  0.97797435611E+02  0.47000000000E+01 0.  1.
         -5    1    3    3    0  502 -0.11071073091E+02 -0.10134216676E+02 -0.12671953311E+03  0.12769182072E+03  0.47000000000E+01 0.  1.
        -11    1    1    2    0    0  0.34991878129E+02  0.16231381735E+02 -0.18071092134E+02  0.42596404296E+02  0.00000000000E+00 0.  1.
         11    1    1    2    0    0  0.60585463614E+01 -0.89481014005E+02  0.86032284523E+01  0.90097577055E+02  0.00000000000E+00 0. -1.
<mgrwt>
<rscale>  0 0.14580585E+03</rscale>
<asrwt>0</asrwt>
<pdfrwt beam="1">  1        1 0.13913745E-01 0.15058635E+03</pdfrwt>
<pdfrwt beam="2">  1       -1 0.41191369E-01 0.15058635E+03</pdfrwt>
<totfact> 0.23498595E+03</totfact>
</mgrwt>
</event>
<event>
 7    1  0.6387485E-006  0.1251544E+03  0.7546771E-02  0.1254667E+00
         -1   -1    0    0    0  501 -0.00000000000E+00  0.00000000000E+00  0.45416291526E+02  0.45416291526E+02  0.00000000000E+00 0.  1.
          1   -1    0    0  501    0  0.00000000000E+00 -0.00000000000E+00 -0.28784673528E+03  0.28784673528E+03  0.00000000000E+00 0. -1.
         23    2    1    2    0    0 -0.61006385979E+01  0.74291903434E+00 -0.74799068280E+02  0.14580306925E+03  0.12500345862E+03 0.  0.
          5    1    3    3  502    0  0.38504072587E+02  0.40564548759E+02 -0.63536314615E+02  0.84776172930E+02  0.47000000000E+01 0.  1.
         -5    1    3    3    0  502 -0.44604711184E+02 -0.39821629725E+02 -0.11262753665E+02  0.61026896316E+02  0.47000000000E+01 0.  1.
        -11    1    1    2    0    0 -0.80849057630E+01 -0.40585741853E+02 -0.89910792071E+02  0.98977364451E+02  0.00000000000E+00 0.  1.
         11    1    1    2    0    0  0.14185544361E+02  0.39842822818E+02 -0.77720583407E+02  0.88482593113E+02  0.00000000000E+00 0. -1.
<mgrwt>
<rscale>  0 0.11325012E+03</rscale>
<asrwt>0</asrwt>
<pdfrwt beam="2">  1        1 0.44284114E-01 0.12515444E+03</pdfrwt>
<pdfrwt beam="1">  1       -1 0.69871216E-02 0.12515444E+03</pdfrwt>
<totfact> 0.92084759E+03</totfact>
</mgrwt>
</event>
<event>
 7    1  0.6387485E-006  0.1254322E+03  0.7546771E-02  0.1249268E+00
         -2   -1    0    0    0  501 -0.00000000000E+00  0.00000000000E+00  0.99270803405E+02  0.99270803405E+02  0.00000000000E+00 0.  1.
          2   -1    0    0  501    0  0.00000000000E+00 -0.00000000000E+00 -0.12092504525E+03  0.12092504525E+03  0.00000000000E+00 0. -1.
         23    2    1    2    0    0 -0.10259544873E+02  0.20487962291E+01 -0.26763925890E+01  0.12546079221E+03  0.12499516581E+03 0.  0.
          5    1    3    3  502    0  0.21128982601E+02  0.54841051287E+02 -0.18627293118E+02  0.61830743655E+02  0.47000000000E+01 0.  1.
         -5    1    3    3    0  502 -0.31388527474E+02 -0.52792255058E+02  0.15950900529E+02  0.63630048552E+02  0.47000000000E+01 0.  1.
        -11    1    1    2    0    0 -0.20348914019E+02 -0.34966032913E+02  0.94573418920E+01  0.41546878042E+02  0.00000000000E+00 0.  1.
         11    1    1    2    0    0  0.30608458892E+02  0.32917236684E+02 -0.28435191151E+02  0.53188178409E+02  0.00000000000E+00 0. -1.
<mgrwt>
<rscale>  0 0.11633519E+03</rscale>
<asrwt>0</asrwt>
<pdfrwt beam="2">  1        2 0.18603853E-01 0.12543224E+03</pdfrwt>
<pdfrwt beam="1">  1       -2 0.15272431E-01 0.12543224E+03</pdfrwt>
<totfact> 0.93863325E+03</totfact>
</mgrwt>
</event>
<event>
 7    1  0.6387485E-006  0.1315215E+03  0.7546771E-02  0.1239141E+00
         -1   -1    0    0    0  501 -0.00000000000E+00  0.00000000000E+00  0.56581517019E+02  0.56581517019E+02  0.00000000000E+00 0.  1.
          1   -1    0    0  501    0  0.00000000000E+00 -0.00000000000E+00 -0.23430608400E+03  0.23430608400E+03  0.00000000000E+00 0. -1.
         23    2    1    2    0    0  0.40624324658E+02 -0.48014883915E+01 -0.10227365199E+03  0.16660673056E+03  0.12499805092E+03 0.  0.
          5    1    3    3  502    0 -0.60857320121E+01  0.22904971621E+02 -0.10903231746E+03  0.11167725869E+03  0.47000000000E+01 0.  1.
         -5    1    3    3    0  502  0.46710056670E+02 -0.27706460013E+02  0.67586654716E+01  0.54929471866E+02  0.47000000000E+01 0.  1.
        -11    1    1    2    0    0 -0.47445389157E+02 -0.20025818237E+02 -0.82797012266E+02  0.97506120774E+02  0.00000000000E+00 0. -1.
         11    1    1    2    0    0  0.68210644992E+01  0.24827306628E+02  0.73460972752E+01  0.26774749681E+02  0.00000000000E+00 0.  1.
<mgrwt>
<rscale>  0 0.12243039E+03</rscale>
<asrwt>0</asrwt>
<pdfrwt beam="2">  1        1 0.36047089E-01 0.13152149E+03</pdfrwt>
<pdfrwt beam="1">  1       -1 0.87048489E-02 0.13152149E+03</pdfrwt>
<totfact> 0.85602845E+03</totfact>
</mgrwt>
</event>
<event>
 7    1  0.6387485E-006  0.2064373E+03  0.7546771E-02  0.1148429E+00
         -3   -1    0    0    0  501 -0.00000000000E+00  0.00000000000E+00  0.16400338561E+04  0.16400338561E+04  0.00000000000E+00 0.  1.
          3   -1    0    0  501    0  0.00000000000E+00 -0.00000000000E+00 -0.25128232532E+02  0.25128232532E+02  0.00000000000E+00 0. -1.
         23    2    1    2    0    0 -0.19142404179E+02  0.16316845526E+03  0.10441792004E+04  0.10643902244E+04  0.12500388336E+03 0.  0.
          5    1    3    3  502    0  0.48841745994E+02  0.31901837126E+02  0.29148683137E+03  0.29730439994E+03  0.47000000000E+01 0.  1.
         -5    1    3    3    0  502 -0.67984150173E+02  0.13126661813E+03  0.75269236902E+03  0.76708582446E+03  0.47000000000E+01 0.  1.
        -11    1    1    2    0    0 -0.18617439245E+02 -0.25869240365E+02  0.39306588929E+02  0.50604689252E+02  0.00000000000E+00 0. -1.
         11    1    1    2    0    0  0.37759843424E+02 -0.13729921490E+03  0.53141983427E+03  0.55016717499E+03  0.00000000000E+00 0.  1.
<mgrwt>
<rscale>  0 0.20156082E+03</rscale>
<asrwt>0</asrwt>
<pdfrwt beam="2">  1        3 0.38658832E-02 0.20643727E+03</pdfrwt>
<pdfrwt beam="1">  1       -3 0.25231282E+00 0.20643727E+03</pdfrwt>
<totfact> 0.67328090E+01</totfact>
</mgrwt>
</event>
<event>
 7    1  0.6387485E-006  0.1351496E+03  0.7546771E-02  0.1232761E+00
         -3   -1    0    0    0  501 -0.00000000000E+00  0.00000000000E+00  0.40437304823E+03  0.40437304823E+03  0.00000000000E+00 0.  1.
          3   -1    0    0  501    0  0.00000000000E+00 -0.00000000000E+00 -0.52458052916E+02  0.52458052916E+02  0.00000000000E+00 0. -1.
         23    2    1    2    0    0 -0.19503566818E+02  0.47535598479E+02  0.32152503513E+03  0.34877464973E+03  0.12500154334E+03 0.  0.
          5    1    3    3  502    0 -0.20708827063E+01  0.14361900183E+02 -0.79099573465E+01  0.17181680863E+02  0.47000000000E+01 0. -1.
         -5    1    3    3    0  502 -0.17432684111E+02  0.33173698296E+02  0.32943499248E+03  0.33159296887E+03  0.47000000000E+01 0. -1.
        -11    1    1    2    0    0  0.27316256230E+02  0.95719689365E+01  0.40252897999E+02  0.49579191614E+02  0.00000000000E+00 0.  1.
         11    1    1    2    0    0 -0.78126894128E+01 -0.57107567416E+02 -0.98629378120E+01  0.58477259805E+02  0.00000000000E+00 0. -1.
<mgrwt>
<rscale>  0 0.12648832E+03</rscale>
<asrwt>0</asrwt>
<pdfrwt beam="2">  1        3 0.80704700E-02 0.13514958E+03</pdfrwt>
<pdfrwt beam="1">  1       -3 0.62211236E-01 0.13514958E+03</pdfrwt>
<totfact> 0.62112830E+02</totfact>
</mgrwt>
</event>
<event>
 7    1  0.6387485E-006  0.1974392E+03  0.7546771E-02  0.1155943E+00
         -2   -1    0    0    0  501 -0.00000000000E+00  0.00000000000E+00  0.12224802012E+03  0.12224802012E+03  0.00000000000E+00 0.  1.
          2   -1    0    0  501    0  0.00000000000E+00 -0.00000000000E+00 -0.36103553326E+03  0.36103553326E+03  0.00000000000E+00 0. -1.
         23    2    1    2    0    0 -0.24503436882E+01 -0.15280676331E+03 -0.17392258185E+02  0.19820379568E+03  0.12500537141E+03 0.  0.
          5    1    3    3  502    0  0.14571745483E+02 -0.10517769486E+03 -0.68258280169E+02  0.12631692711E+03  0.47000000000E+01 0. -1.
         -5    1    3    3    0  502 -0.17022089171E+02 -0.47629068452E+02  0.50866021984E+02  0.71886868577E+02  0.47000000000E+01 0. -1.
        -11    1    1    2    0    0  0.21619328195E+02  0.10984642180E+03 -0.20792014228E+03  0.23614490742E+03  0.00000000000E+00 0. -1.
         11    1    1    2    0    0 -0.19168984507E+02  0.42960341512E+02 -0.13475112670E+02  0.48934850273E+02  0.00000000000E+00 0.  1.
<mgrwt>
<rscale>  0 0.19281867E+03</rscale>
<asrwt>0</asrwt>
<pdfrwt beam="2">  1        2 0.55543927E-01 0.19743924E+03</pdfrwt>
<pdfrwt beam="1">  1       -2 0.18807388E-01 0.19743924E+03</pdfrwt>
<totfact> 0.20650935E+03</totfact>
</mgrwt>
</event>
<event>
 7    1  0.6387485E-006  0.1575128E+03  0.7546771E-02  0.1199288E+00
          1   -1    0    0  501    0  0.00000000000E+00  0.00000000000E+00  0.45609545866E+03  0.45609545866E+03  0.00000000000E+00 0. -1.
         -1   -1    0    0    0  501 -0.00000000000E+00 -0.00000000000E+00 -0.48175633842E+02  0.48175633842E+02  0.00000000000E+00 0.  1.
         23    2    1    2    0    0  0.16031123719E+02  0.94507936486E+02  0.27094983794E+03  0.31340724476E+03  0.12498615684E+03 0.  0.
          5    1    3    3  502    0 -0.41694500139E+02  0.14616326766E+02  0.31623042462E+02  0.54535998794E+02  0.47000000000E+01 0. -1.
         -5    1    3    3    0  502  0.57725623857E+02  0.79891609720E+02  0.23932679548E+03  0.25887124597E+03  0.47000000000E+01 0. -1.
        -11    1    1    2    0    0 -0.50068295339E+02 -0.26828499192E+02  0.51777240043E+02  0.76860166234E+02  0.00000000000E+00 0. -1.
         11    1    1    2    0    0  0.34037171620E+02 -0.67679437294E+02  0.85192746833E+02  0.11400368151E+03  0.00000000000E+00 0.  1.
<mgrwt>
<rscale>  0 0.15096840E+03</rscale>
<asrwt>0</asrwt>
<pdfrwt beam="1">  1        1 0.70168529E-01 0.15751281E+03</pdfrwt>
<pdfrwt beam="2">  1       -1 0.74116363E-02 0.15751281E+03</pdfrwt>
<totfact> 0.47988405E+03</totfact>
</mgrwt>
</event>
<event>
 7    1  0.6387485E-006  0.1337011E+03  0.7546771E-02  0.1234567E+00
         -2   -1    0    0    0  501 -0.00000000000E+00  0.00000000000E+00  0.92515888589E+02  0.92515888589E+02  0.00000000000E+00 0.  1.
          2   -1    0    0  501    0  0.00000000000E+00 -0.00000000000E+00 -0.15191824753E+03  0.15191824753E+03  0.00000000000E+00 0. -1.
         23    2    1    2    0    0  0.84625745520E+01  0.46679276275E+02 -0.38487140660E+02  0.13913036034E+03  0.12500170867E+03 0.  0.
          5    1    3    3  502    0 -0.37605035707E+02  0.71450503993E+02 -0.18718043159E+02  0.83016675259E+02  0.47000000000E+01 0. -1.
         -5    1    3    3    0  502  0.46067610259E+02 -0.24771227719E+02 -0.19769097501E+02  0.56113685084E+02  0.47000000000E+01 0. -1.
        -11    1    1    2    0    0  0.13397319173E+02 -0.56286641701E+02 -0.43538508425E+02  0.72410468241E+02  0.00000000000E+00 0. -1.
         11    1    1    2    0    0 -0.21859893725E+02  0.96073654263E+01  0.22623290140E+02  0.32893307539E+02  0.00000000000E+00 0.  1.
<mgrwt>
<rscale>  0 0.12532202E+03</rscale>
<asrwt>0</asrwt>
<pdfrwt beam="2">  1        2 0.23372038E-01 0.13370115E+03</pdfrwt>
<pdfrwt beam="1">  1       -2 0.14233214E-01 0.13370115E+03</pdfrwt>
<totfact> 0.81884393E+03</totfact>
</mgrwt>
</event>
<event>
 7    1  0.6387485E-006  0.1301164E+03  0.7546771E-02  0.1241959E+00
         -1   -1    0    0    0  501 -0.00000000000E+00  0.00000000000E+00  0.16707241051E+02  0.16707241051E+02  0.00000000000E+00 0. -1.
          1   -1    0    0  501    0  0.00000000000E+00 -0.00000000000E+00 -0.77850589711E+03  0.77850589711E+03  0.00000000000E+00 0.  1.
         23    2    1    2    0    0  0.35352259283E+02 -0.72492092050E+01 -0.38962901553E+03  0.41078101056E+03  0.12501174192E+03 0.  0.
          5    1    3    3  502    0  0.71118627840E+02 -0.21391433710E+02 -0.14376361733E+03  0.16188119202E+03  0.47000000000E+01 0. -1.
         -5    1    3    3    0  502 -0.35766368557E+02  0.14142224505E+02 -0.24586539820E+03  0.24889981854E+03  0.47000000000E+01 0. -1.
        -11    1    1    2    0    0 -0.61094227570E+02 -0.13948710920E+02 -0.25718682657E+03  0.26471141823E+03  0.00000000000E+00 0.  1.
         11    1    1    2    0    0  0.25741968287E+02  0.21197920125E+02 -0.11498281396E+03  0.11972070938E+03  0.00000000000E+00 0. -1.
<mgrwt>
<rscale>  0 0.12069233E+03</rscale>
<asrwt>0</asrwt>
<pdfrwt beam="2">  1        1 0.11977011E+00 0.13011637E+03</pdfrwt>
<pdfrwt beam="1">  1       -1 0.25703455E-02 0.13011637E+03</pdfrwt>
<totfact> 0.10887709E+04</totfact>
</mgrwt>
</event>
<event>
 7    1  0.6387485E-006  0.1341872E+03  0.7546771E-02  0.1233894E+00
          1   -1    0    0  501    0  0.00000000000E+00  0.00000000000E+00  0.54598235470E+03  0.54598235470E+03  0.00000000000E+00 0. -1.
         -1   -1    0    0    0  501 -0.00000000000E+00 -0.00000000000E+00 -0.29681470138E+02  0.29681470138E+02  0.00000000000E+00 0.  1.
         23    2    1    2    0    0 -0.41695720988E+02 -0.25352272089E+02  0.18480260205E+03  0.22838172551E+03  0.12499975989E+03 0.  0.
          5    1    3    3  502    0  0.23648108469E+02 -0.38286767911E+02  0.14207249186E+03  0.14910329498E+03  0.47000000000E+01 0.  1.
         -5    1    3    3    0  502 -0.65343829457E+02  0.12934495822E+02  0.42730110193E+02  0.79278430531E+02  0.47000000000E+01 0.  1.
        -11    1    1    2    0    0  0.28562756885E+02 -0.28498927869E+02  0.78266939189E+02  0.88055287977E+02  0.00000000000E+00 0.  1.
         11    1    1    2    0    0  0.13132964102E+02  0.53851199958E+02  0.25323134332E+03  0.25922681135E+03  0.00000000000E+00 0. -1.
<mgrwt>
<rscale>  0 0.12575522E+03</rscale>
<asrwt>0</asrwt>
<pdfrwt beam="1">  1        1 0.83997278E-01 0.13418722E+03</pdfrwt>
<pdfrwt beam="2">  1       -1 0.45663804E-02 0.13418722E+03</pdfrwt>
<totfact> 0.77390406E+03</totfact>
</mgrwt>
</event>
<event>
 6    1  0.6387485E-006  0.2121475E+03  0.7546771E-02  0.1159219E+00
          2   -1    0    0  501    0  0.00000000000E+00  0.00000000000E+00  0.49604474926E+03  0.49604474926E+03  0.00000000000E+00 0. -1.
         -2   -1    0    0    0  501 -0.00000000000E+00 -0.00000000000E+00 -0.10731757100E+03  0.10731757100E+03  0.00000000000E+00 0.  1.
          5    1    1    2  502    0  0.30685122734E+02 -0.67279332036E+02  0.10157877400E+03  0.12573154975E+03  0.47000000000E+01 0. -1.
         -5    1    1    2    0  502  0.36682403264E+02 -0.70436624326E+01 -0.79101511876E+02  0.87603373627E+02  0.47000000000E+01 0.  1.
        -11    1    1    2    0    0 -0.82158107967E+02  0.34156352753E+02  0.27899470045E+03  0.29283895577E+03  0.00000000000E+00 0. -1.
         11    1    1    2    0    0  0.14790581968E+02  0.40166641716E+02  0.87255215682E+02  0.97188441110E+02  0.00000000000E+00 0.  1.
<mgrwt>
<rscale>  0 0.18916218E+03</rscale>
<asrwt>0</asrwt>
<pdfrwt beam="1">  1        2 0.76314575E-01 0.21214750E+03</pdfrwt>
<pdfrwt beam="2">  1       -2 0.16510396E-01 0.21214750E+03</pdfrwt>
<totfact> 0.18200924E+03</totfact>
</mgrwt>
</event>
<event>
 7    1  0.6387485E-006  0.1499235E+03  0.7546771E-02  0.1210996E+00
          2   -1    0    0  501    0  0.00000000000E+00  0.00000000000E+00  0.21092703536E+03  0.21092703536E+03  0.00000000000E+00 0. -1.
         -2   -1    0    0    0  501 -0.00000000000E+00 -0.00000000000E+00 -0.94820933765E+02  0.94820933765E+02  0.00000000000E+00 0.  1.
         23    2    1    2    0    0 -0.79725477149E+02 -0.22226954153E+02  0.18190974101E+02  0.15102305448E+03  0.12500744877E+03 0.  0.
          5    1    3    3  502    0 -0.10020072866E+03  0.19481072936E+02  0.20680645536E+02  0.10425678552E+03  0.47000000000E+01 0.  1.
         -5    1    3    3    0  502  0.20475251514E+02 -0.41708027089E+02 -0.24896714345E+01  0.46766268956E+02  0.47000000000E+01 0.  1.
        -11    1    1    2    0    0  0.39581623125E+02 -0.20642640101E+02  0.51583770020E+01  0.44938094450E+02  0.00000000000E+00 0.  1.
         11    1    1    2    0    0  0.40143854024E+02  0.42869594254E+02  0.92756750493E+02  0.10978682020E+03  0.00000000000E+00 0. -1.
<mgrwt>
<rscale>  0 0.14174832E+03</rscale>
<asrwt>0</asrwt>
<pdfrwt beam="1">  1        2 0.32450313E-01 0.14992349E+03</pdfrwt>
<pdfrwt beam="2">  1       -2 0.14587836E-01 0.14992349E+03</pdfrwt>
<totfact> 0.55365009E+03</totfact>
</mgrwt>
</event>
<event>
 7    1  0.6387485E-006  0.1289230E+03  0.7546771E-02  0.1245010E+00
          2   -1    0    0  501    0  0.00000000000E+00  0.00000000000E+00  0.64488776099E+02  0.64488776099E+02  0.00000000000E+00 0. -1.
         -2   -1    0    0    0  501 -0.00000000000E+00 -0.00000000000E+00 -0.20405177587E+03  0.20405177587E+03  0.00000000000E+00 0.  1.
         23    2    1    2    0    0 -0.30291542114E+02  0.88040411681E+01 -0.11373102940E+03  0.17191828475E+03  0.12500424360E+03 0.  0.
          5    1    3    3  502    0 -0.25390876312E+01  0.43214622877E+01 -0.13573608634E+03  0.13590988609E+03  0.47000000000E+01 0.  1.
         -5    1    3    3    0  502 -0.27752454483E+02  0.44825788804E+01  0.22005056940E+02  0.36008398661E+02  0.47000000000E+01 0.  1.
        -11    1    1    2    0    0  0.46319072327E+02 -0.28944696208E+02  0.68217467174E+01  0.55043511226E+02  0.00000000000E+00 0. -1.
         11    1    1    2    0    0 -0.16027530213E+02  0.20140655040E+02 -0.32653717094E+02  0.41578755997E+02  0.00000000000E+00 0.  1.
<mgrwt>
<rscale>  0 0.11884785E+03</rscale>
<asrwt>0</asrwt>
<pdfrwt beam="1">  1        2 0.99213502E-02 0.12892304E+03</pdfrwt>
<pdfrwt beam="2">  1       -2 0.31392581E-01 0.12892304E+03</pdfrwt>
<totfact> 0.57518931E+03</totfact>
</mgrwt>
</event>
<event>
 7    1  0.6387485E-006  0.1278741E+03  0.7546771E-02  0.1243803E+00
          1   -1    0    0  501    0  0.00000000000E+00  0.00000000000E+00  0.46115031157E+02  0.46115031157E+02  0.00000000000E+00 0. -1.
         -1   -1    0    0    0  501 -0.00000000000E+00 -0.00000000000E+00 -0.31644693254E+03  0.31644693254E+03  0.00000000000E+00 0.  1.
         23    2    1    2    0    0 -0.65697212768E+01  0.26129460927E+02 -0.21519090548E+03  0.25031762661E+03  0.12500351366E+03 0.  0.
          5    1    3    3  502    0  0.48111672108E+02  0.34288709593E+02 -0.16565087992E+03  0.17593394391E+03  0.47000000000E+01 0. -1.
         -5    1    3    3    0  502 -0.54681393385E+02 -0.81592486652E+01 -0.49540025551E+02  0.74383682705E+02  0.47000000000E+01 0. -1.
        -11    1    1    2    0    0  0.27520076622E+02 -0.19659138940E+02  0.16278780856E+02  0.37534451738E+02  0.00000000000E+00 0. -1.
         11    1    1    2    0    0 -0.20950355345E+02 -0.64703219875E+01 -0.71419776758E+02  0.74709885343E+02  0.00000000000E+00 0.  1.
<mgrwt>
<rscale>  0 0.11957333E+03</rscale>
<asrwt>0</asrwt>
<pdfrwt beam="1">  1        1 0.70946202E-02 0.12787411E+03</pdfrwt>
<pdfrwt beam="2">  1       -1 0.48684143E-01 0.12787411E+03</pdfrwt>
<totfact> 0.42208029E+03</totfact>
</mgrwt>
</event>
<event>
 7    1  0.6387485E-006  0.2922757E+03  0.7546771E-02  0.1090999E+00
          1   -1    0    0  501    0  0.00000000000E+00  0.00000000000E+00  0.35172238946E+03  0.35172238946E+03  0.00000000000E+00 0. -1.
         -1   -1    0    0    0  501 -0.00000000000E+00 -0.00000000000E+00 -0.34770304761E+03  0.34770304761E+03  0.00000000000E+00 0.  1.
         23    2    1    2    0    0 -0.12442069808E+03 -0.23306559730E+03 -0.20006124385E+03  0.35418860686E+03  0.12499994074E+03 0.  0.
          5    1    3    3  502    0 -0.63397951274E+02 -0.48989610103E+02 -0.70929169237E+01  0.80570972405E+02  0.47000000000E+01 0.  1.
         -5    1    3    3    0  502 -0.61022746808E+02 -0.18407598719E+03 -0.19296832692E+03  0.27361763445E+03  0.47000000000E+01 0.  1.
        -11    1    1    2    0    0  0.49734217349E+02  0.17078026832E+03  0.10573701367E+03  0.20692923545E+03  0.00000000000E+00 0.  1.
         11    1    1    2    0    0  0.74686480732E+02  0.62285328974E+02  0.98343572022E+02  0.13830759476E+03  0.00000000000E+00 0. -1.
<mgrwt>
<rscale>  0 0.28875860E+03</rscale>
<asrwt>0</asrwt>
<pdfrwt beam="1">  1        1 0.54111137E-01 0.29227567E+03</pdfrwt>
<pdfrwt beam="2">  1       -1 0.53492777E-01 0.29227567E+03</pdfrwt>
<totfact> 0.26043317E+02</totfact>
</mgrwt>
</event>
<event>
 6    1  0.6387485E-006  0.1383431E+03  0.7546771E-02  0.1236241E+00
         -1   -1    0    0    0  501 -0.00000000000E+00  0.00000000000E+00  0.17576281175E+03  0.17576281175E+03  0.00000000000E+00 0.  1.
          1   -1    0    0  501    0  0.00000000000E+00 -0.00000000000E+00 -0.89882290027E+02  0.89882290027E+02  0.00000000000E+00 0. -1.
          5    1    1    2  502    0 -0.17488209264E+02 -0.29793264273E+02 -0.23431312306E+02  0.42007052452E+02  0.47000000000E+01 0. -1.
         -5    1    1    2    0  502  0.10601561456E+02  0.26751437953E+02  0.12835279471E+03  0.13162280367E+03  0.47000000000E+01 0.  1.
        -11    1    1    2    0    0  0.30909066661E+02  0.29771017057E+02 -0.32297435837E+02  0.53710410724E+02  0.00000000000E+00 0.  1.
         11    1    1    2    0    0 -0.24022418853E+02 -0.26729190737E+02  0.13256475156E+02  0.38304834924E+02  0.00000000000E+00 0. -1.
<mgrwt>
<rscale>  0 0.12425308E+03</rscale>
<asrwt>0</asrwt>
<pdfrwt beam="2">  1        1 0.13828045E-01 0.13834309E+03</pdfrwt>
<pdfrwt beam="1">  1       -1 0.27040432E-01 0.13834309E+03</pdfrwt>
<totfact> 0.48409963E+03</totfact>
</mgrwt>
</event>
<event>
 7    1  0.6387485E-006  0.2673509E+03  0.7546771E-02  0.1104883E+00
         -2   -1    0    0    0  501 -0.00000000000E+00  0.00000000000E+00  0.45465939240E+02  0.45465939240E+02  0.00000000000E+00 0. -1.
          2   -1    0    0  501    0  0.00000000000E+00 -0.00000000000E+00 -0.16069846210E+04  0.16069846210E+04  0.00000000000E+00 0.  1.
         23    2    1    2    0    0 -0.23311048753E+03 -0.38889181073E+02 -0.57845700887E+03  0.63725112051E+03  0.12499444658E+03 0.  0.
          5    1    3    3  502    0 -0.11495006466E+03  0.26865241080E+02 -0.17041920516E+03  0.20736454381E+03  0.47000000000E+01 0. -1.
         -5    1    3    3    0  502 -0.11816042287E+03 -0.65754422154E+02 -0.40803780371E+03  0.42988657670E+03  0.47000000000E+01 0. -1.
        -11    1    1    2    0    0  0.12616983842E+03 -0.25019674806E+02 -0.47883793253E+03  0.49581304731E+03  0.00000000000E+00 0. -1.
         11    1    1    2    0    0  0.10694064911E+03  0.63908855880E+02 -0.50422374038E+03  0.51938639245E+03  0.00000000000E+00 0.  1.
<mgrwt>
<rscale>  0 0.26379689E+03</rscale>
<asrwt>0</asrwt>
<pdfrwt beam="2">  1        2 0.24722841E+00 0.26735085E+03</pdfrwt>
<pdfrwt beam="1">  1       -2 0.69947597E-02 0.26735085E+03</pdfrwt>
<totfact> 0.13970348E+03</totfact>
</mgrwt>
</event>
<event>
 7    1  0.6387485E-006  0.1261457E+03  0.7546771E-02  0.1247775E+00
          1   -1    0    0  501    0  0.00000000000E+00  0.00000000000E+00  0.72497108740E+03  0.72497108740E+03  0.00000000000E+00 0. -1.
         -1   -1    0    0    0  501 -0.00000000000E+00 -0.00000000000E+00 -0.17053231603E+02  0.17053231603E+02  0.00000000000E+00 0.  1.
         23    2    1    2    0    0  0.38486958530E+01 -0.16530067207E+02  0.35289939882E+03  0.37476754264E+03  0.12499867900E+03 0.  0.
          5    1    3    3  502    0 -0.12375215483E+02 -0.59274515919E+02  0.29320655479E+03  0.29943077325E+03  0.47000000000E+01 0.  1.
         -5    1    3    3    0  502  0.16223911336E+02  0.42744448712E+02  0.59692844025E+02  0.75336769393E+02  0.47000000000E+01 0.  1.
        -11    1    1    2    0    0 -0.12131452447E+02  0.53220682010E+02  0.17358160289E+03  0.18196204547E+03  0.00000000000E+00 0.  1.
         11    1    1    2    0    0  0.82827565938E+01 -0.36690614803E+02  0.18143685409E+03  0.18529473088E+03  0.00000000000E+00 0. -1.
<mgrwt>
<rscale>  0 0.11720801E+03</rscale>
<asrwt>0</asrwt>
<pdfrwt beam="1">  1        1 0.11153399E+00 0.12614565E+03</pdfrwt>
<pdfrwt beam="2">  1       -1 0.26235747E-02 0.12614565E+03</pdfrwt>
<totfact> 0.11706361E+04</totfact>
</mgrwt>
</event>
<event>
 7    1  0.6387485E-006  0.1999661E+03  0.7546771E-02  0.1153858E+00
         -2   -1    0    0    0  501 -0.00000000000E+00  0.00000000000E+00  0.25673891512E+03  0.25673891512E+03  0.00000000000E+00 0. -1.
          2   -1    0    0  501    0  0.00000000000E+00 -0.00000000000E+00 -0.14177464865E+03  0.14177464865E+03  0.00000000000E+00 0.  1.
         23    2    1    2    0    0 -0.12627975014E+03 -0.91733796170E+02  0.63614674389E+02  0.20984101602E+03  0.12499904220E+03 0.  0.
          5    1    3    3  502    0 -0.57288231163E+01 -0.22020805812E+02 -0.32947566208E+02  0.40315845792E+02  0.47000000000E+01 0. -1.
         -5    1    3    3    0  502 -0.12055092703E+03 -0.69712990358E+02  0.96562240597E+02  0.16952517023E+03  0.47000000000E+01 0. -1.
        -11    1    1    2    0    0  0.91824430410E+02  0.93902547127E+02  0.57296350475E+01  0.13146194542E+03  0.00000000000E+00 0.  1.
         11    1    1    2    0    0  0.34455319734E+02 -0.21687509568E+01  0.45619957038E+02  0.57210602329E+02  0.00000000000E+00 0. -1.
<mgrwt>
<rscale>  0 0.19519403E+03</rscale>
<asrwt>0</asrwt>
<pdfrwt beam="2">  1        2 0.21811484E-01 0.19996606E+03</pdfrwt>
<pdfrwt beam="1">  1       -2 0.39498295E-01 0.19996606E+03</pdfrwt>
<totfact> 0.15182079E+03</totfact>
</mgrwt>
</event>
<event>
 7    1  0.6387485E-006  0.2659866E+03  0.7546771E-02  0.1105684E+00
         -1   -1    0    0    0  501 -0.00000000000E+00  0.00000000000E+00  0.22015424788E+03  0.22015424788E+03  0.00000000000E+00 0.  1.
          1   -1    0    0  501    0  0.00000000000E+00 -0.00000000000E+00 -0.35284603344E+03  0.35284603344E+03  0.00000000000E+00 0. -1.
         23    2    1    2    0    0  0.15999949573E+03  0.17182126459E+03  0.37808505192E+02  0.26866025702E+03  0.12500586001E+03 0.  0.
          5    1    3    3  502    0 -0.19873730467E+02  0.22707985933E+02 -0.53854144120E+01  0.31011457176E+02  0.47000000000E+01 0.  1.
         -5    1    3    3    0  502  0.17987322620E+03  0.14911327866E+03  0.43193919604E+02  0.23764879984E+03  0.47000000000E+01 0.  1.
        -11    1    1    2    0    0 -0.14892188631E+03 -0.15733096319E+03 -0.18186236087E+03  0.28285098285E+03  0.00000000000E+00 0. -1.
         11    1    1    2    0    0 -0.11077609425E+02 -0.14490301403E+02  0.11362070115E+02  0.21489041454E+02  0.00000000000E+00 0.  1.
<mgrwt>
<rscale>  0 0.26244382E+03</rscale>
<asrwt>0</asrwt>
<pdfrwt beam="2">  1        1 0.54284005E-01 0.26598656E+03</pdfrwt>
<pdfrwt beam="1">  1       -1 0.33869884E-01 0.26598656E+03</pdfrwt>
<totfact> 0.59249627E+02</totfact>
</mgrwt>
</event>
<event>
 7    1  0.6387485E-006  0.1686078E+03  0.7546771E-02  0.1186034E+00
         -2   -1    0    0    0  501 -0.00000000000E+00  0.00000000000E+00  0.12558341429E+04  0.12558341429E+04  0.00000000000E+00 0.  1.
          2   -1    0    0  501    0  0.00000000000E+00 -0.00000000000E+00 -0.24727833443E+02  0.24727833443E+02  0.00000000000E+00 0. -1.
         23    2    1    2    0    0  0.93684934589E+02  0.63459256993E+02  0.94352593510E+03  0.95847262824E+03  0.12499857839E+03 0.  0.
          5    1    3    3  502    0  0.46232839020E+02  0.89288081647E+02  0.40905715748E+03  0.42125964086E+03  0.47000000000E+01 0.  1.
         -5    1    3    3    0  502  0.47452095569E+02 -0.25828824654E+02  0.53446877762E+03  0.53721298738E+03  0.47000000000E+01 0.  1.
        -11    1    1    2    0    0 -0.56819589992E+01  0.20656983898E+02  0.26940105637E+02  0.34420414489E+02  0.00000000000E+00 0. -1.
         11    1    1    2    0    0 -0.88002975590E+02 -0.84116240891E+02  0.26064026875E+03  0.28766893365E+03  0.00000000000E+00 0.  1.
<mgrwt>
<rscale>  0 0.16238151E+03</rscale>
<asrwt>0</asrwt>
<pdfrwt beam="2">  1        2 0.38042831E-02 0.16860780E+03</pdfrwt>
<pdfrwt beam="1">  1       -2 0.19320520E+00 0.16860780E+03</pdfrwt>
<totfact> 0.35789039E+02</totfact>
</mgrwt>
</event>
<event>
 7    1  0.6387485E-006  0.1996096E+03  0.7546771E-02  0.1154138E+00
          1   -1    0    0  501    0  0.00000000000E+00  0.00000000000E+00  0.64610769164E+03  0.64610769164E+03  0.00000000000E+00 0. -1.
         -1   -1    0    0    0  501 -0.00000000000E+00 -0.00000000000E+00 -0.60464543145E+02  0.60464543145E+02  0.00000000000E+00 0.  1.
         23    2    1    2    0    0 -0.14407295529E+03  0.58875620280E+02  0.21158772826E+03  0.29088374104E+03  0.12498251455E+03 0.  0.
          5    1    3    3  502    0 -0.14460119877E+03  0.10323594746E+02  0.18578090005E+03  0.23569623696E+03  0.47000000000E+01 0.  1.
         -5    1    3    3    0  502  0.52824347446E+00  0.48552025534E+02  0.25806828206E+02  0.55187504080E+02  0.47000000000E+01 0.  1.
        -11    1    1    2    0    0  0.16894844612E+02 -0.50289826003E+02  0.92747105923E+02  0.10684815408E+03  0.00000000000E+00 0.  1.
         11    1    1    2    0    0  0.12717811068E+03 -0.85857942764E+01  0.28130831431E+03  0.30884033966E+03  0.00000000000E+00 0. -1.
<mgrwt>
<rscale>  0 0.19487298E+03</rscale>
<asrwt>0</asrwt>
<pdfrwt beam="1">  1        1 0.99401179E-01 0.19960958E+03</pdfrwt>
<pdfrwt beam="2">  1       -1 0.93022378E-02 0.19960958E+03</pdfrwt>
<totfact> 0.21447273E+03</totfact>
</mgrwt>
</event>
<event>
 7    1  0.6387485E-006  0.1960494E+03  0.7546771E-02  0.1157509E+00
         -2   -1    0    0    0  501 -0.00000000000E+00  0.00000000000E+00  0.53455452219E+02  0.53455452219E+02  0.00000000000E+00 0.  1.
          2   -1    0    0  501    0  0.00000000000E+00 -0.00000000000E+00 -0.65076424888E+03  0.65076424888E+03  0.00000000000E+00 0. -1.
         23    2    1    2    0    0 -0.52958888784E+02  0.14145665713E+03 -0.32350302903E+03  0.37827185125E+03  0.12498301448E+03 0.  0.
          5    1    3    3  502    0 -0.68761264345E+02  0.13492872670E+03 -0.32682015004E+03  0.36023238782E+03  0.47000000000E+01 0.  1.
         -5    1    3    3    0  502  0.15802375561E+02  0.65279304306E+01  0.33171210068E+01  0.18039463430E+02  0.47000000000E+01 0.  1.
        -11    1    1    2    0    0  0.16741672913E+02 -0.13355463125E+03 -0.24283432628E+03  0.27764299588E+03  0.00000000000E+00 0. -1.
         11    1    1    2    0    0  0.36217215871E+02 -0.79020258790E+01 -0.30971441359E+02  0.48304853982E+02  0.00000000000E+00 0.  1.
<mgrwt>
<rscale>  0 0.19105982E+03</rscale>
<asrwt>0</asrwt>
<pdfrwt beam="2">  1        2 0.10011757E+00 0.19604944E+03</pdfrwt>
<pdfrwt beam="1">  1       -2 0.82239162E-02 0.19604944E+03</pdfrwt>
<totfact> 0.40895065E+03</totfact>
</mgrwt>
</event>
<event>
 7    1  0.6387485E-006  0.1471519E+03  0.7546771E-02  0.1216162E+00
          1   -1    0    0  501    0  0.00000000000E+00  0.00000000000E+00  0.84537281925E+02  0.84537281925E+02  0.00000000000E+00 0. -1.
         -1   -1    0    0    0  501 -0.00000000000E+00 -0.00000000000E+00 -0.24773872280E+03  0.24773872280E+03  0.00000000000E+00 0.  1.
         23    2    1    2    0    0  0.76125323697E+02 -0.15339367652E+02 -0.16182707246E+03  0.21872744373E+03  0.12499332843E+03 0.  0.
          5    1    3    3  502    0  0.97971286110E+02  0.25747142441E+01 -0.16278823442E+03  0.19007130588E+03  0.47000000000E+01 0.  1.
         -5    1    3    3    0  502 -0.21845962414E+02 -0.17914081896E+02  0.96116196043E+00  0.28656137846E+02  0.47000000000E+01 0.  1.
        -11    1    1    2    0    0 -0.66295793398E+02 -0.24332586424E+02  0.94970263635E+01  0.71255880417E+02  0.00000000000E+00 0.  1.
         11    1    1    2    0    0 -0.98295302990E+01  0.39671954076E+02 -0.10871394784E+02  0.42292680580E+02  0.00000000000E+00 0. -1.
<mgrwt>
<rscale>  0 0.13791514E+03</rscale>
<asrwt>0</asrwt>
<pdfrwt beam="1">  1        1 0.13005736E-01 0.14715194E+03</pdfrwt>
<pdfrwt beam="2">  1       -1 0.38113650E-01 0.14715194E+03</pdfrwt>
<totfact> 0.29378142E+03</totfact>
</mgrwt>
</event>
<event>
 7    1  0.6387485E-006  0.1510368E+03  0.7546771E-02  0.1202109E+00
          2   -1    0    0  501    0  0.00000000000E+00  0.00000000000E+00  0.43606947708E+03  0.43606947708E+03  0.00000000000E+00 0. -1.
         -2   -1    0    0    0  501 -0.00000000000E+00 -0.00000000000E+00 -0.50658528321E+02  0.50658528321E+02  0.00000000000E+00 0.  1.
         23    2    1    2    0    0  0.64513834500E+02  0.54997951622E+02  0.15686469639E+03  0.21775822072E+03  0.12500120076E+03 0.  0.
          5    1    3    3  502    0  0.63094502296E+02  0.92939801562E+02  0.12328901936E+03  0.16685621124E+03  0.47000000000E+01 0.  1.
         -5    1    3    3    0  502  0.14193322041E+01 -0.37941849939E+02  0.33575677035E+02  0.50902009479E+02  0.47000000000E+01 0.  1.
        -11    1    1    2    0    0 -0.50979914219E+02 -0.12178581059E+01  0.22761958240E+02  0.55843903651E+02  0.00000000000E+00 0.  1.
         11    1    1    2    0    0 -0.13533920281E+02 -0.53780093516E+02  0.20578429412E+03  0.21312588103E+03  0.00000000000E+00 0. -1.
<mgrwt>
<rscale>  0 0.14867646E+03</rscale>
<asrwt>0</asrwt>
<pdfrwt beam="1">  1        2 0.67087609E-01 0.15103678E+03</pdfrwt>
<pdfrwt beam="2">  1       -2 0.77936200E-02 0.15103678E+03</pdfrwt>
<totfact> 0.68849131E+03</totfact>
</mgrwt>
</event>
<event>
 7    1  0.6387485E-006  0.1273757E+03  0.7546771E-02  0.1246512E+00
         -3   -1    0    0    0  501 -0.00000000000E+00  0.00000000000E+00  0.36540378832E+02  0.36540378832E+02  0.00000000000E+00 0.  1.
          3   -1    0    0  501    0  0.00000000000E+00 -0.00000000000E+00 -0.33517717830E+03  0.33517717830E+03  0.00000000000E+00 0. -1.
         23    2    1    2    0    0 -0.19154015349E+02  0.15264954740E+02 -0.16255352433E+03  0.20651443355E+03  0.12499867139E+03 0.  0.
          5    1    3    3  502    0 -0.65511936720E+02 -0.19557715440E+02 -0.77269933561E+02  0.10328141516E+03  0.47000000000E+01 0. -1.
         -5    1    3    3    0  502  0.46357921371E+02  0.34822670179E+02 -0.85283590764E+02  0.10323301839E+03  0.47000000000E+01 0. -1.
        -11    1    1    2    0    0  0.10776514136E+02 -0.38516483223E+02 -0.16790531844E+02  0.43377121808E+02  0.00000000000E+00 0.  1.
         11    1    1    2    0    0  0.83775012131E+01  0.23251528483E+02 -0.11929274330E+03  0.12182600177E+03  0.00000000000E+00 0. -1.
<mgrwt>
<rscale>  0 0.11795353E+03</rscale>
<asrwt>0</asrwt>
<pdfrwt beam="2">  1        3 0.51565717E-01 0.12737568E+03</pdfrwt>
<pdfrwt beam="1">  1       -3 0.56215970E-02 0.12737568E+03</pdfrwt>
<totfact> 0.16135852E+03</totfact>
</mgrwt>
</event>
<event>
 7    1  0.6387485E-006  0.1339586E+03  0.7546771E-02  0.1235408E+00
          2   -1    0    0  501    0  0.00000000000E+00  0.00000000000E+00  0.31610190346E+03  0.31610190346E+03  0.00000000000E+00 0. -1.
         -2   -1    0    0    0  501 -0.00000000000E+00 -0.00000000000E+00 -0.60500162898E+02  0.60500162898E+02  0.00000000000E+00 0.  1.
         23    2    1    2    0    0 -0.17360942071E+02  0.44923191645E+02  0.42004433581E+02  0.14038976580E+03  0.12500167377E+03 0.  0.
          5    1    3    3  502    0  0.40724309315E+02 -0.20693345086E+02  0.10155417885E+02  0.47030909117E+02  0.47000000000E+01 0.  1.
         -5    1    3    3    0  502 -0.58085251385E+02  0.65616536731E+02  0.31849015696E+02  0.93358856687E+02  0.47000000000E+01 0.  1.
        -11    1    1    2    0    0 -0.37793387875E+00 -0.53563837224E+02  0.20926387350E+03  0.21601063920E+03  0.00000000000E+00 0. -1.
         11    1    1    2    0    0  0.17738875949E+02  0.86406455782E+01  0.43334334785E+01  0.20201661359E+02  0.00000000000E+00 0.  1.
<mgrwt>
<rscale>  0 0.12478321E+03</rscale>
<asrwt>0</asrwt>
<pdfrwt beam="1">  1        2 0.48631061E-01 0.13395863E+03</pdfrwt>
<pdfrwt beam="2">  1       -2 0.93077175E-02 0.13395863E+03</pdfrwt>
<totfact> 0.73124690E+03</totfact>
</mgrwt>
</event>
<event>
 7    1  0.6387485E-006  0.1753195E+03  0.7546771E-02  0.1178525E+00
          3   -1    0    0  501    0  0.00000000000E+00  0.00000000000E+00  0.10100260563E+04  0.10100260563E+04  0.00000000000E+00 0. -1.
         -3   -1    0    0    0  501 -0.00000000000E+00 -0.00000000000E+00 -0.27354939800E+02  0.27354939800E+02  0.00000000000E+00 0.  1.
         23    2    1    2    0    0  0.88782876625E+02 -0.85031362901E+02  0.43973038706E+03  0.47339175683E+03  0.12499684104E+03 0.  0.
          5    1    3    3  502    0  0.99374830289E+02 -0.10269958485E+03  0.30305168027E+03  0.33508949929E+03  0.47000000000E+01 0. -1.
         -5    1    3    3    0  502 -0.10591953664E+02  0.17668221947E+02  0.13667870679E+03  0.13830225753E+03  0.47000000000E+01 0. -1.
        -11    1    1    2    0    0  0.13613130782E+01  0.17993002368E+02  0.12917409072E+02  0.22191457020E+02  0.00000000000E+00 0.  1.
         11    1    1    2    0    0 -0.90144189703E+02  0.67038360533E+02  0.53002332039E+03  0.54179778227E+03  0.00000000000E+00 0. -1.
<mgrwt>
<rscale>  0 0.16935204E+03</rscale>
<asrwt>0</asrwt>
<pdfrwt beam="1">  1        3 0.15538860E+00 0.17531954E+03</pdfrwt>
<pdfrwt beam="2">  1       -3 0.42084531E-02 0.17531954E+03</pdfrwt>
<totfact> 0.22724410E+02</totfact>
</mgrwt>
</event>
<event>
 7    1  0.6387485E-006  0.1374494E+03  0.7546771E-02  0.1228789E+00
          2   -1    0    0  501    0  0.00000000000E+00  0.00000000000E+00  0.47561024393E+02  0.47561024393E+02  0.00000000000E+00 0. -1.
         -2   -1    0    0    0  501 -0.00000000000E+00 -0.00000000000E+00 -0.33803212727E+03  0.33803212727E+03  0.00000000000E+00 0.  1.
         23    2    1    2    0    0 -0.47956177270E+02  0.31149733561E+02 -0.21300021664E+03  0.25349840609E+03  0.12498899455E+03 0.  0.
          5    1    3    3  502    0  0.30841481621E+02  0.11396014327E+02 -0.14095701621E+03  0.14481725225E+03  0.47000000000E+01 0. -1.
         -5    1    3    3    0  502 -0.78797658891E+02  0.19753719234E+02 -0.72043200433E+02  0.10868115384E+03  0.47000000000E+01 0. -1.
        -11    1    1    2    0    0  0.32840955886E+02 -0.52316346024E+02 -0.84947953436E+02  0.10503182012E+03  0.00000000000E+00 0.  1.
         11    1    1    2    0    0  0.15115221384E+02  0.21166612463E+02  0.74770671958E+01  0.27062925461E+02  0.00000000000E+00 0. -1.
<mgrwt>
<rscale>  0 0.12910559E+03</rscale>
<asrwt>0</asrwt>
<pdfrwt beam="1">  1        2 0.73170806E-02 0.13744944E+03</pdfrwt>
<pdfrwt beam="2">  1       -2 0.52004943E-01 0.13744944E+03</pdfrwt>
<totfact> 0.32405567E+03</totfact>
</mgrwt>
</event>
<event>
 7    1  0.6387485E-006  0.1320626E+03  0.7546771E-02  0.1238306E+00
         -2   -1    0    0    0  501 -0.00000000000E+00  0.00000000000E+00  0.22860903904E+03  0.22860903904E+03  0.00000000000E+00 0.  1.
          2   -1    0    0  501    0  0.00000000000E+00 -0.00000000000E+00 -0.60111573128E+02  0.60111573128E+02  0.00000000000E+00 0. -1.
         23    2    1    2    0    0  0.12132109739E+02 -0.40856524220E+02  0.11931939366E+03  0.17798215067E+03  0.12499633833E+03 0.  0.
          5    1    3    3  502    0  0.11912856206E+02 -0.54253426465E+02  0.14125240999E+03  0.15185415290E+03  0.47000000000E+01 0.  1.
         -5    1    3    3    0  502  0.21925353247E+00  0.13396902245E+02 -0.21933016333E+02  0.26127997767E+02  0.47000000000E+01 0.  1.
        -11    1    1    2    0    0 -0.25894502425E+02  0.17229018374E+02 -0.19573522257E+02  0.36748974183E+02  0.00000000000E+00 0. -1.
         11    1    1    2    0    0  0.13762392686E+02  0.23627505846E+02  0.68751594516E+02  0.73989487317E+02  0.00000000000E+00 0.  1.
<mgrwt>
<rscale>  0 0.12295161E+03</rscale>
<asrwt>0</asrwt>
<pdfrwt beam="2">  1        2 0.92479345E-02 0.13206259E+03</pdfrwt>
<pdfrwt beam="1">  1       -2 0.35170621E-01 0.13206259E+03</pdfrwt>
<totfact> 0.51044193E+03</totfact>
</mgrwt>
</event>
<event>
 7    1  0.6387485E-006  0.1286951E+03  0.7546771E-02  0.1244298E+00
         -4   -1    0    0    0  501 -0.00000000000E+00  0.00000000000E+00  0.41176437660E+02  0.41176437660E+02  0.00000000000E+00 0.  1.
          4   -1    0    0  501    0  0.00000000000E+00 -0.00000000000E+00 -0.30418276200E+03  0.30418276200E+03  0.00000000000E+00 0. -1.
         23    2    1    2    0    0  0.13334016816E+02 -0.27285423501E+02 -0.15822314426E+03  0.20395341750E+03  0.12506055649E+03 0.  0.
          5    1    3    3  502    0  0.51129929793E+02 -0.50532464760E+02 -0.52324326610E+02  0.89037772156E+02  0.47000000000E+01 0. -1.
         -5    1    3    3    0  502 -0.37795912977E+02  0.23247041259E+02 -0.10589881765E+03  0.11491564534E+03  0.47000000000E+01 0. -1.
        -11    1    1    2    0    0 -0.49669258694E+02  0.17081988708E+02 -0.38472748281E+02  0.65107464685E+02  0.00000000000E+00 0. -1.
         11    1    1    2    0    0  0.36335241878E+02  0.10203434793E+02 -0.66310431800E+02  0.76298317474E+02  0.00000000000E+00 0.  1.
<mgrwt>
<rscale>  0 0.11927482E+03</rscale>
<asrwt>0</asrwt>
<pdfrwt beam="2">  1        4 0.46797346E-01 0.12869512E+03</pdfrwt>
<pdfrwt beam="1">  1       -4 0.63348369E-02 0.12869512E+03</pdfrwt>
<totfact> 0.11765343E+03</totfact>
</mgrwt>
</event>
<event>
 7    1  0.6387485E-006  0.1707594E+03  0.7546771E-02  0.1183999E+00
         -2   -1    0    0    0  501 -0.00000000000E+00  0.00000000000E+00  0.37995479816E+02  0.37995479816E+02  0.00000000000E+00 0.  1.
          2   -1    0    0  501    0  0.00000000000E+00 -0.00000000000E+00 -0.68247064455E+03  0.68247064455E+03  0.00000000000E+00 0. -1.
         23    2    1    2    0    0  0.88965477853E+02  0.74961115349E+02 -0.28227783533E+03  0.32990840549E+03  0.12499901851E+03 0.  0.
          5    1    3    3  502    0  0.46175099317E+02 -0.16173236051E+02 -0.28424255116E+02  0.56778003137E+02  0.47000000000E+01 0. -1.
         -5    1    3    3    0  502  0.42790378536E+02  0.91134351400E+02 -0.25385358022E+03  0.27313040235E+03  0.47000000000E+01 0. -1.
        -11    1    1    2    0    0 -0.32201214094E+02 -0.89082032938E+01 -0.23514055343E+02  0.40855661465E+02  0.00000000000E+00 0.  1.
         11    1    1    2    0    0 -0.56764263759E+02 -0.66052912055E+02 -0.33868327405E+03  0.34970205741E+03  0.00000000000E+00 0. -1.
<mgrwt>
<rscale>  0 0.16423255E+03</rscale>
<asrwt>0</asrwt>
<pdfrwt beam="2">  1        2 0.10499548E+00 0.17075942E+03</pdfrwt>
<pdfrwt beam="1">  1       -2 0.58454586E-02 0.17075942E+03</pdfrwt>
<totfact> 0.65040869E+03</totfact>
</mgrwt>
</event>
<event>
 7    1  0.6387485E-006  0.1409316E+03  0.7546771E-02  0.1221461E+00
         -2   -1    0    0    0  501 -0.00000000000E+00  0.00000000000E+00  0.76486406456E+02  0.76486406456E+02  0.00000000000E+00 0.  1.
          2   -1    0    0  501    0  0.00000000000E+00 -0.00000000000E+00 -0.21516656853E+03  0.21516656853E+03  0.00000000000E+00 0. -1.
         23    2    1    2    0    0  0.64737408321E+02  0.68686795511E+01 -0.74082971611E+02  0.15921684426E+03  0.12499442395E+03 0.  0.
          5    1    3    3  502    0 -0.29387222081E+02  0.29532382393E+02 -0.10263875403E+02  0.43164888158E+02  0.47000000000E+01 0. -1.
         -5    1    3    3    0  502  0.94124630402E+02 -0.22663702842E+02 -0.63819096208E+02  0.11605195610E+03  0.47000000000E+01 0. -1.
        -11    1    1    2    0    0 -0.25161088898E+02  0.59254941236E+01  0.23550131416E+02  0.34968565381E+02  0.00000000000E+00 0.  1.
         11    1    1    2    0    0 -0.39576319424E+02 -0.12794173675E+02 -0.88147321876E+02  0.97467565339E+02  0.00000000000E+00 0. -1.
<mgrwt>
<rscale>  0 0.13412466E+03</rscale>
<asrwt>0</asrwt>
<pdfrwt beam="2">  1        2 0.33102549E-01 0.14093160E+03</pdfrwt>
<pdfrwt beam="1">  1       -2 0.11767140E-01 0.14093160E+03</pdfrwt>
<totfact> 0.76338621E+03</totfact>
</mgrwt>
</event>
<event>
 7    1  0.6387485E-006  0.1240547E+03  0.7546771E-02  0.1247383E+00
         -2   -1    0    0    0  501 -0.00000000000E+00  0.00000000000E+00  0.13219845475E+03  0.13219845475E+03  0.00000000000E+00 0.  1.
          2   -1    0    0  501    0  0.00000000000E+00 -0.00000000000E+00 -0.94632615160E+02  0.94632615160E+02  0.00000000000E+00 0. -1.
         23    2    1    2    0    0 -0.38194044966E+02 -0.18358597330E+02  0.19717013149E+02  0.12561183126E+03  0.11659223121E+03 0.  0.
          5    1    3    3  502    0  0.36779381012E+02  0.12878511299E+02 -0.72242734110E+01  0.39910638272E+02  0.47000000000E+01 0. -1.
         -5    1    3    3    0  502 -0.74973425979E+02 -0.31237108629E+02  0.26941286560E+02  0.85701192991E+02  0.47000000000E+01 0.  1.
        -11    1    1    2    0    0 -0.19728915219E+02  0.32424871668E+02 -0.29954125121E+01  0.38073283212E+02  0.00000000000E+00 0.  1.
         11    1    1    2    0    0  0.57922960185E+02 -0.14066274338E+02  0.20844238951E+02  0.63145955435E+02  0.00000000000E+00 0. -1.
<mgrwt>
<rscale>  0 0.11743860E+03</rscale>
<asrwt>0</asrwt>
<pdfrwt beam="2">  1        2 0.14558864E-01 0.12405471E+03</pdfrwt>
<pdfrwt beam="1">  1       -2 0.20338224E-01 0.12405471E+03</pdfrwt>
<totfact> 0.77324155E+03</totfact>
</mgrwt>
</event>
<event>
 6    1  0.6387485E-006  0.1430518E+03  0.7546771E-02  0.1230435E+00
          1   -1    0    0  501    0  0.00000000000E+00  0.00000000000E+00  0.88602112657E+02  0.88602112657E+02  0.00000000000E+00 0. -1.
         -1   -1    0    0    0  501 -0.00000000000E+00 -0.00000000000E+00 -0.24550591956E+03  0.24550591956E+03  0.00000000000E+00 0.  1.
          5    1    1    2  502    0  0.42522740740E+02  0.41992321264E+02 -0.17271592919E+03  0.18282346874E+03  0.47000000000E+01 0. -1.
         -5    1    1    2    0  502 -0.48238517741E+02 -0.17864690279E+02 -0.16184807651E+02  0.54130765294E+02  0.47000000000E+01 0.  1.
        -11    1    1    2    0    0  0.37548804902E+02  0.15068856048E+02  0.20543943417E+02  0.45376610531E+02  0.00000000000E+00 0. -1.
         11    1    1    2    0    0 -0.31833027900E+02 -0.39196487032E+02  0.11452986522E+02  0.51777187653E+02  0.00000000000E+00 0.  1.
<mgrwt>
<rscale>  0 0.12801243E+03</rscale>
<asrwt>0</asrwt>
<pdfrwt beam="1">  1        1 0.13631094E-01 0.14305181E+03</pdfrwt>
<pdfrwt beam="2">  1       -1 0.37770141E-01 0.14305181E+03</pdfrwt>
<totfact> 0.28030047E+03</totfact>
</mgrwt>
</event>
<event>
 7    1  0.6387485E-006  0.1409494E+03  0.7546771E-02  0.1223052E+00
          2   -1    0    0  501    0  0.00000000000E+00  0.00000000000E+00  0.43983979857E+03  0.43983979857E+03  0.00000000000E+00 0. -1.
         -2   -1    0    0    0  501 -0.00000000000E+00 -0.00000000000E+00 -0.38459866738E+02  0.38459866738E+02  0.00000000000E+00 0.  1.
         23    2    1    2    0    0  0.41455821176E+02  0.50287231077E+02  0.16631503860E+03  0.21800786480E+03  0.12497738327E+03 0.  0.
          5    1    3    3  502    0  0.72236090834E+02  0.55829304340E+02  0.16210153013E+03  0.18610201533E+03  0.47000000000E+01 0. -1.
         -5    1    3    3    0  502 -0.30780269658E+02 -0.55420732625E+01  0.42135084764E+01  0.31905849463E+02  0.47000000000E+01 0. -1.
        -11    1    1    2    0    0  0.93560490814E+01 -0.38367683675E+02  0.32602817823E+02  0.51210922029E+02  0.00000000000E+00 0.  1.
         11    1    1    2    0    0 -0.50811870258E+02 -0.11919547402E+02  0.20246207541E+03  0.20908087849E+03  0.00000000000E+00 0. -1.
<mgrwt>
<rscale>  0 0.13301334E+03</rscale>
<asrwt>0</asrwt>
<pdfrwt beam="1">  1        2 0.67667658E-01 0.14094941E+03</pdfrwt>
<pdfrwt beam="2">  1       -2 0.59169029E-02 0.14094941E+03</pdfrwt>
<totfact> 0.10352420E+04</totfact>
</mgrwt>
</event>
<event>
 7    1  0.6387485E-006  0.1346869E+03  0.7546771E-02  0.1228138E+00
         -1   -1    0    0    0  501 -0.00000000000E+00  0.00000000000E+00  0.34231954293E+03  0.34231954293E+03  0.00000000000E+00 0.  1.
          1   -1    0    0  501    0  0.00000000000E+00 -0.00000000000E+00 -0.54492050313E+02  0.54492050313E+02  0.00000000000E+00 0. -1.
         23    2    1    2    0    0 -0.47332103222E+02 -0.82073174344E+01  0.23312259399E+03  0.26923354353E+03  0.12582872913E+03 0.  0.
          5    1    3    3  502    0 -0.73459492693E+02 -0.50698973162E+01  0.62992624663E+02  0.97016295990E+02  0.47000000000E+01 0. -1.
         -5    1    3    3    0  502  0.26127389471E+02 -0.31374201182E+01  0.17012996933E+03  0.17221724754E+03  0.47000000000E+01 0.  1.
        -11    1    1    2    0    0  0.29176747275E+02 -0.38630431422E+02 -0.60034629380E+01  0.48781496294E+02  0.00000000000E+00 0.  1.
         11    1    1    2    0    0  0.18155355947E+02  0.46837748857E+02  0.60708361564E+02  0.78796553423E+02  0.00000000000E+00 0. -1.
<mgrwt>
<rscale>  0 0.12954128E+03</rscale>
<asrwt>0</asrwt>
<pdfrwt beam="2">  1        1 0.83833926E-02 0.13468689E+03</pdfrwt>
<pdfrwt beam="1">  1       -1 0.52664544E-01 0.13468689E+03</pdfrwt>
<totfact> 0.29312148E+03</totfact>
</mgrwt>
</event>
<event>
 6    1  0.6387485E-006  0.1534237E+03  0.7546771E-02  0.1217112E+00
         -2   -1    0    0    0  501 -0.00000000000E+00  0.00000000000E+00  0.59467484927E+02  0.59467484927E+02  0.00000000000E+00 0.  1.
          2   -1    0    0  501    0  0.00000000000E+00 -0.00000000000E+00 -0.35683463325E+03  0.35683463325E+03  0.00000000000E+00 0. -1.
          5    1    1    2  502    0  0.87551916937E+02 -0.25619092722E+02 -0.54889263384E+02  0.10656733696E+03  0.47000000000E+01 0. -1.
         -5    1    1    2    0  502 -0.53383661747E+02  0.27431650581E+02 -0.15108371094E+02  0.62069829001E+02  0.47000000000E+01 0.  1.
        -11    1    1    2    0    0 -0.26172588555E+02 -0.39753565074E+02 -0.64005743812E+02  0.79762682808E+02  0.00000000000E+00 0. -1.
         11    1    1    2    0    0 -0.79956666346E+01  0.37941007215E+02 -0.16336377003E+03  0.16790226941E+03  0.00000000000E+00 0.  1.
<mgrwt>
<rscale>  0 0.13722547E+03</rscale>
<asrwt>0</asrwt>
<pdfrwt beam="2">  1        2 0.54897637E-01 0.15342368E+03</pdfrwt>
<pdfrwt beam="1">  1       -2 0.91488437E-02 0.15342368E+03</pdfrwt>
<totfact> 0.66603864E+03</totfact>
</mgrwt>
</event>
<event>
 7    1  0.6387485E-006  0.1344198E+03  0.7546771E-02  0.1234082E+00
         -2   -1    0    0    0  501 -0.00000000000E+00  0.00000000000E+00  0.10342805039E+03  0.10342805039E+03  0.00000000000E+00 0. -1.
          2   -1    0    0  501    0  0.00000000000E+00 -0.00000000000E+00 -0.18987045950E+03  0.18987045950E+03  0.00000000000E+00 0.  1.
         23    2    1    2    0    0  0.26816597687E+02 -0.41536052443E+02  0.30405332868E+02  0.13781573665E+03  0.12499727772E+03 0.  0.
          5    1    3    3  502    0 -0.13361250935E+02 -0.10854311395E+02 -0.44147087899E+02  0.47617165732E+02  0.47000000000E+01 0.  1.
         -5    1    3    3    0  502  0.40177848622E+02 -0.30681741049E+02  0.74552420767E+02  0.90198570919E+02  0.47000000000E+01 0.  1.
        -11    1    1    2    0    0  0.27276916104E+02  0.20710901945E+01 -0.94895813948E+01  0.28954649399E+02  0.00000000000E+00 0. -1.
         11    1    1    2    0    0 -0.54093513791E+02  0.39464962249E+02 -0.10735816058E+03  0.12652812384E+03  0.00000000000E+00 0.  1.
<mgrwt>
<rscale>  0 0.12563401E+03</rscale>
<asrwt>0</asrwt>
<pdfrwt beam="2">  1        2 0.29210839E-01 0.13441984E+03</pdfrwt>
<pdfrwt beam="1">  1       -2 0.15912008E-01 0.13441984E+03</pdfrwt>
<totfact> 0.53448056E+03</totfact>
</mgrwt>
</event>
<event>
 7    1  0.6387485E-006  0.1449838E+03  0.7546771E-02  0.1218360E+00
         -3   -1    0    0    0  501 -0.00000000000E+00  0.00000000000E+00  0.62297174749E+03  0.62297174749E+03  0.00000000000E+00 0.  1.
          3   -1    0    0  501    0  0.00000000000E+00 -0.00000000000E+00 -0.27182183291E+02  0.27182183291E+02  0.00000000000E+00 0. -1.
         23    2    1    2    0    0 -0.45913030727E+02 -0.57356233523E+02  0.37320097836E+03  0.40037393234E+03  0.12499028576E+03 0.  0.
          5    1    3    3  502    0  0.31964170766E+01 -0.24708512531E+02  0.31941600901E+03  0.32042066801E+03  0.47000000000E+01 0. -1.
         -5    1    3    3    0  502 -0.49109447804E+02 -0.32647720991E+02  0.53784969348E+02  0.79953264332E+02  0.47000000000E+01 0. -1.
        -11    1    1    2    0    0 -0.18193542688E+02 -0.96380051201E+01  0.42255099871E+02  0.47004144534E+02  0.00000000000E+00 0.  1.
         11    1    1    2    0    0  0.64106573416E+02  0.66994238643E+02  0.18033348597E+03  0.20277585391E+03  0.00000000000E+00 0. -1.
<mgrwt>
<rscale>  0 0.13632604E+03</rscale>
<asrwt>0</asrwt>
<pdfrwt beam="2">  1        3 0.41818748E-02 0.14498385E+03</pdfrwt>
<pdfrwt beam="1">  1       -3 0.95841796E-01 0.14498385E+03</pdfrwt>
<totfact> 0.70533538E+02</totfact>
</mgrwt>
</event>
<event>
 6    1  0.6387485E-006  0.2364740E+03  0.7546771E-02  0.1159010E+00
         -1   -1    0    0    0  501 -0.00000000000E+00  0.00000000000E+00  0.81355286818E+02  0.81355286818E+02  0.00000000000E+00 0.  1.
          1   -1    0    0  501    0  0.00000000000E+00 -0.00000000000E+00 -0.41702903097E+03  0.41702903097E+03  0.00000000000E+00 0. -1.
          5    1    1    2  502    0 -0.10380240412E+03 -0.48617918886E+02 -0.30186856558E+02  0.11862536595E+03  0.47000000000E+01 0. -1.
         -5    1    1    2    0  502  0.11316909557E+03  0.14236365483E+02 -0.97455301757E+02  0.15009844814E+03  0.47000000000E+01 0.  1.
        -11    1    1    2    0    0  0.31711139751E+02  0.25760365524E+02 -0.42752524038E+02  0.59135193649E+02  0.00000000000E+00 0.  1.
         11    1    1    2    0    0 -0.41077831198E+02  0.86211878787E+01 -0.16527906180E+03  0.17052531004E+03  0.00000000000E+00 0. -1.
<mgrwt>
<rscale>  0 0.18939261E+03</rscale>
<asrwt>0</asrwt>
<pdfrwt beam="2">  1        1 0.64158312E-01 0.23647403E+03</pdfrwt>
<pdfrwt beam="1">  1       -1 0.12516198E-01 0.23647403E+03</pdfrwt>
<totfact> 0.24441872E+03</totfact>
</mgrwt>
</event>
<event>
 7    1  0.6387485E-006  0.1968727E+03  0.7546771E-02  0.1157006E+00
         -1   -1    0    0    0  501 -0.00000000000E+00  0.00000000000E+00  0.16168565766E+03  0.16168565766E+03  0.00000000000E+00 0.  1.
          1   -1    0    0  501    0  0.00000000000E+00 -0.00000000000E+00 -0.21612988717E+03  0.21612988717E+03  0.00000000000E+00 0. -1.
         23    2    1    2    0    0  0.26677487500E+02  0.14973957759E+03 -0.36260667913E+02  0.20018415785E+03  0.12500092633E+03 0.  0.
          5    1    3    3  502    0 -0.19322525958E+02 -0.70333627314E+01  0.18241698140E+02  0.27886874184E+02  0.47000000000E+01 0.  1.
         -5    1    3    3    0  502  0.46000013458E+02  0.15677294032E+03 -0.54502366053E+02  0.17229728367E+03  0.47000000000E+01 0.  1.
        -11    1    1    2    0    0 -0.59406425277E+02 -0.90093937178E+02 -0.31916430695E+01  0.10796401005E+03  0.00000000000E+00 0. -1.
         11    1    1    2    0    0  0.32728937778E+02 -0.59645640409E+02 -0.14991918530E+02  0.69667376935E+02  0.00000000000E+00 0.  1.
<mgrwt>
<rscale>  0 0.19162280E+03</rscale>
<asrwt>0</asrwt>
<pdfrwt beam="2">  1        1 0.33250752E-01 0.19687270E+03</pdfrwt>
<pdfrwt beam="1">  1       -1 0.24874717E-01 0.19687270E+03</pdfrwt>
<totfact> 0.18464456E+03</totfact>
</mgrwt>
</event>
<event>
 7    1  0.6387485E-006  0.1548546E+03  0.7546771E-02  0.1203263E+00
         -4   -1    0    0    0  501 -0.00000000000E+00  0.00000000000E+00  0.25533613484E+03  0.25533613484E+03  0.00000000000E+00 0.  1.
          4   -1    0    0  501    0  0.00000000000E+00 -0.00000000000E+00 -0.78737280347E+02  0.78737280347E+02  0.00000000000E+00 0. -1.
         23    2    1    2    0    0  0.12527450775E+02  0.90544204396E+02  0.87872791234E+02  0.17804938276E+03  0.12499906116E+03 0.  0.
          5    1    3    3  502    0  0.65301369604E+02  0.31655134076E+02  0.24943779506E+02  0.76880417023E+02  0.47000000000E+01 0.  1.
         -5    1    3    3    0  502 -0.52773918829E+02  0.58889070319E+02  0.62929011729E+02  0.10116896574E+03  0.47000000000E+01 0.  1.
        -11    1    1    2    0    0  0.80313602200E+01 -0.98803239876E+02  0.49095504424E+02  0.11062075534E+03  0.00000000000E+00 0. -1.
         11    1    1    2    0    0 -0.20558810995E+02  0.82590354807E+01  0.39630558832E+02  0.45403277084E+02  0.00000000000E+00 0.  1.
<mgrwt>
<rscale>  0 0.14775213E+03</rscale>
<asrwt>0</asrwt>
<pdfrwt beam="2">  1        4 0.12113428E-01 0.15485463E+03</pdfrwt>
<pdfrwt beam="1">  1       -4 0.39282482E-01 0.15485463E+03</pdfrwt>
<totfact> 0.58603924E+02</totfact>
</mgrwt>
</event>
<event>
 7    1  0.6387485E-006  0.1345652E+03  0.7546771E-02  0.1231941E+00
          2   -1    0    0  501    0  0.00000000000E+00  0.00000000000E+00  0.16323770400E+03  0.16323770400E+03  0.00000000000E+00 0. -1.
         -2   -1    0    0    0  501 -0.00000000000E+00 -0.00000000000E+00 -0.90879604197E+02  0.90879604197E+02  0.00000000000E+00 0.  1.
         23    2    1    2    0    0  0.38187960835E+02  0.32007341470E+02  0.23361028931E+02  0.13657792545E+03  0.12500000715E+03 0.  0.
          5    1    3    3  502    0 -0.28987995276E+02 -0.29459427349E+02 -0.28975003723E+01  0.41697089086E+02  0.47000000000E+01 0. -1.
         -5    1    3    3    0  502  0.67175956111E+02  0.61466768819E+02  0.26258529303E+02  0.94880836367E+02  0.47000000000E+01 0. -1.
        -11    1    1    2    0    0 -0.59792489070E+02  0.89518560771E+01  0.29899409271E+02  0.67448144164E+02  0.00000000000E+00 0. -1.
         11    1    1    2    0    0  0.21604528234E+02 -0.40959197547E+02  0.19097661600E+02  0.50091238580E+02  0.00000000000E+00 0.  1.
<mgrwt>
<rscale>  0 0.12702321E+03</rscale>
<asrwt>0</asrwt>
<pdfrwt beam="1">  1        2 0.25113493E-01 0.13456520E+03</pdfrwt>
<pdfrwt beam="2">  1       -2 0.13981478E-01 0.13456520E+03</pdfrwt>
<totfact> 0.77884132E+03</totfact>
</mgrwt>
</event>
<event>
 7    1  0.6387485E-006  0.1255452E+03  0.7546771E-02  0.1249815E+00
         -1   -1    0    0    0  501 -0.00000000000E+00  0.00000000000E+00  0.11604730011E+03  0.11604730011E+03  0.00000000000E+00 0.  1.
          1   -1    0    0  501    0  0.00000000000E+00 -0.00000000000E+00 -0.20031467371E+03  0.20031467371E+03  0.00000000000E+00 0. -1.
         23    2    1    2    0    0  0.11675049924E+02  0.86825205924E+00  0.64906456994E+02  0.14133095427E+03  0.12499811927E+03 0.  0.
          5    1    3    3  502    0  0.66194589977E+02 -0.11817548111E+02  0.22901359251E+02  0.71189468611E+02  0.47000000000E+01 0. -1.
         -5    1    3    3    0  502 -0.54519540053E+02  0.12685800170E+02  0.42005097743E+02  0.70141485655E+02  0.47000000000E+01 0. -1.
        -11    1    1    2    0    0  0.18981667408E+02 -0.20922568822E+02 -0.82592685696E+01  0.29432517748E+02  0.00000000000E+00 0.  1.
         11    1    1    2    0    0 -0.30656717332E+02  0.20054316762E+02 -0.14091456202E+03  0.14559850181E+03  0.00000000000E+00 0. -1.
<mgrwt>
<rscale>  0 0.11601793E+03</rscale>
<asrwt>0</asrwt>
<pdfrwt beam="2">  1        1 0.30817642E-01 0.12554517E+03</pdfrwt>
<pdfrwt beam="1">  1       -1 0.17853431E-01 0.12554517E+03</pdfrwt>
<totfact> 0.34124214E+03</totfact>
</mgrwt>
</event>
<event>
 7    1  0.6387485E-006  0.1276054E+03  0.7546771E-02  0.1244690E+00
         -2   -1    0    0    0  501 -0.00000000000E+00  0.00000000000E+00  0.26412464716E+02  0.26412464716E+02  0.00000000000E+00 0. -1.
          2   -1    0    0  501    0  0.00000000000E+00 -0.00000000000E+00 -0.76728542478E+03  0.76728542478E+03  0.00000000000E+00 0.  1.
         23    2    1    2    0    0 -0.99248172299E+01  0.23648882363E+02 -0.15908922260E+03  0.20394243923E+03  0.12500146454E+03 0.  0.
          5    1    3    3  502    0  0.87413822406E+00 -0.29152373713E+02 -0.14508277890E+03  0.14805987891E+03  0.47000000000E+01 0. -1.
         -5    1    3    3    0  502 -0.10798955454E+02  0.52801256076E+02 -0.14006443704E+02  0.55882560315E+02  0.47000000000E+01 0. -1.
        -11    1    1    2    0    0  0.49161190040E+02 -0.28941121814E+02 -0.34273674318E+03  0.34745199131E+03  0.00000000000E+00 0.  1.
         11    1    1    2    0    0 -0.39236372810E+02  0.52922394511E+01 -0.23904699428E+03  0.24230345896E+03  0.00000000000E+00 0. -1.
<mgrwt>
<rscale>  0 0.11903929E+03</rscale>
<asrwt>0</asrwt>
<pdfrwt beam="2">  1        2 0.11804392E+00 0.12760540E+03</pdfrwt>
<pdfrwt beam="1">  1       -2 0.40634558E-02 0.12760540E+03</pdfrwt>
<totfact> 0.96018084E+03</totfact>
</mgrwt>
</event>
<event>
 7    1  0.6387485E-006  0.1358182E+03  0.7546771E-02  0.1231431E+00
         -1   -1    0    0    0  501 -0.00000000000E+00  0.00000000000E+00  0.32679329419E+02  0.32679329419E+02  0.00000000000E+00 0.  1.
          1   -1    0    0  501    0  0.00000000000E+00 -0.00000000000E+00 -0.48356834569E+03  0.48356834569E+03  0.00000000000E+00 0. -1.
         23    2    1    2    0    0 -0.50534269800E+02 -0.16389904851E+02 -0.17833364312E+03  0.22416393118E+03  0.12499695344E+03 0.  0.
          5    1    3    3  502    0 -0.47303230403E+02 -0.32023995550E+01 -0.19581951630E+03  0.20153219081E+03  0.47000000000E+01 0.  1.
         -5    1    3    3    0  502 -0.32310393972E+01 -0.13187505296E+02  0.17485873177E+02  0.22631740372E+02  0.47000000000E+01 0.  1.
        -11    1    1    2    0    0  0.73833488309E+02  0.25625576905E+02 -0.18083830256E+03  0.19700392346E+03  0.00000000000E+00 0.  1.
         11    1    1    2    0    0 -0.23299218509E+02 -0.92356720542E+01 -0.91717070587E+02  0.95079820459E+02  0.00000000000E+00 0. -1.
<mgrwt>
<rscale>  0 0.12735707E+03</rscale>
<asrwt>0</asrwt>
<pdfrwt beam="2">  1        1 0.74395133E-01 0.13581819E+03</pdfrwt>
<pdfrwt beam="1">  1       -1 0.50275890E-02 0.13581819E+03</pdfrwt>
<totfact> 0.78782910E+03</totfact>
</mgrwt>
</event>
<event>
 7    1  0.6387485E-006  0.1142951E+03  0.7546771E-02  0.1260448E+00
         -1   -1    0    0    0  501 -0.00000000000E+00  0.00000000000E+00  0.61082807498E+02  0.61082807498E+02  0.00000000000E+00 0.  1.
          1   -1    0    0  501    0  0.00000000000E+00 -0.00000000000E+00 -0.22552638879E+03  0.22552638879E+03  0.00000000000E+00 0. -1.
         23    2    1    2    0    0 -0.39123616084E+01  0.27794254702E+02 -0.26668569677E+02  0.11736519173E+03  0.11079507414E+03 0.  0.
          5    1    3    3  502    0  0.42190147364E+02 -0.14489910825E+02  0.81899945784E+01  0.45597500605E+02  0.47000000000E+01 0. -1.
         -5    1    3    3    0  502 -0.46102508972E+02  0.42284165527E+02 -0.34858564255E+02  0.71767691127E+02  0.47000000000E+01 0.  1.
        -11    1    1    2    0    0 -0.13887606500E+02  0.16168961412E+02  0.22228355961E+01  0.21429930600E+02  0.00000000000E+00 0.  1.
         11    1    1    2    0    0  0.17799968108E+02 -0.43963216114E+02 -0.13999784721E+03  0.14781407396E+03  0.00000000000E+00 0. -1.
<mgrwt>
<rscale>  0 0.11006565E+03</rscale>
<asrwt>0</asrwt>
<pdfrwt beam="2">  1        1 0.34696367E-01 0.11429513E+03</pdfrwt>
<pdfrwt beam="1">  1       -1 0.93973551E-02 0.11429513E+03</pdfrwt>
<totfact> 0.79075634E+03</totfact>
</mgrwt>
</event>
<event>
 7    1  0.6387485E-006  0.1277502E+03  0.7546771E-02  0.1245234E+00
         -1   -1    0    0    0  501 -0.00000000000E+00  0.00000000000E+00  0.39212628554E+02  0.39212628554E+02  0.00000000000E+00 0.  1.
          1   -1    0    0  501    0  0.00000000000E+00 -0.00000000000E+00 -0.33928701117E+03  0.33928701117E+03  0.00000000000E+00 0. -1.
         23    2    1    2    0    0  0.10753085079E+02 -0.24331376837E+02 -0.12253086557E+03  0.17701395102E+03  0.12494991437E+03 0.  0.
          5    1    3    3  502    0 -0.55815306791E+02 -0.13670645955E+02 -0.74016151375E+02  0.93822788796E+02  0.47000000000E+01 0.  1.
         -5    1    3    3    0  502  0.66568391870E+02 -0.10660730882E+02 -0.48514714192E+02  0.83191162224E+02  0.47000000000E+01 0.  1.
        -11    1    1    2    0    0 -0.12097960334E+02  0.58180040338E+02 -0.13168446339E+03  0.14447171223E+03  0.00000000000E+00 0. -1.
         11    1    1    2    0    0  0.13448752554E+01 -0.33848663501E+02 -0.45859053667E+02  0.57013976475E+02  0.00000000000E+00 0.  1.
<mgrwt>
<rscale>  0 0.11871370E+03</rscale>
<asrwt>0</asrwt>
<pdfrwt beam="2">  1        1 0.52198004E-01 0.12775025E+03</pdfrwt>
<pdfrwt beam="1">  1       -1 0.60327119E-02 0.12775025E+03</pdfrwt>
<totfact> 0.93686999E+03</totfact>
</mgrwt>
</event>
<event>
 7    1  0.6387485E-006  0.1676053E+03  0.7546771E-02  0.1186843E+00
         -1   -1    0    0    0  501 -0.00000000000E+00  0.00000000000E+00  0.89432203866E+03  0.89432203866E+03  0.00000000000E+00 0.  1.
          1   -1    0    0  501    0  0.00000000000E+00 -0.00000000000E+00 -0.29950482109E+02  0.29950482109E+02  0.00000000000E+00 0. -1.
         23    2    1    2    0    0 -0.10786638324E+03 -0.28824327387E+02  0.59718816708E+03  0.62026222732E+03  0.12500210101E+03 0.  0.
          5    1    3    3  502    0 -0.29128599978E+02  0.10612763003E+02  0.43087858395E+03  0.43201799752E+03  0.47000000000E+01 0. -1.
         -5    1    3    3    0  502 -0.78737783265E+02 -0.39437090390E+02  0.16630958313E+03  0.18824422980E+03  0.47000000000E+01 0. -1.
        -11    1    1    2    0    0 -0.10610640476E+02 -0.57390886500E+01  0.72552510583E+02  0.73548552818E+02  0.00000000000E+00 0.  1.
         11    1    1    2    0    0  0.11847702372E+03  0.34563416037E+02  0.19463087889E+03  0.23046174063E+03  0.00000000000E+00 0. -1.
<mgrwt>
<rscale>  0 0.16165320E+03</rscale>
<asrwt>0</asrwt>
<pdfrwt beam="2">  1        1 0.46077672E-02 0.16760526E+03</pdfrwt>
<pdfrwt beam="1">  1       -1 0.13758799E+00 0.16760526E+03</pdfrwt>
<totfact> 0.87289921E+02</totfact>
</mgrwt>
</event>
<event>
 7    1  0.6387485E-006  0.1695751E+03  0.7546771E-02  0.1184728E+00
         -2   -1    0    0    0  501 -0.00000000000E+00  0.00000000000E+00  0.18349071750E+04  0.18349071750E+04  0.00000000000E+00 0.  1.
          2   -1    0    0  501    0  0.00000000000E+00 -0.00000000000E+00 -0.16856359261E+02  0.16856359261E+02  0.00000000000E+00 0. -1.
         23    2    1    2    0    0 -0.67027224352E+02 -0.92935137707E+02  0.13658150904E+04  0.13763017721E+04  0.12500447202E+03 0.  0.
          5    1    3    3  502    0 -0.93699735339E+02 -0.56775731959E+02  0.11795404774E+04  0.11846269252E+04  0.47000000000E+01 0. -1.
         -5    1    3    3    0  502  0.26672510987E+02 -0.36159405748E+02  0.18627461298E+03  0.19167484683E+03  0.47000000000E+01 0. -1.
        -11    1    1    2    0    0  0.12893038628E+02  0.74967577728E+02  0.35207647306E+03  0.36020023742E+03  0.00000000000E+00 0.  1.
         11    1    1    2    0    0  0.54134185724E+02  0.17967559979E+02  0.10015925232E+03  0.11526152481E+03  0.00000000000E+00 0. -1.
<mgrwt>
<rscale>  0 0.16356644E+03</rscale>
<asrwt>0</asrwt>
<pdfrwt beam="2">  1        2 0.25932875E-02 0.16957508E+03</pdfrwt>
<pdfrwt beam="1">  1       -2 0.28229325E+00 0.16957508E+03</pdfrwt>
<totfact> 0.17772818E+02</totfact>
</mgrwt>
</event>
<event>
 7    1  0.6387485E-006  0.1479114E+03  0.7546771E-02  0.1212328E+00
         -1   -1    0    0    0  501 -0.00000000000E+00  0.00000000000E+00  0.28322145129E+03  0.28322145129E+03  0.00000000000E+00 0.  1.
          1   -1    0    0  501    0  0.00000000000E+00 -0.00000000000E+00 -0.64176513522E+02  0.64176513522E+02  0.00000000000E+00 0. -1.
         23    2    1    2    0    0 -0.26143302859E+02  0.74645717971E+02  0.13041612761E+03  0.19719568415E+03  0.12498926359E+03 0.  0.
          5    1    3    3  502    0 -0.20653827118E+02  0.72692066815E+02  0.15445670697E+03  0.17201651514E+03  0.47000000000E+01 0.  1.
         -5    1    3    3    0  502 -0.54894757412E+01  0.19536511562E+01 -0.24040579355E+02  0.25179169019E+02  0.47000000000E+01 0.  1.
        -11    1    1    2    0    0  0.15481601714E+02  0.18245360821E+02  0.43432500207E+01  0.24319477869E+02  0.00000000000E+00 0.  1.
         11    1    1    2    0    0  0.10661701146E+02 -0.92891078792E+02  0.84285560131E+02  0.12588280279E+03  0.00000000000E+00 0. -1.
<mgrwt>
<rscale>  0 0.14074621E+03</rscale>
<asrwt>0</asrwt>
<pdfrwt beam="2">  1        1 0.98733099E-02 0.14791136E+03</pdfrwt>
<pdfrwt beam="1">  1       -1 0.43572530E-01 0.14791136E+03</pdfrwt>
<totfact> 0.33390024E+03</totfact>
</mgrwt>
</event>
<event>
 7    1  0.6387485E-006  0.1306742E+03  0.7546771E-02  0.1241273E+00
         -2   -1    0    0    0  501 -0.00000000000E+00  0.00000000000E+00  0.13538960599E+03  0.13538960599E+03  0.00000000000E+00 0.  1.
          2   -1    0    0  501    0  0.00000000000E+00 -0.00000000000E+00 -0.10942777443E+03  0.10942777443E+03  0.00000000000E+00 0. -1.
         23    2    1    2    0    0  0.32266426168E+02 -0.20249220903E+02  0.58335196655E+02  0.14310391029E+03  0.12499832305E+03 0.  0.
          5    1    3    3  502    0  0.80332118204E+02 -0.14140405589E+02  0.41147193025E+02  0.91478859739E+02  0.47000000000E+01 0. -1.
         -5    1    3    3    0  502 -0.48065692036E+02 -0.61088153144E+01  0.17188003630E+02  0.51625050549E+02  0.47000000000E+01 0. -1.
        -11    1    1    2    0    0  0.59297774828E+01  0.15636231825E+02  0.26528619549E+02  0.31359554554E+02  0.00000000000E+00 0.  1.
         11    1    1    2    0    0 -0.38196203651E+02  0.46129890782E+01 -0.58901984650E+02  0.70353915579E+02  0.00000000000E+00 0. -1.
<mgrwt>
<rscale>  0 0.12111240E+03</rscale>
<asrwt>0</asrwt>
<pdfrwt beam="2">  1        2 0.16835042E-01 0.13067415E+03</pdfrwt>
<pdfrwt beam="1">  1       -2 0.20829170E-01 0.13067415E+03</pdfrwt>
<totfact> 0.62970393E+03</totfact>
</mgrwt>
</event>
<event>
 7    1  0.6387485E-006  0.1286331E+03  0.7546771E-02  0.1243749E+00
          2   -1    0    0  501    0  0.00000000000E+00  0.00000000000E+00  0.53713421041E+03  0.53713421041E+03  0.00000000000E+00 0. -1.
         -2   -1    0    0    0  501 -0.00000000000E+00 -0.00000000000E+00 -0.24346754535E+02  0.24346754535E+02  0.00000000000E+00 0.  1.
         23    2    1    2    0    0  0.28017394917E+02 -0.11671867000E+02  0.24088418303E+03  0.27307811995E+03  0.12500105224E+03 0.  0.
          5    1    3    3  502    0 -0.45705940228E+02  0.15310790201E+02  0.71913924506E+02  0.86701532896E+02  0.47000000000E+01 0.  1.
         -5    1    3    3    0  502  0.73723335145E+02 -0.26982657201E+02  0.16897025853E+03  0.18637658705E+03  0.47000000000E+01 0.  1.
        -11    1    1    2    0    0 -0.12698280052E+02 -0.39484484249E+02  0.96107318879E+02  0.10467515252E+03  0.00000000000E+00 0.  1.
         11    1    1    2    0    0 -0.15319114865E+02  0.51156351249E+02  0.17579595396E+03  0.18372769248E+03  0.00000000000E+00 0. -1.
<mgrwt>
<rscale>  0 0.11960567E+03</rscale>
<asrwt>0</asrwt>
<pdfrwt beam="1">  1        2 0.82636023E-01 0.12863308E+03</pdfrwt>
<pdfrwt beam="2">  1       -2 0.37456550E-02 0.12863308E+03</pdfrwt>
<totfact> 0.16383659E+04</totfact>
</mgrwt>
</event>
<event>
 7    1  0.6387485E-006  0.1735608E+03  0.7546771E-02  0.1178739E+00
          2   -1    0    0  501    0  0.00000000000E+00  0.00000000000E+00  0.10202887727E+03  0.10202887727E+03  0.00000000000E+00 0. -1.
         -2   -1    0    0    0  501 -0.00000000000E+00 -0.00000000000E+00 -0.35966350860E+03  0.35966350860E+03  0.00000000000E+00 0.  1.
         23    2    1    2    0    0  0.52377142231E+02  0.10841332635E+03 -0.25076591897E+03  0.30497031279E+03  0.12500612467E+03 0.  0.
          5    1    3    3  502    0  0.34138367331E+02  0.10764672333E+03 -0.93810064065E+02  0.14688656606E+03  0.47000000000E+01 0.  1.
         -5    1    3    3    0  502  0.18238774900E+02  0.76660301917E+00 -0.15695585491E+03  0.15808374673E+03  0.47000000000E+01 0.  1.
        -11    1    1    2    0    0 -0.79596318149E+02 -0.63794937942E+02 -0.17196138268E+02  0.10344600109E+03  0.00000000000E+00 0.  1.
         11    1    1    2    0    0  0.27219175919E+02 -0.44618388410E+02  0.10327425906E+02  0.53276072001E+02  0.00000000000E+00 0. -1.
<mgrwt>
<rscale>  0 0.16914800E+03</rscale>
<asrwt>0</asrwt>
<pdfrwt beam="1">  1        2 0.15696750E-01 0.17356078E+03</pdfrwt>
<pdfrwt beam="2">  1       -2 0.55332849E-01 0.17356078E+03</pdfrwt>
<totfact> 0.11389076E+03</totfact>
</mgrwt>
</event>
<event>
 7    1  0.6387485E-006  0.1291243E+03  0.7546771E-02  0.1243141E+00
         -2   -1    0    0    0  501 -0.00000000000E+00  0.00000000000E+00  0.32450961341E+02  0.32450961341E+02  0.00000000000E+00 0.  1.
          2   -1    0    0  501    0  0.00000000000E+00 -0.00000000000E+00 -0.40094509852E+03  0.40094509852E+03  0.00000000000E+00 0. -1.
         23    2    1    2    0    0 -0.18325277973E+02  0.26679424624E+02 -0.17713081299E+03  0.21919948349E+03  0.12500192455E+03 0.  0.
          5    1    3    3  502    0 -0.48505508333E+01 -0.17841532400E+02 -0.17098390675E+03  0.17204486185E+03  0.47000000000E+01 0.  1.
         -5    1    3    3    0  502 -0.13474727140E+02  0.44520957024E+02 -0.61469062404E+01  0.47154621641E+02  0.47000000000E+01 0.  1.
        -11    1    1    2    0    0 -0.47129187354E+01  0.28254234523E+02 -0.10802060181E+03  0.11175403253E+03  0.00000000000E+00 0. -1.
         11    1    1    2    0    0  0.23038196709E+02 -0.54933659148E+02 -0.83342722386E+02  0.10244254385E+03  0.00000000000E+00 0.  1.
<mgrwt>
<rscale>  0 0.11997310E+03</rscale>
<asrwt>0</asrwt>
<pdfrwt beam="2">  1        2 0.61683862E-01 0.12912431E+03</pdfrwt>
<pdfrwt beam="1">  1       -2 0.49924555E-02 0.12912431E+03</pdfrwt>
<totfact> 0.14673779E+04</totfact>
</mgrwt>
</event>
<event>
 6    1  0.6387485E-006  0.4584581E+03  0.7546771E-02  0.1056871E+00
          2   -1    0    0  501    0  0.00000000000E+00  0.00000000000E+00  0.72960721749E+03  0.72960721749E+03  0.00000000000E+00 0. -1.
         -2   -1    0    0    0  501 -0.00000000000E+00 -0.00000000000E+00 -0.21498822968E+03  0.21498822968E+03  0.00000000000E+00 0.  1.
          5    1    1    2  502    0  0.24339604211E+03  0.14529161441E+03  0.44835007472E+02  0.28702535503E+03  0.47000000000E+01 0. -1.
         -5    1    1    2    0  502 -0.17487989700E+03 -0.76655352814E+00  0.25095425272E+02  0.17673549827E+03  0.47000000000E+01 0.  1.
        -11    1    1    2    0    0 -0.81939671707E+02 -0.14727040211E+03  0.42083009794E+03  0.45332179792E+03  0.00000000000E+00 0. -1.
         11    1    1    2    0    0  0.13423526595E+02  0.27453412209E+01  0.23858457125E+02  0.27512795952E+02  0.00000000000E+00 0.  1.
<mgrwt>
<rscale>  0 0.36436006E+03</rscale>
<asrwt>0</asrwt>
<pdfrwt beam="1">  1        2 0.11224726E+00 0.45845814E+03</pdfrwt>
<pdfrwt beam="2">  1       -2 0.33075113E-01 0.45845814E+03</pdfrwt>
<totfact> 0.33839703E+02</totfact>
</mgrwt>
</event>
<event>
 7    1  0.6387485E-006  0.1259172E+03  0.7546771E-02  0.1249123E+00
         -1   -1    0    0    0  501 -0.00000000000E+00  0.00000000000E+00  0.16206355163E+03  0.16206355163E+03  0.00000000000E+00 0.  1.
          1   -1    0    0  501    0  0.00000000000E+00 -0.00000000000E+00 -0.75479853726E+02  0.75479853726E+02  0.00000000000E+00 0. -1.
         23    2    1    2    0    0 -0.15835823710E+02  0.13155788511E+01  0.69940922004E+02  0.14403772909E+03  0.12491049104E+03 0.  0.
          5    1    3    3  502    0  0.19243764318E+02 -0.50634867832E+02  0.65528889772E+01  0.54765341772E+02  0.47000000000E+01 0.  1.
         -5    1    3    3    0  502 -0.35079588028E+02  0.51950446683E+02  0.63388033027E+02  0.89272387320E+02  0.47000000000E+01 0.  1.
        -11    1    1    2    0    0 -0.14013174414E+02  0.37556597161E+02 -0.40831226805E+01  0.40293162426E+02  0.00000000000E+00 0. -1.
         11    1    1    2    0    0  0.29848998123E+02 -0.38872176012E+02  0.20725898578E+02  0.53212513836E+02  0.00000000000E+00 0.  1.
<mgrwt>
<rscale>  0 0.11641947E+03</rscale>
<asrwt>0</asrwt>
<pdfrwt beam="2">  1        1 0.11612285E-01 0.12591717E+03</pdfrwt>
<pdfrwt beam="1">  1       -1 0.24932854E-01 0.12591717E+03</pdfrwt>
<totfact> 0.69073426E+03</totfact>
</mgrwt>
</event>
<event>
 7    1  0.6387485E-006  0.1363648E+03  0.7546771E-02  0.1229827E+00
         -1   -1    0    0    0  501 -0.00000000000E+00  0.00000000000E+00  0.32556762535E+02  0.32556762535E+02  0.00000000000E+00 0.  1.
          1   -1    0    0  501    0  0.00000000000E+00 -0.00000000000E+00 -0.45693065984E+03  0.45693065984E+03  0.00000000000E+00 0. -1.
         23    2    1    2    0    0 -0.11630983287E+02 -0.53243155263E+02 -0.25016356251E+03  0.28491605077E+03  0.12500093850E+03 0.  0.
          5    1    3    3  502    0  0.41725198667E+01 -0.94063031675E+01 -0.23559659706E+03  0.23586804575E+03  0.47000000000E+01 0.  1.
         -5    1    3    3    0  502 -0.15803503153E+02 -0.43836852096E+02 -0.14566965445E+02  0.49048005014E+02  0.47000000000E+01 0.  1.
        -11    1    1    2    0    0 -0.16463309827E+02 -0.13997683410E+02 -0.79222775215E+01  0.23016042067E+02  0.00000000000E+00 0.  1.
         11    1    1    2    0    0  0.28094293114E+02  0.67240838674E+02 -0.16628805728E+03  0.18155532954E+03  0.00000000000E+00 0. -1.
<mgrwt>
<rscale>  0 0.12841472E+03</rscale>
<asrwt>0</asrwt>
<pdfrwt beam="2">  1        1 0.70297024E-01 0.13636476E+03</pdfrwt>
<pdfrwt beam="1">  1       -1 0.50087328E-02 0.13636476E+03</pdfrwt>
<totfact> 0.85249843E+03</totfact>
</mgrwt>
</event>
<event>
 7    1  0.6387485E-006  0.1294460E+03  0.7546771E-02  0.1242382E+00
          3   -1    0    0  501    0  0.00000000000E+00  0.00000000000E+00  0.53987592572E+02  0.53987592572E+02  0.00000000000E+00 0. -1.
         -3   -1    0    0    0  501 -0.00000000000E+00 -0.00000000000E+00 -0.24030577772E+03  0.24030577772E+03  0.00000000000E+00 0.  1.
         23    2    1    2    0    0  0.91912695214E+01 -0.32358494113E+02 -0.12226625497E+03  0.17805986628E+03  0.12499890920E+03 0.  0.
          5    1    3    3  502    0 -0.11189372561E+02  0.98264569279E+01  0.21617527140E+02  0.26667748194E+02  0.47000000000E+01 0.  1.
         -5    1    3    3    0  502  0.20380642082E+02 -0.42184951041E+02 -0.14388378211E+03  0.15139211809E+03  0.47000000000E+01 0.  1.
        -11    1    1    2    0    0  0.21657366629E+02  0.31999863469E+02 -0.74282050040E+02  0.83730853032E+02  0.00000000000E+00 0.  1.
         11    1    1    2    0    0 -0.30848636151E+02  0.35863064423E+00  0.10230119858E+02  0.32502650978E+02  0.00000000000E+00 0. -1.
<mgrwt>
<rscale>  0 0.12043461E+03</rscale>
<asrwt>0</asrwt>
<pdfrwt beam="1">  1        3 0.83057834E-02 0.12944605E+03</pdfrwt>
<pdfrwt beam="2">  1       -3 0.36970120E-01 0.12944605E+03</pdfrwt>
<totfact> 0.16521563E+03</totfact>
</mgrwt>
</event>
<event>
 7    1  0.6387485E-006  0.1456440E+03  0.7546771E-02  0.1212393E+00
          3   -1    0    0  501    0  0.00000000000E+00  0.00000000000E+00  0.17578068326E+03  0.17578068326E+03  0.00000000000E+00 0. -1.
         -3   -1    0    0    0  501 -0.00000000000E+00 -0.00000000000E+00 -0.11751635330E+03  0.11751635330E+03  0.00000000000E+00 0.  1.
         23    2    1    2    0    0  0.43674534725E+02 -0.76440439023E+02 -0.15657310064E+02  0.14648318346E+03  0.11602398879E+03 0.  0.
          5    1    3    3  502    0  0.36362945922E+02 -0.95509438098E+02  0.20831307932E+02  0.10440474123E+03  0.47000000000E+01 0. -1.
         -5    1    3    3    0  502  0.73115888033E+01  0.19068999075E+02 -0.36488617996E+02  0.42078442221E+02  0.47000000000E+01 0.  1.
        -11    1    1    2    0    0 -0.10008806905E+02 -0.21261056362E+02  0.13066771068E+02  0.26887715400E+02  0.00000000000E+00 0.  1.
         11    1    1    2    0    0 -0.33665727819E+02  0.97701495385E+02  0.60854868955E+02  0.11992613771E+03  0.00000000000E+00 0. -1.
<mgrwt>
<rscale>  0 0.14069822E+03</rscale>
<asrwt>0</asrwt>
<pdfrwt beam="1">  1        3 0.27043182E-01 0.14564399E+03</pdfrwt>
<pdfrwt beam="2">  1       -3 0.18079439E-01 0.14564399E+03</pdfrwt>
<totfact> 0.81479190E+02</totfact>
</mgrwt>
</event>
<event>
 7    1  0.6387485E-006  0.1273398E+03  0.7546771E-02  0.1255887E+00
         -1   -1    0    0    0  501 -0.00000000000E+00  0.00000000000E+00  0.11337094108E+03  0.11337094108E+03  0.00000000000E+00 0.  1.
          1   -1    0    0  501    0  0.00000000000E+00 -0.00000000000E+00 -0.10032629201E+03  0.10032629201E+03  0.00000000000E+00 0. -1.
         23    2    1    2    0    0  0.24276255325E+02 -0.18212934980E+01  0.36513825648E+02  0.13247148634E+03  0.12499112587E+03 0.  0.
          5    1    3    3  502    0  0.50295741314E+02  0.47485329592E+02  0.83399251559E+01  0.69829524361E+02  0.47000000000E+01 0. -1.
         -5    1    3    3    0  502 -0.26019485989E+02 -0.49306623090E+02  0.28173900492E+02  0.62641961979E+02  0.47000000000E+01 0. -1.
        -11    1    1    2    0    0 -0.27039816937E+02 -0.27344622163E+02 -0.32731576024E+02  0.50499862675E+02  0.00000000000E+00 0. -1.
         11    1    1    2    0    0  0.27635616119E+01  0.29165915661E+02  0.92623994455E+01  0.30725884082E+02  0.00000000000E+00 0.  1.
<mgrwt>
<rscale>  0 0.11256778E+03</rscale>
<asrwt>0</asrwt>
<pdfrwt beam="2">  1        1 0.15434814E-01 0.12733984E+03</pdfrwt>
<pdfrwt beam="1">  1       -1 0.17441683E-01 0.12733984E+03</pdfrwt>
<totfact> 0.84869101E+03</totfact>
</mgrwt>
</event>
<event>
 7    1  0.6387485E-006  0.2406311E+03  0.7546771E-02  0.1122124E+00
         -2   -1    0    0    0  501 -0.00000000000E+00  0.00000000000E+00  0.10133047309E+03  0.10133047309E+03  0.00000000000E+00 0. -1.
          2   -1    0    0  501    0  0.00000000000E+00 -0.00000000000E+00 -0.72457013352E+03  0.72457013352E+03  0.00000000000E+00 0.  1.
         23    2    1    2    0    0  0.13130369066E+03  0.15823654246E+03 -0.10788576840E+03  0.26370939728E+03  0.12499537847E+03 0.  0.
          5    1    3    3  502    0  0.52782934985E+02  0.15083623398E+03 -0.86882249951E+02  0.18195665161E+03  0.47000000000E+01 0. -1.
         -5    1    3    3    0  502  0.78520755677E+02  0.74003084754E+01 -0.21003518447E+02  0.81752745671E+02  0.47000000000E+01 0. -1.
        -11    1    1    2    0    0 -0.40849286297E+02 -0.11900332159E+03 -0.27602060252E+03  0.30334440452E+03  0.00000000000E+00 0.  1.
         11    1    1    2    0    0 -0.90454404364E+02 -0.39233220861E+02 -0.23933328951E+03  0.25884680481E+03  0.00000000000E+00 0. -1.
<mgrwt>
<rscale>  0 0.23653325E+03</rscale>
<asrwt>0</asrwt>
<pdfrwt beam="2">  1        2 0.11147233E+00 0.24063106E+03</pdfrwt>
<pdfrwt beam="1">  1       -2 0.15589303E-01 0.24063106E+03</pdfrwt>
<totfact> 0.12905597E+03</totfact>
</mgrwt>
</event>
<event>
 7    1  0.6387485E-006  0.1251759E+03  0.7546771E-02  0.1248416E+00
          1   -1    0    0  501    0  0.00000000000E+00  0.00000000000E+00  0.45650381515E+02  0.45650381515E+02  0.00000000000E+00 0. -1.
         -1   -1    0    0    0  501 -0.00000000000E+00 -0.00000000000E+00 -0.31058539961E+03  0.31058539961E+03  0.00000000000E+00 0.  1.
         23    2    1    2    0    0  0.58614339008E+01 -0.43110478778E+01 -0.21533011541E+03  0.24907037774E+03  0.12496420658E+03 0.  0.
          5    1    3    3  502    0  0.17059744462E+02 -0.40615386430E+02 -0.20455987819E+03  0.20930236086E+03  0.47000000000E+01 0. -1.
         -5    1    3    3    0  502 -0.11198310561E+02  0.36304338552E+02 -0.10770237221E+02  0.39768016884E+02  0.47000000000E+01 0. -1.
        -11    1    1    2    0    0 -0.14541976934E+02  0.11905136783E+02 -0.76037765289E+02  0.78325877749E+02  0.00000000000E+00 0.  1.
         11    1    1    2    0    0  0.86805430333E+01 -0.75940889051E+01  0.26432862602E+02  0.28839525637E+02  0.00000000000E+00 0. -1.
<mgrwt>
<rscale>  0 0.11683258E+03</rscale>
<asrwt>0</asrwt>
<pdfrwt beam="1">  1        1 0.70231355E-02 0.12517585E+03</pdfrwt>
<pdfrwt beam="2">  1       -1 0.47782370E-01 0.12517585E+03</pdfrwt>
<totfact> 0.44196846E+03</totfact>
</mgrwt>
</event>
<event>
 7    1  0.6387485E-006  0.2389018E+03  0.7546771E-02  0.1123401E+00
         -1   -1    0    0    0  501 -0.00000000000E+00  0.00000000000E+00  0.51773222809E+02  0.51773222809E+02  0.00000000000E+00 0.  1.
          1   -1    0    0  501    0  0.00000000000E+00 -0.00000000000E+00 -0.10320655399E+04  0.10320655399E+04  0.00000000000E+00 0. -1.
         23    2    1    2    0    0 -0.38925706745E+00 -0.20359562449E+03 -0.54367383729E+03  0.59384787771E+03  0.12499092235E+03 0.  0.
          5    1    3    3  502    0 -0.42591947101E+01 -0.29662764757E+01  0.56523332494E+01  0.89988003018E+01  0.47000000000E+01 0. -1.
         -5    1    3    3    0  502  0.38699376426E+01 -0.20062934801E+03 -0.54932617054E+03  0.58484907741E+03  0.47000000000E+01 0. -1.
        -11    1    1    2    0    0  0.28173754025E+02  0.13660238633E+03 -0.35151469296E+03  0.37817529233E+03  0.00000000000E+00 0. -1.
         11    1    1    2    0    0 -0.27784496957E+02  0.66993238153E+02 -0.85103786855E+02  0.11181559268E+03  0.00000000000E+00 0.  1.
<mgrwt>
<rscale>  0 0.23466116E+03</rscale>
<asrwt>0</asrwt>
<pdfrwt beam="2">  1        1 0.15877931E+00 0.23890178E+03</pdfrwt>
<pdfrwt beam="1">  1       -1 0.79651114E-02 0.23890178E+03</pdfrwt>
<totfact> 0.13129414E+03</totfact>
</mgrwt>
</event>
<event>
 7    1  0.6387485E-006  0.1499120E+03  0.7546771E-02  0.1209908E+00
          1   -1    0    0  501    0  0.00000000000E+00  0.00000000000E+00  0.43411324568E+03  0.43411324568E+03  0.00000000000E+00 0. -1.
         -1   -1    0    0    0  501 -0.00000000000E+00 -0.00000000000E+00 -0.54766657501E+02  0.54766657501E+02  0.00000000000E+00 0.  1.
         23    2    1    2    0    0  0.79530064665E+02  0.22835233952E+02  0.90590452147E+02  0.17515775019E+03  0.12500851305E+03 0.  0.
          5    1    3    3  502    0  0.34286325822E+02 -0.48573740178E+02  0.61407793860E+02  0.85603548524E+02  0.47000000000E+01 0.  1.
         -5    1    3    3    0  502  0.45243738844E+02  0.71408974130E+02  0.29182658287E+02  0.89554201663E+02  0.47000000000E+01 0.  1.
        -11    1    1    2    0    0 -0.40565739474E+02  0.25042009014E+02  0.59186263973E+02  0.75997995221E+02  0.00000000000E+00 0.  1.
         11    1    1    2    0    0 -0.38964325191E+02 -0.47877242966E+02  0.22956987206E+03  0.23772415778E+03  0.00000000000E+00 0. -1.
<mgrwt>
<rscale>  0 0.14257344E+03</rscale>
<asrwt>0</asrwt>
<pdfrwt beam="1">  1        1 0.66786651E-01 0.14991200E+03</pdfrwt>
<pdfrwt beam="2">  1       -1 0.84256399E-02 0.14991200E+03</pdfrwt>
<totfact> 0.42014831E+03</totfact>
</mgrwt>
</event>
<event>
 7    1  0.6387485E-006  0.1366874E+03  0.7546771E-02  0.1232934E+00
          1   -1    0    0  501    0  0.00000000000E+00  0.00000000000E+00  0.33091929894E+02  0.33091929894E+02  0.00000000000E+00 0. -1.
         -1   -1    0    0    0  501 -0.00000000000E+00 -0.00000000000E+00 -0.43464644274E+03  0.43464644274E+03  0.00000000000E+00 0.  1.
         23    2    1    2    0    0 -0.11340252090E+02  0.54137314025E+02 -0.26933438497E+03  0.30203385154E+03  0.12499594578E+03 0.  0.
          5    1    3    3  502    0 -0.58687424673E+02  0.51939903243E+02 -0.10608318109E+03  0.13197612918E+03  0.47000000000E+01 0.  1.
         -5    1    3    3    0  502  0.47347172583E+02  0.21974107820E+01 -0.16325120388E+03  0.17005772236E+03  0.47000000000E+01 0.  1.
        -11    1    1    2    0    0 -0.25464031867E+02 -0.42516536812E+02 -0.33800683635E+02  0.59987990762E+02  0.00000000000E+00 0. -1.
         11    1    1    2    0    0  0.36804283956E+02 -0.11620777212E+02 -0.98419444235E+02  0.10571653033E+03  0.00000000000E+00 0.  1.
<mgrwt>
<rscale>  0 0.12637608E+03</rscale>
<asrwt>0</asrwt>
<pdfrwt beam="1">  1        1 0.50910661E-02 0.13668737E+03</pdfrwt>
<pdfrwt beam="2">  1       -1 0.66868684E-01 0.13668737E+03</pdfrwt>
<totfact> 0.36632976E+03</totfact>
</mgrwt>
</event>
<event>
 7    1  0.6387485E-006  0.1258047E+03  0.7546771E-02  0.1246426E+00
          1   -1    0    0  501    0  0.00000000000E+00  0.00000000000E+00  0.54872245654E+03  0.54872245654E+03  0.00000000000E+00 0. -1.
         -1   -1    0    0    0  501 -0.00000000000E+00 -0.00000000000E+00 -0.28816127341E+02  0.28816127341E+02  0.00000000000E+00 0.  1.
         23    2    1    2    0    0  0.11175441373E+02 -0.87631436814E+01  0.15379044939E+03  0.19869152820E+03  0.12500055151E+03 0.  0.
          5    1    3    3  502    0 -0.24007365634E+02 -0.56979612187E+02  0.10277212857E+03  0.12003012214E+03  0.47000000000E+01 0. -1.
         -5    1    3    3    0  502  0.35182807007E+02  0.48216468506E+02  0.51018320818E+02  0.78661406059E+02  0.47000000000E+01 0. -1.
        -11    1    1    2    0    0 -0.50720885313E+02  0.20085740708E+02  0.17294294007E+03  0.18134306082E+03  0.00000000000E+00 0.  1.
         11    1    1    2    0    0  0.39545443940E+02 -0.11322597027E+02  0.19317293974E+03  0.19750399486E+03  0.00000000000E+00 0. -1.
<mgrwt>
<rscale>  0 0.11800435E+03</rscale>
<asrwt>0</asrwt>
<pdfrwt beam="1">  1        1 0.84418832E-01 0.12580469E+03</pdfrwt>
<pdfrwt beam="2">  1       -1 0.44332508E-02 0.12580469E+03</pdfrwt>
<totfact> 0.79969005E+03</totfact>
</mgrwt>
</event>
<event>
 6    1  0.6387485E-006  0.3539845E+03  0.7546771E-02  0.1108488E+00
         -1   -1    0    0    0  501 -0.00000000000E+00  0.00000000000E+00  0.31145008101E+02  0.31145008101E+02  0.00000000000E+00 0.  1.
          1   -1    0    0  501    0  0.00000000000E+00 -0.00000000000E+00 -0.16770216849E+04  0.16770216849E+04  0.00000000000E+00 0. -1.
          5    1    1    2  502    0 -0.11231724753E+03  0.14765861225E+03 -0.80824251857E+03  0.82927455567E+03  0.47000000000E+01 0. -1.
         -5    1    1    2    0  502  0.11339015021E+03 -0.10638045734E+03 -0.38092594826E+03  0.41146177943E+03  0.47000000000E+01 0.  1.
        -11    1    1    2    0    0 -0.31688295020E+02 -0.56672732580E+02 -0.27997115052E+03  0.28740179502E+03  0.00000000000E+00 0. -1.
         11    1    1    2    0    0  0.30615392335E+02  0.15394577668E+02 -0.17673705945E+03  0.18002856288E+03  0.00000000000E+00 0.  1.
<mgrwt>
<rscale>  0 0.25777484E+03</rscale>
<asrwt>0</asrwt>
<pdfrwt beam="2">  1        1 0.25800335E+00 0.35398448E+03</pdfrwt>
<pdfrwt beam="1">  1       -1 0.47915395E-02 0.35398448E+03</pdfrwt>
<totfact> 0.10208450E+03</totfact>
</mgrwt>
</event>
<event>
 7    1  0.6387485E-006  0.1425692E+03  0.7546771E-02  0.1220325E+00
         -4   -1    0    0    0  501 -0.00000000000E+00  0.00000000000E+00  0.18453168787E+03  0.18453168787E+03  0.00000000000E+00 0.  1.
          4   -1    0    0  501    0  0.00000000000E+00 -0.00000000000E+00 -0.91414384534E+02  0.91414384534E+02  0.00000000000E+00 0. -1.
         23    2    1    2    0    0 -0.51433185350E+02  0.45345570647E+02  0.71728643520E+02  0.15959631823E+03  0.12499757261E+03 0.  0.
          5    1    3    3  502    0  0.41179660026E+02  0.20619943086E+02  0.18508044522E+02  0.49855633230E+02  0.47000000000E+01 0.  1.
         -5    1    3    3    0  502 -0.92612845376E+02  0.24725627562E+02  0.53220598998E+02  0.10974068500E+03  0.47000000000E+01 0.  1.
        -11    1    1    2    0    0 -0.11680575089E+02 -0.28528390030E+02  0.38022484508E+02  0.48949098054E+02  0.00000000000E+00 0.  1.
         11    1    1    2    0    0  0.63113760439E+02 -0.16817180617E+02 -0.16633824695E+02  0.67400656115E+02  0.00000000000E+00 0. -1.
<mgrwt>
<rscale>  0 0.13492563E+03</rscale>
<asrwt>0</asrwt>
<pdfrwt beam="2">  1        4 0.14063752E-01 0.14256923E+03</pdfrwt>
<pdfrwt beam="1">  1       -4 0.28389490E-01 0.14256923E+03</pdfrwt>
<totfact> 0.83173260E+02</totfact>
</mgrwt>
</event>
<event>
 7    1  0.6387485E-006  0.1341169E+03  0.7546771E-02  0.1232844E+00
          1   -1    0    0  501    0  0.00000000000E+00  0.00000000000E+00  0.11340069017E+03  0.11340069017E+03  0.00000000000E+00 0. -1.
         -1   -1    0    0    0  501 -0.00000000000E+00 -0.00000000000E+00 -0.12703297375E+03  0.12703297375E+03  0.00000000000E+00 0.  1.
         23    2    1    2    0    0  0.15992631259E+02 -0.45890477064E+02 -0.72459810863E+01  0.13431245305E+03  0.12500252262E+03 0.  0.
          5    1    3    3  502    0  0.44213786593E+02  0.16765893813E+02 -0.36057179391E+02  0.59650350425E+02  0.47000000000E+01 0. -1.
         -5    1    3    3    0  502 -0.28221155333E+02 -0.62656370877E+02  0.28811198305E+02  0.74662102620E+02  0.47000000000E+01 0. -1.
        -11    1    1    2    0    0  0.10767677706E+01  0.71032503805E+02  0.97619646361E+01  0.71708242059E+02  0.00000000000E+00 0.  1.
         11    1    1    2    0    0 -0.17069399030E+02 -0.25142026740E+02 -0.16148267124E+02  0.34412968819E+02  0.00000000000E+00 0. -1.
<mgrwt>
<rscale>  0 0.12643465E+03</rscale>
<asrwt>0</asrwt>
<pdfrwt beam="1">  1        1 0.17446260E-01 0.13411686E+03</pdfrwt>
<pdfrwt beam="2">  1       -1 0.19543534E-01 0.13411686E+03</pdfrwt>
<totfact> 0.60721931E+03</totfact>
</mgrwt>
</event>
<event>
 6    1  0.6387485E-006  0.2197768E+03  0.7546771E-02  0.1201889E+00
          2   -1    0    0  501    0  0.00000000000E+00  0.00000000000E+00  0.54807793371E+03  0.54807793371E+03  0.00000000000E+00 0. -1.
         -2   -1    0    0    0  501 -0.00000000000E+00 -0.00000000000E+00 -0.32996022315E+02  0.32996022315E+02  0.00000000000E+00 0.  1.
          5    1    1    2  502    0  0.62863906642E+02 -0.16402577041E+02  0.34483853578E+03  0.35093677643E+03  0.47000000000E+01 0. -1.
         -5    1    1    2    0  502 -0.60170916953E+02  0.60097534358E+02  0.44370326524E+02  0.96036809395E+02  0.47000000000E+01 0.  1.
        -11    1    1    2    0    0  0.42956867566E+01 -0.34143842459E+02  0.93811461357E+02  0.99924197192E+02  0.00000000000E+00 0.  1.
         11    1    1    2    0    0 -0.69886764456E+01 -0.95511148585E+01  0.32061587726E+02  0.34176173001E+02  0.00000000000E+00 0. -1.
<mgrwt>
<rscale>  0 0.14885377E+03</rscale>
<asrwt>0</asrwt>
<pdfrwt beam="1">  1        2 0.84319676E-01 0.21977681E+03</pdfrwt>
<pdfrwt beam="2">  1       -2 0.50763115E-02 0.21977681E+03</pdfrwt>
<totfact> 0.10536391E+04</totfact>
</mgrwt>
</event>
<event>
 7    1  0.8853909E-006  0.3857148E+03  0.7546771E-02  0.1049735E+00
          2   -1    0    0  501    0  0.00000000000E+00  0.00000000000E+00  0.10342226041E+04  0.10342226041E+04  0.00000000000E+00 0. -1.
         -2   -1    0    0    0  501 -0.00000000000E+00 -0.00000000000E+00 -0.15246539118E+03  0.15246539118E+03  0.00000000000E+00 0.  1.
         23    2    1    2    0    0  0.29809259850E+03  0.21045533336E+03  0.27812447280E+03  0.47553035546E+03  0.12500100789E+03 0.  0.
          5    1    3    3  502    0 -0.99542828967E+01 -0.34504340916E+00  0.15875671351E+02  0.19321846283E+02  0.47000000000E+01 0.  1.
         -5    1    3    3    0  502  0.30804688140E+03  0.21080037677E+03  0.26224880145E+03  0.45620850918E+03  0.47000000000E+01 0.  1.
        -11    1    1    2    0    0 -0.10394518149E+03 -0.63897534573E+02  0.28709945398E+03  0.31195126568E+03  0.00000000000E+00 0.  1.
         11    1    1    2    0    0 -0.19414741702E+03 -0.14655779879E+03  0.31653328615E+03  0.39920637415E+03  0.00000000000E+00 0. -1.
<mgrwt>
<rscale>  0 0.38326169E+03</rscale>
<asrwt>0</asrwt>
<pdfrwt beam="1">  1        2 0.15911117E+00 0.38571479E+03</pdfrwt>
<pdfrwt beam="2">  1       -2 0.23456215E-01 0.38571479E+03</pdfrwt>
<totfact> 0.39644042E+02</totfact>
</mgrwt>
</event>
<event>
 7    1  0.6387485E-006  0.1436790E+03  0.7546771E-02  0.1219637E+00
         -2   -1    0    0    0  501 -0.00000000000E+00  0.00000000000E+00  0.27490175670E+03  0.27490175670E+03  0.00000000000E+00 0.  1.
          2   -1    0    0  501    0  0.00000000000E+00 -0.00000000000E+00 -0.66505840026E+02  0.66505840026E+02  0.00000000000E+00 0. -1.
         23    2    1    2    0    0 -0.12865463396E+02  0.69664741060E+02  0.16800321204E+03  0.22106271437E+03  0.12499979253E+03 0.  0.
          5    1    3    3  502    0 -0.12716542628E+02  0.10126586711E+03  0.87735554281E+02  0.13467035228E+03  0.47000000000E+01 0.  1.
         -5    1    3    3    0  502 -0.14892076790E+00 -0.31601126052E+02  0.80267657757E+02  0.86392362087E+02  0.47000000000E+01 0.  1.
        -11    1    1    2    0    0  0.16083498316E+02 -0.84397379882E+02  0.52776814951E+02  0.10083148737E+03  0.00000000000E+00 0.  1.
         11    1    1    2    0    0 -0.32180349200E+01  0.14732638822E+02 -0.12384110319E+02  0.19513394984E+02  0.00000000000E+00 0. -1.
<mgrwt>
<rscale>  0 0.13541393E+03</rscale>
<asrwt>0</asrwt>
<pdfrwt beam="2">  1        2 0.10231668E-01 0.14367896E+03</pdfrwt>
<pdfrwt beam="1">  1       -2 0.42292577E-01 0.14367896E+03</pdfrwt>
<totfact> 0.32040982E+03</totfact>
</mgrwt>
</event>
<event>
 7    1  0.6387485E-006  0.1332661E+03  0.7546771E-02  0.1230581E+00
         -1   -1    0    0    0  501 -0.00000000000E+00  0.00000000000E+00  0.14816970726E+03  0.14816970726E+03  0.00000000000E+00 0.  1.
          1   -1    0    0  501    0  0.00000000000E+00 -0.00000000000E+00 -0.10538435382E+03  0.10538435382E+03  0.00000000000E+00 0. -1.
         23    2    1    2    0    0 -0.40285519946E+02  0.22624227970E+02  0.44260027020E+02  0.14042366575E+03  0.12500030841E+03 0.  0.
          5    1    3    3  502    0 -0.14947834016E+02 -0.49043902854E+02  0.38030321643E+02  0.64008886205E+02  0.47000000000E+01 0. -1.
         -5    1    3    3    0  502 -0.25337685930E+02  0.71668130824E+02  0.62297053767E+01  0.76414779547E+02  0.47000000000E+01 0. -1.
        -11    1    1    2    0    0  0.20692120844E+02 -0.11661026910E+02  0.50887519298E+02  0.56157662291E+02  0.00000000000E+00 0.  1.
         11    1    1    2    0    0  0.19593399102E+02 -0.10963201060E+02 -0.52362192886E+02  0.56972733037E+02  0.00000000000E+00 0. -1.
<mgrwt>
<rscale>  0 0.12791615E+03</rscale>
<asrwt>0</asrwt>
<pdfrwt beam="2">  1        1 0.16212978E-01 0.13326611E+03</pdfrwt>
<pdfrwt beam="1">  1       -1 0.22795339E-01 0.13326611E+03</pdfrwt>
<totfact> 0.52026177E+03</totfact>
</mgrwt>
</event>
<event>
 7    1  0.6387485E-006  0.1805422E+03  0.7546771E-02  0.1172514E+00
          1   -1    0    0  501    0  0.00000000000E+00  0.00000000000E+00  0.19554707288E+03  0.19554707288E+03  0.00000000000E+00 0. -1.
         -1   -1    0    0    0  501 -0.00000000000E+00 -0.00000000000E+00 -0.18308903026E+03  0.18308903026E+03  0.00000000000E+00 0.  1.
         23    2    1    2    0    0 -0.11057530765E+03 -0.68873225153E+02 -0.75749260825E+02  0.19578926852E+03  0.12500026939E+03 0.  0.
          5    1    3    3  502    0  0.26113877379E+02 -0.20526054746E+02 -0.25964326701E+02  0.42420393400E+02  0.47000000000E+01 0.  1.
         -5    1    3    3    0  502 -0.13668918503E+03 -0.48347170407E+02 -0.49784934124E+02  0.15336887512E+03  0.47000000000E+01 0.  1.
        -11    1    1    2    0    0  0.78498604601E+02  0.31556973346E+02  0.32488037644E+01  0.84666570835E+02  0.00000000000E+00 0.  1.
         11    1    1    2    0    0  0.32076703047E+02  0.37316251806E+02  0.84958499683E+02  0.98180263779E+02  0.00000000000E+00 0. -1.
<mgrwt>
<rscale>  0 0.17521655E+03</rscale>
<asrwt>0</asrwt>
<pdfrwt beam="1">  1        1 0.30084165E-01 0.18054220E+03</pdfrwt>
<pdfrwt beam="2">  1       -1 0.28167543E-01 0.18054220E+03</pdfrwt>
<totfact> 0.16972586E+03</totfact>
</mgrwt>
</event>
<event>
 7    1  0.6387485E-006  0.1350513E+03  0.7546771E-02  0.1231795E+00
          1   -1    0    0  501    0  0.00000000000E+00  0.00000000000E+00  0.31098721719E+03  0.31098721719E+03  0.00000000000E+00 0. -1.
         -1   -1    0    0    0  501 -0.00000000000E+00 -0.00000000000E+00 -0.78460218559E+02  0.78460218559E+02  0.00000000000E+00 0.  1.
         23    2    1    2    0    0  0.51853852103E+02  0.13994040745E+02  0.12765025709E+01  0.13505732456E+03  0.12391205068E+03 0.  0.
          5    1    3    3  502    0  0.74710243649E+02 -0.21510295635E+02 -0.28758586940E+02  0.83026860998E+02  0.47000000000E+01 0. -1.
         -5    1    3    3    0  502 -0.22856391546E+02  0.35504336380E+02  0.30035089511E+02  0.52030463560E+02  0.47000000000E+01 0.  1.
        -11    1    1    2    0    0 -0.50380583158E+02 -0.28814085482E+02  0.23231882777E+03  0.23945874889E+03  0.00000000000E+00 0. -1.
         11    1    1    2    0    0 -0.14732689454E+01  0.14820044737E+02 -0.10683317172E+01  0.14931362297E+02  0.00000000000E+00 0.  1.
<mgrwt>
<rscale>  0 0.12711826E+03</rscale>
<asrwt>0</asrwt>
<pdfrwt beam="1">  1        1 0.47844187E-01 0.13505129E+03</pdfrwt>
<pdfrwt beam="2">  1       -1 0.12070803E-01 0.13505129E+03</pdfrwt>
<totfact> 0.36668964E+03</totfact>
</mgrwt>
</event>
<event>
 7    1  0.6387485E-006  0.2041456E+03  0.7546771E-02  0.1150213E+00
         -1   -1    0    0    0  501 -0.00000000000E+00  0.00000000000E+00  0.17951651691E+03  0.17951651691E+03  0.00000000000E+00 0.  1.
          1   -1    0    0  501    0  0.00000000000E+00 -0.00000000000E+00 -0.21799388062E+03  0.21799388062E+03  0.00000000000E+00 0. -1.
         23    2    1    2    0    0  0.96324264526E+02  0.12950262885E+03  0.12994329862E+02  0.20455872403E+03  0.12500449652E+03 0.  0.
          5    1    3    3  502    0  0.22080369317E+02  0.37858441305E+02 -0.53310679242E+02  0.69173136465E+02  0.47000000000E+01 0. -1.
         -5    1    3    3    0  502  0.74243895209E+02  0.91644187547E+02  0.66305009104E+02  0.13538558756E+03  0.47000000000E+01 0. -1.
        -11    1    1    2    0    0 -0.10655774249E+03 -0.11553285416E+03 -0.21907863932E+02  0.15868946838E+03  0.00000000000E+00 0.  1.
         11    1    1    2    0    0  0.10233477965E+02 -0.13969774696E+02 -0.29563829637E+02  0.34262205112E+02  0.00000000000E+00 0. -1.
<mgrwt>
<rscale>  0 0.19943882E+03</rscale>
<asrwt>0</asrwt>
<pdfrwt beam="2">  1        1 0.33537520E-01 0.20414558E+03</pdfrwt>
<pdfrwt beam="1">  1       -1 0.27617926E-01 0.20414558E+03</pdfrwt>
<totfact> 0.15356229E+03</totfact>
</mgrwt>
</event>
<event>
 7    1  0.6387485E-006  0.1309301E+03  0.7546771E-02  0.1239464E+00
          2   -1    0    0  501    0  0.00000000000E+00  0.00000000000E+00  0.40757392673E+02  0.40757392673E+02  0.00000000000E+00 0. -1.
         -2   -1    0    0    0  501 -0.00000000000E+00 -0.00000000000E+00 -0.40812719644E+03  0.40812719644E+03  0.00000000000E+00 0.  1.
         23    2    1    2    0    0 -0.30987770983E+02  0.23566125118E+02 -0.30391609398E+03  0.33091944111E+03  0.12500832021E+03 0.  0.
          5    1    3    3  502    0 -0.33070542050E+02  0.45020788213E+02 -0.30372654243E+03  0.30885665721E+03  0.47000000000E+01 0.  1.
         -5    1    3    3    0  502  0.20827710676E+01 -0.21454663095E+02 -0.18955154760E+00  0.22062783905E+02  0.47000000000E+01 0.  1.
        -11    1    1    2    0    0  0.96649445690E+01 -0.48163699710E+02 -0.28920352076E+01  0.49208911703E+02  0.00000000000E+00 0. -1.
         11    1    1    2    0    0  0.21322826414E+02  0.24597574592E+02 -0.60561674579E+02  0.68756236298E+02  0.00000000000E+00 0.  1.
<mgrwt>
<rscale>  0 0.12222944E+03</rscale>
<asrwt>0</asrwt>
<pdfrwt beam="1">  1        2 0.62703685E-02 0.13093007E+03</pdfrwt>
<pdfrwt beam="2">  1       -2 0.62788796E-01 0.13093007E+03</pdfrwt>
<totfact> 0.26812336E+03</totfact>
</mgrwt>
</event>
<event>
 7    1  0.6387485E-006  0.1600265E+03  0.7546771E-02  0.1196077E+00
          1   -1    0    0  501    0  0.00000000000E+00  0.00000000000E+00  0.10872165690E+03  0.10872165690E+03  0.00000000000E+00 0. -1.
         -1   -1    0    0    0  501 -0.00000000000E+00 -0.00000000000E+00 -0.20165278821E+03  0.20165278821E+03  0.00000000000E+00 0.  1.
         23    2    1    2    0    0 -0.79473037085E+02  0.60515191370E+02 -0.45145752180E+02  0.16627275628E+03  0.12502175224E+03 0.  0.
          5    1    3    3  502    0 -0.97666839842E+02  0.21400128700E+01 -0.19125207270E+02  0.99655681287E+02  0.47000000000E+01 0. -1.
         -5    1    3    3    0  502  0.18193802757E+02  0.58375178500E+02 -0.26020544910E+02  0.66617074997E+02  0.47000000000E+01 0. -1.
        -11    1    1    2    0    0  0.96627778089E+01 -0.48156734971E+02 -0.53924892275E+02  0.72940622460E+02  0.00000000000E+00 0.  1.
         11    1    1    2    0    0  0.69810259276E+02 -0.12358456400E+02  0.61395131464E+01  0.71161066367E+02  0.00000000000E+00 0. -1.
<mgrwt>
<rscale>  0 0.15363395E+03</rscale>
<asrwt>0</asrwt>
<pdfrwt beam="1">  1        1 0.16726409E-01 0.16002653E+03</pdfrwt>
<pdfrwt beam="2">  1       -1 0.31023506E-01 0.16002653E+03</pdfrwt>
<totfact> 0.30285874E+03</totfact>
</mgrwt>
</event>
<event>
 7    1  0.6387485E-006  0.1897731E+03  0.7546771E-02  0.1163772E+00
          1   -1    0    0  501    0  0.00000000000E+00  0.00000000000E+00  0.63226379452E+02  0.63226379452E+02  0.00000000000E+00 0. -1.
         -1   -1    0    0    0  501 -0.00000000000E+00 -0.00000000000E+00 -0.55141419632E+03  0.55141419632E+03  0.00000000000E+00 0.  1.
         23    2    1    2    0    0 -0.10186281902E+03  0.10006272524E+03 -0.34381293890E+03  0.39271002146E+03  0.12500096447E+03 0.  0.
          5    1    3    3  502    0 -0.48180999673E+02  0.68439142817E+01 -0.23348277267E+03  0.23854673133E+03  0.47000000000E+01 0.  1.
         -5    1    3    3    0  502 -0.53681819343E+02  0.93218810958E+02 -0.11033016623E+03  0.15416329014E+03  0.47000000000E+01 0.  1.
        -11    1    1    2    0    0  0.32160148639E+02 -0.72679577166E+02 -0.11852678769E+03  0.14270667643E+03  0.00000000000E+00 0.  1.
         11    1    1    2    0    0  0.69702670376E+02 -0.27383148074E+02 -0.25848090280E+02  0.79223877885E+02  0.00000000000E+00 0. -1.
<mgrwt>
<rscale>  0 0.18422904E+03</rscale>
<asrwt>0</asrwt>
<pdfrwt beam="1">  1        1 0.97271357E-02 0.18977309E+03</pdfrwt>
<pdfrwt beam="2">  1       -1 0.84832950E-01 0.18977309E+03</pdfrwt>
<totfact> 0.95431832E+02</totfact>
</mgrwt>
</event>
<event>
 7    1  0.6387485E-006  0.3086527E+03  0.7546771E-02  0.1082430E+00
         -1   -1    0    0    0  501 -0.00000000000E+00  0.00000000000E+00  0.19808796428E+03  0.19808796428E+03  0.00000000000E+00 0.  1.
          1   -1    0    0  501    0  0.00000000000E+00 -0.00000000000E+00 -0.74354114887E+03  0.74354114887E+03  0.00000000000E+00 0. -1.
         23    2    1    2    0    0 -0.27651008478E+03 -0.56430464242E+02  0.13212572402E+02  0.30893541040E+03  0.12499716577E+03 0.  0.
          5    1    3    3  502    0 -0.10533089027E+03  0.10694801180E+02  0.56332885690E+02  0.12001857868E+03  0.47000000000E+01 0.  1.
         -5    1    3    3    0  502 -0.17117919450E+03 -0.67125265423E+02 -0.43120313288E+02  0.18891683172E+03  0.47000000000E+01 0.  1.
        -11    1    1    2    0    0  0.92644566531E+02  0.31263236299E+02 -0.29099475967E+03  0.30698266369E+03  0.00000000000E+00 0.  1.
         11    1    1    2    0    0  0.18386551825E+03  0.25167227944E+02 -0.26767099732E+03  0.32571103906E+03  0.00000000000E+00 0. -1.
<mgrwt>
<rscale>  0 0.30569084E+03</rscale>
<asrwt>0</asrwt>
<pdfrwt beam="2">  1        1 0.11439094E+00 0.30865274E+03</pdfrwt>
<pdfrwt beam="1">  1       -1 0.30475072E-01 0.30865274E+03</pdfrwt>
<totfact> 0.25742747E+02</totfact>
</mgrwt>
</event>
<event>
 7    1  0.6387485E-006  0.1495820E+03  0.7546771E-02  0.1211343E+00
         -2   -1    0    0    0  501 -0.00000000000E+00  0.00000000000E+00  0.45183379072E+02  0.45183379072E+02  0.00000000000E+00 0.  1.
          2   -1    0    0  501    0  0.00000000000E+00 -0.00000000000E+00 -0.40575116417E+03  0.40575116417E+03  0.00000000000E+00 0. -1.
         23    2    1    2    0    0 -0.17817151729E+02 -0.80204393041E+02 -0.22347808048E+03  0.26891860642E+03  0.12499827544E+03 0.  0.
          5    1    3    3  502    0 -0.14277225041E+02 -0.73888120646E+02 -0.23929830229E+03  0.25089651453E+03  0.47000000000E+01 0. -1.
         -5    1    3    3    0  502 -0.35399266875E+01 -0.63162723950E+01  0.15820221805E+02  0.18022091884E+02  0.47000000000E+01 0. -1.
        -11    1    1    2    0    0  0.21512589501E+02  0.22683433051E+02 -0.11679707897E+03  0.12090859067E+03  0.00000000000E+00 0. -1.
         11    1    1    2    0    0 -0.36954377722E+01  0.57520959989E+02 -0.20292625645E+02  0.61107346154E+02  0.00000000000E+00 0.  1.
<mgrwt>
<rscale>  0 0.14148609E+03</rscale>
<asrwt>0</asrwt>
<pdfrwt beam="2">  1        2 0.62423259E-01 0.14958197E+03</pdfrwt>
<pdfrwt beam="1">  1       -2 0.69512888E-02 0.14958197E+03</pdfrwt>
<totfact> 0.88681026E+03</totfact>
</mgrwt>
</event>
<event>
 6    1  0.6387485E-006  0.1646493E+03  0.7546771E-02  0.1194425E+00
          1   -1    0    0  501    0  0.00000000000E+00  0.00000000000E+00  0.90299316902E+02  0.90299316902E+02  0.00000000000E+00 0. -1.
         -1   -1    0    0    0  501 -0.00000000000E+00 -0.00000000000E+00 -0.40087134446E+03  0.40087134446E+03  0.00000000000E+00 0.  1.
          5    1    1    2  502    0 -0.23189250328E+02 -0.94675436906E+01  0.39053822461E+01  0.25782120254E+02  0.47000000000E+01 0. -1.
         -5    1    1    2    0  502 -0.16483403557E+02 -0.79521016695E+02 -0.32549578242E+03  0.33550691358E+03  0.47000000000E+01 0.  1.
        -11    1    1    2    0    0  0.15487037138E+02 -0.13142653734E+02 -0.10312772177E+02  0.22780055673E+02  0.00000000000E+00 0.  1.
         11    1    1    2    0    0  0.24185616748E+02  0.10213121412E+03  0.21331144794E+02  0.10710157185E+03  0.00000000000E+00 0. -1.
<mgrwt>
<rscale>  0 0.15502962E+03</rscale>
<asrwt>0</asrwt>
<pdfrwt beam="1">  1        1 0.13892203E-01 0.16464927E+03</pdfrwt>
<pdfrwt beam="2">  1       -1 0.61672514E-01 0.16464927E+03</pdfrwt>
<totfact> 0.11247606E+03</totfact>
</mgrwt>
</event>
<event>
 7    1  0.6387485E-006  0.1183417E+03  0.7546771E-02  0.1256807E+00
          2   -1    0    0  501    0  0.00000000000E+00  0.00000000000E+00  0.27092899637E+03  0.27092899637E+03  0.00000000000E+00 0. -1.
         -2   -1    0    0    0  501 -0.00000000000E+00 -0.00000000000E+00 -0.12598219859E+03  0.12598219859E+03  0.00000000000E+00 0.  1.
         23    2    1    2    0    0  0.20988603915E+02  0.19583116792E+02 -0.86559112599E+02  0.14661935220E+03  0.11480738002E+03 0.  0.
          5    1    3    3  502    0  0.66386760836E+01  0.66177729003E+02 -0.64959043535E+02  0.93087760598E+02  0.47000000000E+01 0. -1.
         -5    1    3    3    0  502  0.14349927831E+02 -0.46594612211E+02 -0.21600069064E+02  0.53531591602E+02  0.47000000000E+01 0.  1.
        -11    1    1    2    0    0  0.89181896469E+01  0.29380971402E+02  0.13111385073E+03  0.13466112074E+03  0.00000000000E+00 0.  1.
         11    1    1    2    0    0 -0.29906793562E+02 -0.48964088194E+02  0.10039205965E+03  0.11563072202E+03  0.00000000000E+00 0. -1.
<mgrwt>
<rscale>  0 0.11205739E+03</rscale>
<asrwt>0</asrwt>
<pdfrwt beam="1">  1        2 0.41681384E-01 0.11834169E+03</pdfrwt>
<pdfrwt beam="2">  1       -2 0.19381877E-01 0.11834169E+03</pdfrwt>
<totfact> 0.26147714E+03</totfact>
</mgrwt>
</event>
<event>
 7    1  0.6387485E-006  0.1454501E+03  0.7546771E-02  0.1217024E+00
          4   -1    0    0  501    0  0.00000000000E+00  0.00000000000E+00  0.57029097286E+03  0.57029097286E+03  0.00000000000E+00 0. -1.
         -4   -1    0    0    0  501 -0.00000000000E+00 -0.00000000000E+00 -0.36811521374E+02  0.36811521374E+02  0.00000000000E+00 0.  1.
         23    2    1    2    0    0  0.17197326957E+02 -0.72351907038E+02  0.16020928478E+03  0.21638565016E+03  0.12500075263E+03 0.  0.
          5    1    3    3  502    0  0.60361907887E+02 -0.51714987949E+02  0.14592259822E+03  0.16623325351E+03  0.47000000000E+01 0.  1.
         -5    1    3    3    0  502 -0.43164580930E+02 -0.20636919089E+02  0.14286686561E+02  0.50152396645E+02  0.47000000000E+01 0.  1.
        -11    1    1    2    0    0  0.11070759161E+02 -0.88940004838E+01  0.99201345088E+01  0.17322644766E+02  0.00000000000E+00 0.  1.
         11    1    1    2    0    0 -0.28268086118E+02  0.81245907521E+02  0.36335003219E+03  0.37339419931E+03  0.00000000000E+00 0. -1.
<mgrwt>
<rscale>  0 0.13728889E+03</rscale>
<asrwt>0</asrwt>
<pdfrwt beam="1">  1        4 0.87737066E-01 0.14545011E+03</pdfrwt>
<pdfrwt beam="2">  1       -4 0.56633114E-02 0.14545011E+03</pdfrwt>
<totfact> 0.37988907E+02</totfact>
</mgrwt>
</event>
<event>
 7    1  0.2655745E-005  0.4209180E+03  0.7546771E-02  0.1037499E+00
          1   -1    0    0  501    0  0.00000000000E+00  0.00000000000E+00  0.31408772863E+03  0.31408772863E+03  0.00000000000E+00 0. -1.
         -1   -1    0    0    0  501 -0.00000000000E+00 -0.00000000000E+00 -0.55403898532E+03  0.55403898532E+03  0.00000000000E+00 0.  1.
         23    2    1    2    0    0 -0.11783036995E+03  0.38426949706E+03 -0.14623964814E+03  0.44559846743E+03  0.12499966815E+03 0.  0.
          5    1    3    3  502    0 -0.32806183999E+02  0.14154882016E+03  0.81364626301E+01  0.14560427954E+03  0.47000000000E+01 0. -1.
         -5    1    3    3    0  502 -0.85024185954E+02  0.24272067690E+03 -0.15437611077E+03  0.29999418789E+03  0.47000000000E+01 0. -1.
        -11    1    1    2    0    0  0.17325426061E+02 -0.20331803755E+03 -0.32104154978E+02  0.20656493301E+03  0.00000000000E+00 0.  1.
         11    1    1    2    0    0  0.10050494389E+03 -0.18095145951E+03 -0.61607453573E+02  0.21596331351E+03  0.00000000000E+00 0. -1.
<mgrwt>
<rscale>  0 0.41867187E+03</rscale>
<asrwt>0</asrwt>
<pdfrwt beam="1">  1        1 0.48321189E-01 0.42091800E+03</pdfrwt>
<pdfrwt beam="2">  1       -1 0.85236767E-01 0.42091800E+03</pdfrwt>
<totfact> 0.11701524E+02</totfact>
</mgrwt>
</event>
<event>
 7    1  0.6387485E-006  0.1423046E+03  0.7546771E-02  0.1220911E+00
          1   -1    0    0  501    0  0.00000000000E+00  0.00000000000E+00  0.51187415461E+02  0.51187415461E+02  0.00000000000E+00 0. -1.
         -1   -1    0    0    0  501 -0.00000000000E+00 -0.00000000000E+00 -0.33269148671E+03  0.33269148671E+03  0.00000000000E+00 0.  1.
         23    2    1    2    0    0  0.46547650526E+02  0.49666532657E+02 -0.19342606318E+03  0.24013381545E+03  0.12496863274E+03 0.  0.
          5    1    3    3  502    0 -0.92978293492E+01  0.78562814285E+02 -0.10759730596E+03  0.13363321319E+03  0.47000000000E+01 0. -1.
         -5    1    3    3    0  502  0.55845479875E+02 -0.28896281628E+02 -0.85828757220E+02  0.10650060225E+03  0.47000000000E+01 0. -1.
        -11    1    1    2    0    0 -0.18492305246E+02  0.26544015401E+02 -0.26800638977E+02  0.42009812621E+02  0.00000000000E+00 0.  1.
         11    1    1    2    0    0 -0.28055345280E+02 -0.76210548058E+02 -0.61277369097E+02  0.10173527411E+03  0.00000000000E+00 0. -1.
<mgrwt>
<rscale>  0 0.13451127E+03</rscale>
<asrwt>0</asrwt>
<pdfrwt beam="1">  1        1 0.78749871E-02 0.14230463E+03</pdfrwt>
<pdfrwt beam="2">  1       -1 0.51183305E-01 0.14230463E+03</pdfrwt>
<totfact> 0.33694354E+03</totfact>
</mgrwt>
</event>
<event>
 7    1  0.6387485E-006  0.1755212E+03  0.7546771E-02  0.1178228E+00
         -1   -1    0    0    0  501 -0.00000000000E+00  0.00000000000E+00  0.58580585373E+02  0.58580585373E+02  0.00000000000E+00 0.  1.
          1   -1    0    0  501    0  0.00000000000E+00 -0.00000000000E+00 -0.46404863379E+03  0.46404863379E+03  0.00000000000E+00 0. -1.
         23    2    1    2    0    0  0.11954423423E+03 -0.29873617619E+02 -0.19524636422E+03  0.26254299492E+03  0.12499769787E+03 0.  0.
          5    1    3    3  502    0  0.33364314158E+02 -0.18859951944E+02  0.97681882306E+01  0.39829420632E+02  0.47000000000E+01 0.  1.
         -5    1    3    3    0  502  0.86179920074E+02 -0.11013665675E+02 -0.20501455245E+03  0.22271357429E+03  0.47000000000E+01 0.  1.
        -11    1    1    2    0    0 -0.11514749119E+03  0.60044687631E+01 -0.11903039489E+03  0.16572034661E+03  0.00000000000E+00 0.  1.
         11    1    1    2    0    0 -0.43967430421E+01  0.23869148856E+02 -0.91191289300E+02  0.94365877629E+02  0.00000000000E+00 0. -1.
<mgrwt>
<rscale>  0 0.16963634E+03</rscale>
<asrwt>0</asrwt>
<pdfrwt beam="2">  1        1 0.71392096E-01 0.17552117E+03</pdfrwt>
<pdfrwt beam="1">  1       -1 0.90123979E-02 0.17552117E+03</pdfrwt>
<totfact> 0.35039274E+03</totfact>
</mgrwt>
</event>
<event>
 7    1  0.6387485E-006  0.1299970E+03  0.7546771E-02  0.1241422E+00
         -1   -1    0    0    0  501 -0.00000000000E+00  0.00000000000E+00  0.20708222217E+03  0.20708222217E+03  0.00000000000E+00 0.  1.
          1   -1    0    0  501    0  0.00000000000E+00 -0.00000000000E+00 -0.10477187664E+03  0.10477187664E+03  0.00000000000E+00 0. -1.
         23    2    1    2    0    0 -0.16270762845E+02  0.31787898223E+02  0.15387047412E+03  0.20143319009E+03  0.12499599620E+03 0.  0.
          5    1    3    3  502    0 -0.14629142272E+02  0.79138826448E+02  0.80189369598E+02  0.11370747843E+03  0.47000000000E+01 0.  1.
         -5    1    3    3    0  502 -0.16416205731E+01 -0.47350928225E+02  0.73681104526E+02  0.87725711659E+02  0.47000000000E+01 0.  1.
        -11    1    1    2    0    0  0.24982711396E+01 -0.12356259369E+02  0.26210727406E+02  0.29084716526E+02  0.00000000000E+00 0.  1.
         11    1    1    2    0    0  0.13772491705E+02 -0.19431638854E+02 -0.77770855998E+02  0.81336192184E+02  0.00000000000E+00 0. -1.
<mgrwt>
<rscale>  0 0.12102111E+03</rscale>
<asrwt>0</asrwt>
<pdfrwt beam="2">  1        1 0.16118750E-01 0.12999695E+03</pdfrwt>
<pdfrwt beam="1">  1       -1 0.31858803E-01 0.12999695E+03</pdfrwt>
<totfact> 0.30058654E+03</totfact>
</mgrwt>
</event>
<event>
 7    1  0.6387485E-006  0.1553223E+03  0.7546771E-02  0.1202432E+00
         -3   -1    0    0    0  501 -0.00000000000E+00  0.00000000000E+00  0.73711691674E+02  0.73711691674E+02  0.00000000000E+00 0.  1.
          3   -1    0    0  501    0  0.00000000000E+00 -0.00000000000E+00 -0.34932265368E+03  0.34932265368E+03  0.00000000000E+00 0. -1.
         23    2    1    2    0    0  0.40335300832E+02 -0.82908710520E+02 -0.50478094694E+02  0.16331888042E+03  0.12499691150E+03 0.  0.
          5    1    3    3  502    0 -0.18855501943E+02  0.29448693032E-01 -0.57873914402E+02  0.61049248881E+02  0.47000000000E+01 0. -1.
         -5    1    3    3    0  502  0.59190802775E+02 -0.82938159213E+02  0.73958197078E+01  0.10226963154E+03  0.47000000000E+01 0. -1.
        -11    1    1    2    0    0 -0.28581950722E+02  0.98939802903E+02 -0.14967145544E+03  0.18167982023E+03  0.00000000000E+00 0.  1.
         11    1    1    2    0    0 -0.11753350110E+02 -0.16031092383E+02 -0.75461411874E+02  0.78035644701E+02  0.00000000000E+00 0. -1.
<mgrwt>
<rscale>  0 0.14841688E+03</rscale>
<asrwt>0</asrwt>
<pdfrwt beam="2">  1        3 0.53741946E-01 0.15532231E+03</pdfrwt>
<pdfrwt beam="1">  1       -3 0.11340260E-01 0.15532231E+03</pdfrwt>
<totfact> 0.48805332E+02</totfact>
</mgrwt>
</event>
<event>
 7    1  0.6387485E-006  0.1553070E+03  0.7546771E-02  0.1202058E+00
          2   -1    0    0  501    0  0.00000000000E+00  0.00000000000E+00  0.36283879790E+03  0.36283879790E+03  0.00000000000E+00 0. -1.
         -2   -1    0    0    0  501 -0.00000000000E+00 -0.00000000000E+00 -0.56336393573E+02  0.56336393573E+02  0.00000000000E+00 0.  1.
         23    2    1    2    0    0  0.53829813153E+01  0.92007088822E+02  0.16233626483E+03  0.22466268697E+03  0.12500391656E+03 0.  0.
          5    1    3    3  502    0  0.81973797503E+00  0.94481410982E+02  0.40966355087E+02  0.10309093675E+03  0.47000000000E+01 0.  1.
         -5    1    3    3    0  502  0.45632433403E+01 -0.24743221596E+01  0.12136990974E+03  0.12157175022E+03  0.47000000000E+01 0.  1.
        -11    1    1    2    0    0 -0.28329844698E+02 -0.10175906831E+03  0.11534339090E+03  0.15640200097E+03  0.00000000000E+00 0. -1.
         11    1    1    2    0    0  0.22946863382E+02  0.97519794836E+01  0.28822748599E+02  0.38110503536E+02  0.00000000000E+00 0.  1.
<mgrwt>
<rscale>  0 0.14871773E+03</rscale>
<asrwt>0</asrwt>
<pdfrwt beam="1">  1        2 0.55821352E-01 0.15530699E+03</pdfrwt>
<pdfrwt beam="2">  1       -2 0.86671377E-02 0.15530699E+03</pdfrwt>
<totfact> 0.71246545E+03</totfact>
</mgrwt>
</event>
<event>
 7    1  0.6387485E-006  0.1293551E+03  0.7546771E-02  0.1247859E+00
         -2   -1    0    0    0  501 -0.00000000000E+00  0.00000000000E+00  0.14644268581E+03  0.14644268581E+03  0.00000000000E+00 0.  1.
          2   -1    0    0  501    0  0.00000000000E+00 -0.00000000000E+00 -0.81102260802E+02  0.81102260802E+02  0.00000000000E+00 0. -1.
         23    2    1    2    0    0 -0.31944526172E+02  0.72122254186E+01  0.52301377174E+02  0.13952843874E+03  0.12514104928E+03 0.  0.
          5    1    3    3  502    0 -0.24954664081E+02 -0.21251346525E+02  0.87457884099E+02  0.93516450315E+02  0.47000000000E+01 0.  1.
         -5    1    3    3    0  502 -0.69898620911E+01  0.28463571944E+02 -0.35156506925E+02  0.46011988427E+02  0.47000000000E+01 0.  1.
        -11    1    1    2    0    0 -0.23187261993E+02  0.96065682109E+00  0.21509508983E+02  0.31642233754E+02  0.00000000000E+00 0.  1.
         11    1    1    2    0    0  0.55131788165E+02 -0.81728822397E+01 -0.84704611443E+01  0.56374274119E+02  0.00000000000E+00 0. -1.
<mgrwt>
<rscale>  0 0.11715859E+03</rscale>
<asrwt>0</asrwt>
<pdfrwt beam="2">  1        2 0.12477271E-01 0.12935514E+03</pdfrwt>
<pdfrwt beam="1">  1       -2 0.22529644E-01 0.12935514E+03</pdfrwt>
<totfact> 0.78213589E+03</totfact>
</mgrwt>
</event>
<event>
 7    1  0.6387485E-006  0.1386039E+03  0.7546771E-02  0.1223044E+00
         -2   -1    0    0    0  501 -0.00000000000E+00  0.00000000000E+00  0.37497013789E+02  0.37497013789E+02  0.00000000000E+00 0.  1.
          2   -1    0    0  501    0  0.00000000000E+00 -0.00000000000E+00 -0.52077331087E+03  0.52077331087E+03  0.00000000000E+00 0. -1.
         23    2    1    2    0    0 -0.40080876403E+02 -0.60544431257E+02 -0.14703798837E+03  0.20206732312E+03  0.11806323831E+03 0.  0.
          5    1    3    3  502    0  0.12793238567E+02  0.27627321245E+02 -0.59309952388E+02  0.66833347099E+02  0.47000000000E+01 0. -1.
         -5    1    3    3    0  502 -0.52874114970E+02 -0.88171752502E+02 -0.87728035984E+02  0.13523397602E+03  0.47000000000E+01 0.  1.
        -11    1    1    2    0    0  0.59230064986E+02  0.41130178743E+02 -0.31029739884E+03  0.31856611233E+03  0.00000000000E+00 0. -1.
         11    1    1    2    0    0 -0.19149188582E+02  0.19414252515E+02 -0.25940909875E+02  0.37636889207E+02  0.00000000000E+00 0.  1.
<mgrwt>
<rscale>  0 0.13301855E+03</rscale>
<asrwt>0</asrwt>
<pdfrwt beam="2">  1        2 0.80118974E-01 0.13860387E+03</pdfrwt>
<pdfrwt beam="1">  1       -2 0.57687711E-02 0.13860387E+03</pdfrwt>
<totfact> 0.89351241E+03</totfact>
</mgrwt>
</event>
<event>
 7    1  0.6387485E-006  0.1335049E+03  0.7546771E-02  0.1229613E+00
          2   -1    0    0  501    0  0.00000000000E+00  0.00000000000E+00  0.32688176912E+03  0.32688176912E+03  0.00000000000E+00 0. -1.
         -2   -1    0    0    0  501 -0.00000000000E+00 -0.00000000000E+00 -0.49565976075E+02  0.49565976075E+02  0.00000000000E+00 0.  1.
         23    2    1    2    0    0 -0.28743340954E+02 -0.37025520350E+02  0.10714714400E+03  0.17118428550E+03  0.12500592118E+03 0.  0.
          5    1    3    3  502    0  0.33723170476E+02 -0.57202189470E+02  0.64955819098E+02  0.93009091716E+02  0.47000000000E+01 0.  1.
         -5    1    3    3    0  502 -0.62466511430E+02  0.20176669120E+02  0.42191324900E+02  0.78175193788E+02  0.47000000000E+01 0.  1.
        -11    1    1    2    0    0  0.12518913794E+02 -0.35203128335E+02  0.82185525405E+02  0.90279809666E+02  0.00000000000E+00 0.  1.
         11    1    1    2    0    0  0.16224427160E+02  0.72228648685E+02  0.87983123644E+02  0.11498365003E+03  0.00000000000E+00 0. -1.
<mgrwt>
<rscale>  0 0.12855667E+03</rscale>
<asrwt>0</asrwt>
<pdfrwt beam="1">  1        2 0.50289502E-01 0.13350487E+03</pdfrwt>
<pdfrwt beam="2">  1       -2 0.76255350E-02 0.13350487E+03</pdfrwt>
<totfact> 0.96093372E+03</totfact>
</mgrwt>
</event>
<event>
 7    1  0.6387485E-006  0.1338849E+03  0.7546771E-02  0.1234994E+00
          1   -1    0    0  501    0  0.00000000000E+00  0.00000000000E+00  0.42943175618E+03  0.42943175618E+03  0.00000000000E+00 0. -1.
         -1   -1    0    0    0  501 -0.00000000000E+00 -0.00000000000E+00 -0.49589357621E+02  0.49589357621E+02  0.00000000000E+00 0.  1.
         23    2    1    2    0    0 -0.25014090739E+02 -0.40926025710E+02  0.66421892962E+02  0.14945580197E+03  0.12499809823E+03 0.  0.
          5    1    3    3  502    0 -0.21164564780E+02  0.42894069242E+02  0.12696576023E+02  0.49710492063E+02  0.47000000000E+01 0.  1.
         -5    1    3    3    0  502 -0.38495259595E+01 -0.83820094951E+02  0.53725316938E+02  0.99745309904E+02  0.47000000000E+01 0.  1.
        -11    1    1    2    0    0  0.46861595014E+02  0.57704549130E+02  0.22740657715E+03  0.23924793711E+03  0.00000000000E+00 0.  1.
         11    1    1    2    0    0 -0.21847504275E+02 -0.16778523421E+02  0.86013928444E+02  0.90317374727E+02  0.00000000000E+00 0. -1.
<mgrwt>
<rscale>  0 0.12504836E+03</rscale>
<asrwt>0</asrwt>
<pdfrwt beam="1">  1        1 0.66066421E-01 0.13388491E+03</pdfrwt>
<pdfrwt beam="2">  1       -1 0.76291322E-02 0.13388491E+03</pdfrwt>
<totfact> 0.49213558E+03</totfact>
</mgrwt>
</event>
<event>
 7    1  0.6387485E-006  0.1541064E+03  0.7546771E-02  0.1203712E+00
          1   -1    0    0  501    0  0.00000000000E+00  0.00000000000E+00  0.77794530024E+02  0.77794530024E+02  0.00000000000E+00 0. -1.
         -1   -1    0    0    0  501 -0.00000000000E+00 -0.00000000000E+00 -0.30719123273E+03  0.30719123273E+03  0.00000000000E+00 0.  1.
         23    2    1    2    0    0 -0.89903588431E+02  0.62250745111E+01 -0.20040317875E+03  0.25280467702E+03  0.12500945526E+03 0.  0.
          5    1    3    3  502    0 -0.57361706635E+02 -0.53315203817E+02 -0.67443563591E+02  0.10345820710E+03  0.47000000000E+01 0.  1.
         -5    1    3    3    0  502 -0.32541881795E+02  0.59540278328E+02 -0.13295961516E+03  0.14934646992E+03  0.47000000000E+01 0.  1.
        -11    1    1    2    0    0  0.53076186807E+02  0.34513773757E+02  0.10980133970E+02  0.64256093306E+02  0.00000000000E+00 0.  1.
         11    1    1    2    0    0  0.36827401623E+02 -0.40738848268E+02 -0.39973657928E+02  0.67924992431E+02  0.00000000000E+00 0. -1.
<mgrwt>
<rscale>  0 0.14739438E+03</rscale>
<asrwt>0</asrwt>
<pdfrwt beam="1">  1        1 0.11968389E-01 0.15410636E+03</pdfrwt>
<pdfrwt beam="2">  1       -1 0.47260189E-01 0.15410636E+03</pdfrwt>
<totfact> 0.22410985E+03</totfact>
</mgrwt>
</event>
<event>
 7    1  0.6387485E-006  0.1744998E+03  0.7546771E-02  0.1179377E+00
         -4   -1    0    0    0  501 -0.00000000000E+00  0.00000000000E+00  0.63347489048E+02  0.63347489048E+02  0.00000000000E+00 0.  1.
          4   -1    0    0  501    0  0.00000000000E+00 -0.00000000000E+00 -0.42293904855E+03  0.42293904855E+03  0.00000000000E+00 0. -1.
         23    2    1    2    0    0 -0.16726719473E+02  0.12060457691E+03 -0.21117112504E+03  0.27394054130E+03  0.12499971601E+03 0.  0.
          5    1    3    3  502    0 -0.42740479017E+02  0.13684603757E+03 -0.17559672887E+03  0.22673748639E+03  0.47000000000E+01 0.  1.
         -5    1    3    3    0  502  0.26013759544E+02 -0.16241460659E+02 -0.35574396163E+02  0.47203054905E+02  0.47000000000E+01 0.  1.
        -11    1    1    2    0    0 -0.48655311004E+01  0.13926681202E+02 -0.84136988947E+01  0.16982819886E+02  0.00000000000E+00 0.  1.
         11    1    1    2    0    0  0.21592250573E+02 -0.13453125811E+03 -0.14000673557E+03  0.19536317642E+03  0.00000000000E+00 0. -1.
<mgrwt>
<rscale>  0 0.16854224E+03</rscale>
<asrwt>0</asrwt>
<pdfrwt beam="2">  1        4 0.65067544E-01 0.17449979E+03</pdfrwt>
<pdfrwt beam="1">  1       -4 0.97457678E-02 0.17449979E+03</pdfrwt>
<totfact> 0.30795259E+02</totfact>
</mgrwt>
</event>
<event>
 7    1  0.6387485E-006  0.1469929E+03  0.7546771E-02  0.1214303E+00
         -1   -1    0    0    0  501 -0.00000000000E+00  0.00000000000E+00  0.96115806767E+02  0.96115806767E+02  0.00000000000E+00 0.  1.
          1   -1    0    0  501    0  0.00000000000E+00 -0.00000000000E+00 -0.33024641609E+03  0.33024641609E+03  0.00000000000E+00 0. -1.
         23    2    1    2    0    0  0.77022891823E+02  0.69980799855E+01  0.17697411688E+02  0.14805443672E+03  0.12500167544E+03 0.  0.
          5    1    3    3  502    0  0.61094771526E+02  0.20329488778E+02 -0.47056150836E+02  0.79888863763E+02  0.47000000000E+01 0. -1.
         -5    1    3    3    0  502  0.15928120296E+02 -0.13331408792E+02  0.64753562525E+02  0.68165572954E+02  0.47000000000E+01 0. -1.
        -11    1    1    2    0    0  0.11845659190E+02 -0.24948392221E+02 -0.65877346164E+02  0.71432252195E+02  0.00000000000E+00 0.  1.
         11    1    1    2    0    0 -0.88868551012E+02  0.17950312236E+02 -0.18595067485E+03  0.20687553394E+03  0.00000000000E+00 0. -1.
<mgrwt>
<rscale>  0 0.13927878E+03</rscale>
<asrwt>0</asrwt>
<pdfrwt beam="2">  1        1 0.50807141E-01 0.14699292E+03</pdfrwt>
<pdfrwt beam="1">  1       -1 0.14787047E-01 0.14699292E+03</pdfrwt>
<totfact> 0.24906943E+03</totfact>
</mgrwt>
</event>
<event>
 7    1  0.6387485E-006  0.2188897E+03  0.7546771E-02  0.1138248E+00
          1   -1    0    0  501    0  0.00000000000E+00  0.00000000000E+00  0.54312799053E+03  0.54312799053E+03  0.00000000000E+00 0.  1.
         -1   -1    0    0    0  501 -0.00000000000E+00 -0.00000000000E+00 -0.84700310783E+02  0.84700310783E+02  0.00000000000E+00 0. -1.
         23    2    1    2    0    0  0.14518024709E+03 -0.10588182538E+03  0.17406768760E+03  0.27966458620E+03  0.12499782327E+03 0.  0.
          5    1    3    3  502    0  0.14698723419E+03 -0.12586880832E+03  0.17200208432E+03  0.25894982320E+03  0.47000000000E+01 0.  1.
         -5    1    3    3    0  502 -0.18069871056E+01  0.19986982943E+02  0.20656032789E+01  0.20714763008E+02  0.47000000000E+01 0.  1.
        -11    1    1    2    0    0 -0.10196835834E+03  0.54241680121E+02  0.10317118418E+03  0.15486768291E+03  0.00000000000E+00 0. -1.
         11    1    1    2    0    0 -0.43211888749E+02  0.51640145258E+02  0.18118880797E+03  0.19329603220E+03  0.00000000000E+00 0.  1.
<mgrwt>
<rscale>  0 0.21424437E+03</rscale>
<asrwt>0</asrwt>
<pdfrwt beam="1">  1        1 0.83558150E-01 0.21888975E+03</pdfrwt>
<pdfrwt beam="2">  1       -1 0.13030817E-01 0.21888975E+03</pdfrwt>
<totfact> 0.16177416E+03</totfact>
</mgrwt>
</event>
<event>
 7    1  0.6387485E-006  0.1326945E+03  0.7546771E-02  0.1235895E+00
          2   -1    0    0  501    0  0.00000000000E+00  0.00000000000E+00  0.52778614280E+02  0.52778614280E+02  0.00000000000E+00 0. -1.
         -2   -1    0    0    0  501 -0.00000000000E+00 -0.00000000000E+00 -0.27362169295E+03  0.27362169295E+03  0.00000000000E+00 0.  1.
         23    2    1    2    0    0  0.10255495013E+02 -0.43319850581E+02 -0.15646096297E+03  0.20515324050E+03  0.12500413801E+03 0.  0.
          5    1    3    3  502    0 -0.50342688959E+02 -0.47959380373E+02 -0.65384384641E+02  0.95559909231E+02  0.47000000000E+01 0. -1.
         -5    1    3    3    0  502  0.60598183973E+02  0.46395297920E+01 -0.91076578330E+02  0.10959333126E+03  0.47000000000E+01 0. -1.
        -11    1    1    2    0    0 -0.31727423490E+02 -0.18639569197E+02 -0.28137091971E+02  0.46322336791E+02  0.00000000000E+00 0. -1.
         11    1    1    2    0    0  0.21471928476E+02  0.61959419778E+02 -0.36245023725E+02  0.74924729940E+02  0.00000000000E+00 0.  1.
<mgrwt>
<rscale>  0 0.12447323E+03</rscale>
<asrwt>0</asrwt>
<pdfrwt beam="1">  1        2 0.81197868E-02 0.13269446E+03</pdfrwt>
<pdfrwt beam="2">  1       -2 0.42095645E-01 0.13269446E+03</pdfrwt>
<totfact> 0.42837261E+03</totfact>
</mgrwt>
</event>
<event>
 7    1  0.6387485E-006  0.1378830E+03  0.7546771E-02  0.1228104E+00
          2   -1    0    0  501    0  0.00000000000E+00  0.00000000000E+00  0.72678695290E+03  0.72678695290E+03  0.00000000000E+00 0. -1.
         -2   -1    0    0    0  501 -0.00000000000E+00 -0.00000000000E+00 -0.31334875868E+02  0.31334875868E+02  0.00000000000E+00 0.  1.
         23    2    1    2    0    0  0.24063722161E+02  0.52988209092E+02  0.15659790685E+03  0.20864953864E+03  0.12499965006E+03 0.  0.
          5    1    3    3  502    0  0.68354248373E+02  0.17097549772E+01  0.63683700335E+02  0.93557096049E+02  0.47000000000E+01 0.  1.
         -5    1    3    3    0  502 -0.44290526211E+02  0.51278454115E+02  0.92914206516E+02  0.11509244259E+03  0.47000000000E+01 0.  1.
        -11    1    1    2    0    0 -0.55149892012E+02 -0.14157660494E+02  0.32111479302E+03  0.32612368855E+03  0.00000000000E+00 0.  1.
         11    1    1    2    0    0  0.31086169850E+02 -0.38830548598E+02  0.21773937717E+03  0.22334860158E+03  0.00000000000E+00 0. -1.
<mgrwt>
<rscale>  0 0.12956387E+03</rscale>
<asrwt>0</asrwt>
<pdfrwt beam="1">  1        2 0.11181336E+00 0.13788301E+03</pdfrwt>
<pdfrwt beam="2">  1       -2 0.48207507E-02 0.13788301E+03</pdfrwt>
<totfact> 0.79825786E+03</totfact>
</mgrwt>
</event>
<event>
 7    1  0.6387485E-006  0.2034945E+03  0.7546771E-02  0.1150261E+00
          1   -1    0    0  501    0  0.00000000000E+00  0.00000000000E+00  0.49984596530E+03  0.49984596530E+03  0.00000000000E+00 0. -1.
         -1   -1    0    0    0  501 -0.00000000000E+00 -0.00000000000E+00 -0.14850792765E+03  0.14850792765E+03  0.00000000000E+00 0.  1.
         23    2    1    2    0    0 -0.12254935418E+03 -0.10571272018E+03 -0.46312708168E+02  0.20869806008E+03  0.12335513741E+03 0.  0.
          5    1    3    3  502    0 -0.38980802250E+02 -0.36707893084E+02 -0.78866302035E+02  0.95440850559E+02  0.47000000000E+01 0.  1.
         -5    1    3    3    0  502 -0.83568551928E+02 -0.69004827101E+02  0.32553593867E+02  0.11325720952E+03  0.47000000000E+01 0.  1.
        -11    1    1    2    0    0  0.98677429261E+02  0.34312557414E+02  0.16658282063E+03  0.19663271033E+03  0.00000000000E+00 0.  1.
         11    1    1    2    0    0  0.23871924918E+02  0.71400162771E+02  0.23106792519E+03  0.24302312255E+03  0.00000000000E+00 0. -1.
<mgrwt>
<rscale>  0 0.19938286E+03</rscale>
<asrwt>0</asrwt>
<pdfrwt beam="1">  1        1 0.76899379E-01 0.20349450E+03</pdfrwt>
<pdfrwt beam="2">  1       -1 0.22847374E-01 0.20349450E+03</pdfrwt>
<totfact> 0.73430716E+02</totfact>
</mgrwt>
</event>
<event>
 7    1  0.6387485E-006  0.1311352E+03  0.7546771E-02  0.1239118E+00
          1   -1    0    0  501    0  0.00000000000E+00  0.00000000000E+00  0.21592996630E+03  0.21592996630E+03  0.00000000000E+00 0. -1.
         -1   -1    0    0    0  501 -0.00000000000E+00 -0.00000000000E+00 -0.72267929933E+02  0.72267929933E+02  0.00000000000E+00 0.  1.
         23    2    1    2    0    0 -0.39497551773E+02  0.32628661471E+01  0.25470600826E+02  0.13358585844E+03  0.12500290868E+03 0.  0.
          5    1    3    3  502    0 -0.47436799024E+02 -0.45061362645E+02  0.46165832660E+02  0.80213156092E+02  0.47000000000E+01 0. -1.
         -5    1    3    3    0  502  0.79392472516E+01  0.48324228792E+02 -0.20695231834E+02  0.53372702348E+02  0.47000000000E+01 0. -1.
        -11    1    1    2    0    0  0.61523495014E+02 -0.19031318134E+02  0.50943149429E+02  0.82112946497E+02  0.00000000000E+00 0.  1.
         11    1    1    2    0    0 -0.22025943241E+02  0.15768451987E+02  0.67248286107E+02  0.72499091291E+02  0.00000000000E+00 0. -1.
<mgrwt>
<rscale>  0 0.12244442E+03</rscale>
<asrwt>0</asrwt>
<pdfrwt beam="1">  1        1 0.33219994E-01 0.13113516E+03</pdfrwt>
<pdfrwt beam="2">  1       -1 0.11118143E-01 0.13113516E+03</pdfrwt>
<totfact> 0.65217778E+03</totfact>
</mgrwt>
</event>
<event>
 7    1  0.6387485E-006  0.1449647E+03  0.7546771E-02  0.1216573E+00
          2   -1    0    0  501    0  0.00000000000E+00  0.00000000000E+00  0.41380702498E+02  0.41380702498E+02  0.00000000000E+00 0.  1.
         -2   -1    0    0    0  501 -0.00000000000E+00 -0.00000000000E+00 -0.43947744523E+03  0.43947744523E+03  0.00000000000E+00 0. -1.
         23    2    1    2    0    0 -0.73422649798E+02 -0.11479632677E+00 -0.16442902587E+03  0.21920690663E+03  0.12499545865E+03 0.  0.
          5    1    3    3  502    0 -0.44558822194E+02  0.61790468477E+02 -0.81311391768E+02  0.11152211916E+03  0.47000000000E+01 0. -1.
         -5    1    3    3    0  502 -0.28863827604E+02 -0.61905264803E+02 -0.83117634105E+02  0.10768478748E+03  0.47000000000E+01 0. -1.
        -11    1    1    2    0    0  0.95010980967E+01 -0.33192017809E+02 -0.30468232292E+02  0.46046651238E+02  0.00000000000E+00 0.  1.
         11    1    1    2    0    0  0.63921551701E+02  0.33306814136E+02 -0.20319948457E+03  0.21560458986E+03  0.00000000000E+00 0. -1.
<mgrwt>
<rscale>  0 0.13761637E+03</rscale>
<asrwt>0</asrwt>
<pdfrwt beam="1">  1        2 0.63662619E-02 0.14496470E+03</pdfrwt>
<pdfrwt beam="2">  1       -2 0.67611915E-01 0.14496470E+03</pdfrwt>
<totfact> 0.22665501E+03</totfact>
</mgrwt>
</event>
<event>
 7    1  0.6387485E-006  0.1252828E+03  0.7546771E-02  0.1251036E+00
          2   -1    0    0  501    0  0.00000000000E+00  0.00000000000E+00  0.50504438657E+03  0.50504438657E+03  0.00000000000E+00 0. -1.
         -2   -1    0    0    0  501 -0.00000000000E+00 -0.00000000000E+00 -0.23929433952E+02  0.23929433952E+02  0.00000000000E+00 0.  1.
         23    2    1    2    0    0 -0.70327723690E+01 -0.45648641156E+01  0.22491917043E+03  0.25745758925E+03  0.12500191666E+03 0.  0.
          5    1    3    3  502    0 -0.31434806295E+01  0.22478139640E+02  0.22835018251E+03  0.22952351532E+03  0.47000000000E+01 0.  1.
         -5    1    3    3    0  502 -0.38892917394E+01 -0.27043003756E+02 -0.34310120884E+01  0.27934073930E+02  0.47000000000E+01 0.  1.
        -11    1    1    2    0    0 -0.90518223304E+01 -0.40682157081E+02  0.12849571664E+03  0.13508561206E+03  0.00000000000E+00 0.  1.
         11    1    1    2    0    0  0.16084594699E+02  0.45247021196E+02  0.12770006555E+03  0.13643061920E+03  0.00000000000E+00 0. -1.
<mgrwt>
<rscale>  0 0.11531269E+03</rscale>
<asrwt>0</asrwt>
<pdfrwt beam="1">  1        2 0.77699129E-01 0.12528279E+03</pdfrwt>
<pdfrwt beam="2">  1       -2 0.36814517E-02 0.12528279E+03</pdfrwt>
<totfact> 0.17949428E+04</totfact>
</mgrwt>
</event>
<event>
 7    1  0.6387485E-006  0.1364225E+03  0.7546771E-02  0.1229871E+00
         -3   -1    0    0    0  501 -0.00000000000E+00  0.00000000000E+00  0.15224987180E+03  0.15224987180E+03  0.00000000000E+00 0.  1.
          3   -1    0    0  501    0  0.00000000000E+00 -0.00000000000E+00 -0.12175899073E+03  0.12175899073E+03  0.00000000000E+00 0. -1.
         23    2    1    2    0    0 -0.54269607301E+02  0.65354657631E+01  0.77758702887E+02  0.15702709752E+03  0.12499276335E+03 0.  0.
          5    1    3    3  502    0  0.38654426071E+02 -0.38819669182E+00  0.61701930555E+01  0.39426851686E+02  0.47000000000E+01 0. -1.
         -5    1    3    3    0  502 -0.92924033372E+02  0.69236624549E+01  0.71588509831E+02  0.11760024583E+03  0.47000000000E+01 0. -1.
        -11    1    1    2    0    0 -0.24325110386E+02 -0.87804899357E+01 -0.23229974574E+02  0.34762619543E+02  0.00000000000E+00 0.  1.
         11    1    1    2    0    0  0.78594717687E+02  0.22450241726E+01 -0.24037847239E+02  0.82219145469E+02  0.00000000000E+00 0. -1.
<mgrwt>
<rscale>  0 0.12838594E+03</rscale>
<asrwt>0</asrwt>
<pdfrwt beam="2">  1        3 0.18732152E-01 0.13642248E+03</pdfrwt>
<pdfrwt beam="1">  1       -3 0.23423057E-01 0.13642248E+03</pdfrwt>
<totfact> 0.98345263E+02</totfact>
</mgrwt>
</event>
<event>
 7    1  0.6387485E-006  0.1407269E+03  0.7546771E-02  0.1217954E+00
          1   -1    0    0  501    0  0.00000000000E+00  0.00000000000E+00  0.20008003914E+03  0.20008003914E+03  0.00000000000E+00 0. -1.
         -1   -1    0    0    0  501 -0.00000000000E+00 -0.00000000000E+00 -0.15299566015E+03  0.15299566015E+03  0.00000000000E+00 0.  1.
         23    2    1    2    0    0 -0.70990356867E+02 -0.48986560480E+02 -0.90401980247E+02  0.16726202394E+03  0.11119690978E+03 0.  0.
          5    1    3    3  502    0  0.14229551656E+02  0.14910775102E+02 -0.48133176530E+02  0.52570942899E+02  0.47000000000E+01 0. -1.
         -5    1    3    3    0  502 -0.85219908522E+02 -0.63897335582E+02 -0.42268803718E+02  0.11469108104E+03  0.47000000000E+01 0.  1.
        -11    1    1    2    0    0  0.35173887697E+02 -0.21524699783E+00  0.11609415384E+03  0.12130581710E+03  0.00000000000E+00 0. -1.
         11    1    1    2    0    0  0.35816469170E+02  0.49201807478E+02  0.21392205401E+02  0.64507858241E+02  0.00000000000E+00 0.  1.
<mgrwt>
<rscale>  0 0.13661793E+03</rscale>
<asrwt>0</asrwt>
<pdfrwt beam="1">  1        1 0.30781545E-01 0.14072692E+03</pdfrwt>
<pdfrwt beam="2">  1       -1 0.23537794E-01 0.14072692E+03</pdfrwt>
<totfact> 0.22019451E+03</totfact>
</mgrwt>
</event>
<event>
 6    1  0.6387485E-006  0.4472043E+03  0.7546771E-02  0.1081092E+00
          2   -1    0    0  501    0  0.00000000000E+00  0.00000000000E+00  0.21576075577E+04  0.21576075577E+04  0.00000000000E+00 0. -1.
         -2   -1    0    0    0  501 -0.00000000000E+00 -0.00000000000E+00 -0.34866829167E+02  0.34866829167E+02  0.00000000000E+00 0.  1.
          5    1    1    2  502    0  0.58243250691E+02  0.10290043397E+03  0.14909636117E+04  0.14956521510E+04  0.47000000000E+01 0. -1.
         -5    1    1    2    0  502 -0.63771100857E+02 -0.14810328024E+03  0.22010204403E+03  0.27288886879E+03  0.47000000000E+01 0.  1.
        -11    1    1    2    0    0 -0.77146177441E+00  0.72732036391E+02  0.28325485997E+03  0.29244462718E+03  0.00000000000E+00 0.  1.
         11    1    1    2    0    0  0.62993119407E+01 -0.27529190127E+02  0.12842021286E+03  0.13148873986E+03  0.00000000000E+00 0. -1.
<mgrwt>
<rscale>  0 0.30844914E+03</rscale>
<asrwt>0</asrwt>
<pdfrwt beam="1">  1        2 0.33193952E+00 0.44720427E+03</pdfrwt>
<pdfrwt beam="2">  1       -2 0.53641292E-02 0.44720427E+03</pdfrwt>
<totfact> 0.10591807E+03</totfact>
</mgrwt>
</event>
<event>
 7    1  0.6387485E-006  0.1412973E+03  0.7546771E-02  0.1223228E+00
          2   -1    0    0  501    0  0.00000000000E+00  0.00000000000E+00  0.16667136615E+03  0.16667136615E+03  0.00000000000E+00 0. -1.
         -2   -1    0    0    0  501 -0.00000000000E+00 -0.00000000000E+00 -0.95261017528E+02  0.95261017528E+02  0.00000000000E+00 0.  1.
         23    2    1    2    0    0  0.64975456012E+02  0.10873146622E+02  0.35481822545E+02  0.14568420645E+03  0.12499957231E+03 0.  0.
          5    1    3    3  502    0 -0.21112243768E+02  0.43300991145E+02  0.19561754483E+02  0.52205889605E+02  0.47000000000E+01 0. -1.
         -5    1    3    3    0  502  0.86087699781E+02 -0.32427844522E+02  0.15920068061E+02  0.93478316849E+02  0.47000000000E+01 0. -1.
        -11    1    1    2    0    0 -0.32399517500E+02  0.38416282217E+02  0.79611883109E+01  0.50881430728E+02  0.00000000000E+00 0. -1.
         11    1    1    2    0    0 -0.32575938512E+02 -0.49289428840E+02  0.27967337764E+02  0.65366746492E+02  0.00000000000E+00 0.  1.
<mgrwt>
<rscale>  0 0.13289133E+03</rscale>
<asrwt>0</asrwt>
<pdfrwt beam="1">  1        2 0.25641749E-01 0.14129730E+03</pdfrwt>
<pdfrwt beam="2">  1       -2 0.14655541E-01 0.14129730E+03</pdfrwt>
<totfact> 0.70748833E+03</totfact>
</mgrwt>
</event>
<event>
 7    1  0.6387485E-006  0.1410228E+03  0.7546771E-02  0.1224490E+00
         -2   -1    0    0    0  501 -0.00000000000E+00  0.00000000000E+00  0.55318073615E+03  0.55318073615E+03  0.00000000000E+00 0.  1.
          2   -1    0    0  501    0  0.00000000000E+00 -0.00000000000E+00 -0.39835644500E+02  0.39835644500E+02  0.00000000000E+00 0. -1.
         23    2    1    2    0    0  0.16666673804E+01  0.65267927551E+02  0.44040512098E+03  0.46243281881E+03  0.12499904471E+03 0.  0.
          5    1    3    3  502    0 -0.53888119137E+02  0.60473592702E+02  0.20510239029E+03  0.22056759803E+03  0.47000000000E+01 0.  1.
         -5    1    3    3    0  502  0.55554786517E+02  0.47943348492E+01  0.23530273068E+03  0.24186522077E+03  0.47000000000E+01 0.  1.
        -11    1    1    2    0    0  0.27739883809E+02  0.46134214696E+01  0.37553800443E+02  0.46915591641E+02  0.00000000000E+00 0. -1.
         11    1    1    2    0    0 -0.29406551189E+02 -0.69881349021E+02  0.35386170225E+02  0.83667970198E+02  0.00000000000E+00 0.  1.
<mgrwt>
<rscale>  0 0.13201941E+03</rscale>
<asrwt>0</asrwt>
<pdfrwt beam="2">  1        2 0.61285611E-02 0.14102284E+03</pdfrwt>
<pdfrwt beam="1">  1       -2 0.85104723E-01 0.14102284E+03</pdfrwt>
<totfact> 0.14443473E+03</totfact>
</mgrwt>
</event>
<event>
 7    1  0.6387485E-006  0.1628040E+03  0.7546771E-02  0.1192898E+00
          1   -1    0    0  501    0  0.00000000000E+00  0.00000000000E+00  0.53788217594E+03  0.53788217594E+03  0.00000000000E+00 0. -1.
         -1   -1    0    0    0  501 -0.00000000000E+00 -0.00000000000E+00 -0.42260146297E+02  0.42260146297E+02  0.00000000000E+00 0.  1.
         23    2    1    2    0    0 -0.71373263018E+02 -0.76090386348E+02  0.25483585107E+03  0.30240115697E+03  0.12498503583E+03 0.  0.
          5    1    3    3  502    0 -0.64122594224E+01 -0.12504315183E+02  0.19016892010E+03  0.19074533583E+03  0.47000000000E+01 0. -1.
         -5    1    3    3    0  502 -0.64961003596E+02 -0.63586071165E+02  0.64666930966E+02  0.11165582114E+03  0.47000000000E+01 0. -1.
        -11    1    1    2    0    0 -0.43211556288E+01  0.52219720971E+02  0.56323271925E+02  0.76927775248E+02  0.00000000000E+00 0.  1.
         11    1    1    2    0    0  0.75694418647E+02  0.23870665377E+02  0.18446290665E+03  0.20081339002E+03  0.00000000000E+00 0. -1.
<mgrwt>
<rscale>  0 0.15633436E+03</rscale>
<asrwt>0</asrwt>
<pdfrwt beam="1">  1        1 0.82751099E-01 0.16280402E+03</pdfrwt>
<pdfrwt beam="2">  1       -1 0.65015613E-02 0.16280402E+03</pdfrwt>
<totfact> 0.47164457E+03</totfact>
</mgrwt>
</event>
<event>
 6    1  0.6387485E-006  0.1517462E+03  0.7546771E-02  0.1216142E+00
          4   -1    0    0  501    0  0.00000000000E+00  0.00000000000E+00  0.14597497229E+03  0.14597497229E+03  0.00000000000E+00 0. -1.
         -4   -1    0    0    0  501 -0.00000000000E+00 -0.00000000000E+00 -0.12043966366E+03  0.12043966366E+03  0.00000000000E+00 0.  1.
          5    1    1    2  502    0  0.59214809825E+02  0.23322310019E+02 -0.92532084916E+01  0.64482832712E+02  0.47000000000E+01 0. -1.
         -5    1    1    2    0  502 -0.85340393594E+02  0.20631651199E+02 -0.11135776905E+02  0.88626989892E+02  0.47000000000E+01 0.  1.
        -11    1    1    2    0    0 -0.23821661956E+02 -0.43259712628E+02  0.67921787159E+01  0.49849854631E+02  0.00000000000E+00 0. -1.
         11    1    1    2    0    0  0.49947245725E+02 -0.69424859044E+00  0.39132115316E+02  0.63454958716E+02  0.00000000000E+00 0.  1.
<mgrwt>
<rscale>  0 0.13792975E+03</rscale>
<asrwt>0</asrwt>
<pdfrwt beam="1">  1        4 0.22457688E-01 0.15174619E+03</pdfrwt>
<pdfrwt beam="2">  1       -4 0.18529179E-01 0.15174619E+03</pdfrwt>
<totfact> 0.79963843E+02</totfact>
</mgrwt>
</event>
<event>
 7    1  0.6387485E-006  0.1280051E+03  0.7546771E-02  0.1246051E+00
          1   -1    0    0  501    0  0.00000000000E+00  0.00000000000E+00  0.39788048750E+03  0.39788048750E+03  0.00000000000E+00 0. -1.
         -1   -1    0    0    0  501 -0.00000000000E+00 -0.00000000000E+00 -0.31271229650E+02  0.31271229650E+02  0.00000000000E+00 0.  1.
         23    2    1    2    0    0  0.13393593317E+02 -0.24095167479E+02  0.18384888618E+03  0.22402170988E+03  0.12500139243E+03 0.  0.
          5    1    3    3  502    0 -0.21894669958E+02 -0.57840657961E+02  0.15539116409E+03  0.16731234911E+03  0.47000000000E+01 0. -1.
         -5    1    3    3    0  502  0.35288263275E+02  0.33745490482E+02  0.28457722087E+02  0.56709360773E+02  0.47000000000E+01 0. -1.
        -11    1    1    2    0    0 -0.47532164777E+02  0.62633505465E+01  0.61987372596E+02  0.78364345272E+02  0.00000000000E+00 0. -1.
         11    1    1    2    0    0  0.34138571460E+02  0.17831816932E+02  0.12077299907E+03  0.12676566199E+03  0.00000000000E+00 0.  1.
<mgrwt>
<rscale>  0 0.11822696E+03</rscale>
<asrwt>0</asrwt>
<pdfrwt beam="1">  1        1 0.61212379E-01 0.12800513E+03</pdfrwt>
<pdfrwt beam="2">  1       -1 0.48109587E-02 0.12800513E+03</pdfrwt>
<totfact> 0.10736943E+04</totfact>
</mgrwt>
</event>
<event>
 7    1  0.6387485E-006  0.1526474E+03  0.7546771E-02  0.1205986E+00
         -1   -1    0    0    0  501 -0.00000000000E+00  0.00000000000E+00  0.13850873523E+04  0.13850873523E+04  0.00000000000E+00 0.  1.
          1   -1    0    0  501    0  0.00000000000E+00 -0.00000000000E+00 -0.14881881821E+02  0.14881881821E+02  0.00000000000E+00 0. -1.
         23    2    1    2    0    0  0.12688240491E+02 -0.86694268547E+02  0.91089455442E+03  0.92359630181E+03  0.12499740715E+03 0.  0.
          5    1    3    3  502    0 -0.99588322753E+01 -0.13189659919E+02  0.10985354318E+02  0.20393956913E+02  0.47000000000E+01 0. -1.
         -5    1    3    3    0  502  0.22647072767E+02 -0.73504608628E+02  0.89990920011E+03  0.90320234490E+03  0.47000000000E+01 0. -1.
        -11    1    1    2    0    0 -0.27295935055E+02  0.79891502670E+02  0.44981434539E+03  0.45766872909E+03  0.00000000000E+00 0.  1.
         11    1    1    2    0    0  0.14607694563E+02  0.68027658770E+01  0.94965706863E+01  0.18704203240E+02  0.00000000000E+00 0. -1.
<mgrwt>
<rscale>  0 0.14560023E+03</rscale>
<asrwt>0</asrwt>
<pdfrwt beam="2">  1        1 0.22895214E-02 0.15264744E+03</pdfrwt>
<pdfrwt beam="1">  1       -1 0.21309026E+00 0.15264744E+03</pdfrwt>
<totfact> 0.67656486E+02</totfact>
</mgrwt>
</event>
<event>
 7    1  0.6387485E-006  0.1579945E+03  0.7546771E-02  0.1199347E+00
         -2   -1    0    0    0  501 -0.00000000000E+00  0.00000000000E+00  0.22018144976E+02  0.22018144976E+02  0.00000000000E+00 0.  1.
          2   -1    0    0  501    0  0.00000000000E+00 -0.00000000000E+00 -0.11065781098E+04  0.11065781098E+04  0.00000000000E+00 0. -1.
         23    2    1    2    0    0  0.81796632969E+02 -0.51455282854E+02 -0.79515366596E+03  0.81069823228E+03  0.12499574410E+03 0.  0.
          5    1    3    3  502    0 -0.74197120574E+00 -0.36484716341E+02 -0.57427631571E+02  0.68203430380E+02  0.47000000000E+01 0.  1.
         -5    1    3    3    0  502  0.82538604174E+02 -0.14970566513E+02 -0.73772603439E+03  0.74249480190E+03  0.47000000000E+01 0.  1.
        -11    1    1    2    0    0 -0.21214823078E+02  0.30883372556E+02 -0.22131694618E+03  0.22446612681E+03  0.00000000000E+00 0. -1.
         11    1    1    2    0    0 -0.60581809891E+02  0.20571910298E+02 -0.68089352710E+02  0.93431895707E+02  0.00000000000E+00 0.  1.
<mgrwt>
<rscale>  0 0.15092013E+03</rscale>
<asrwt>0</asrwt>
<pdfrwt beam="2">  1        2 0.17024281E+00 0.15799453E+03</pdfrwt>
<pdfrwt beam="1">  1       -2 0.33874065E-02 0.15799453E+03</pdfrwt>
<totfact> 0.78154324E+03</totfact>
</mgrwt>
</event>
<event>
 7    1  0.6387485E-006  0.1968147E+03  0.7546771E-02  0.1156949E+00
          2   -1    0    0  501    0  0.00000000000E+00  0.00000000000E+00  0.70949795013E+03  0.70949795013E+03  0.00000000000E+00 0. -1.
         -2   -1    0    0    0  501 -0.00000000000E+00 -0.00000000000E+00 -0.49625891038E+02  0.49625891038E+02  0.00000000000E+00 0.  1.
         23    2    1    2    0    0 -0.13965149459E+03  0.60075362455E+02  0.31475332363E+03  0.37122185611E+03  0.12499769037E+03 0.  0.
          5    1    3    3  502    0  0.11230352956E+02 -0.20796909084E+02  0.25582576546E+02  0.35145276748E+02  0.47000000000E+01 0.  1.
         -5    1    3    3    0  502 -0.15088184755E+03  0.80872271539E+02  0.28917074709E+03  0.33607657936E+03  0.47000000000E+01 0.  1.
        -11    1    1    2    0    0  0.88499550467E+02 -0.70456922397E+01  0.10914334296E+03  0.14069144084E+03  0.00000000000E+00 0.  1.
         11    1    1    2    0    0  0.51151944126E+02 -0.53029670215E+02  0.23597539250E+03  0.24721054422E+03  0.00000000000E+00 0. -1.
<mgrwt>
<rscale>  0 0.19168664E+03</rscale>
<asrwt>0</asrwt>
<pdfrwt beam="1">  1        2 0.10915352E+00 0.19681466E+03</pdfrwt>
<pdfrwt beam="2">  1       -2 0.76347530E-02 0.19681466E+03</pdfrwt>
<totfact> 0.41416696E+03</totfact>
</mgrwt>
</event>
<event>
 7    1  0.6387485E-006  0.1523451E+03  0.7546771E-02  0.1206651E+00
         -2   -1    0    0    0  501 -0.00000000000E+00  0.00000000000E+00  0.48151698348E+02  0.48151698348E+02  0.00000000000E+00 0.  1.
          2   -1    0    0  501    0  0.00000000000E+00 -0.00000000000E+00 -0.42646153039E+03  0.42646153039E+03  0.00000000000E+00 0. -1.
         23    2    1    2    0    0 -0.57377316112E+02  0.65547982597E+02 -0.26503259512E+03  0.30569806095E+03  0.12498133287E+03 0.  0.
          5    1    3    3  502    0  0.61217918023E+01  0.20984146661E+02 -0.20824845046E+03  0.20944526222E+03  0.47000000000E+01 0. -1.
         -5    1    3    3    0  502 -0.63499107915E+02  0.44563835936E+02 -0.56784144660E+02  0.96252798734E+02  0.47000000000E+01 0. -1.
        -11    1    1    2    0    0  0.59886005047E+02 -0.53128756131E+01 -0.79938792529E+02  0.10002385115E+03  0.00000000000E+00 0. -1.
         11    1    1    2    0    0 -0.25086889349E+01 -0.60235106984E+02 -0.33338444393E+02  0.68891316638E+02  0.00000000000E+00 0.  1.
<mgrwt>
<rscale>  0 0.14508112E+03</rscale>
<asrwt>0</asrwt>
<pdfrwt beam="2">  1        2 0.65609464E-01 0.15234510E+03</pdfrwt>
<pdfrwt beam="1">  1       -2 0.74079538E-02 0.15234510E+03</pdfrwt>
<totfact> 0.76312009E+03</totfact>
</mgrwt>
</event>
<event>
 6    1  0.6387485E-006  0.2048688E+03  0.7546771E-02  0.1154851E+00
          2   -1    0    0  501    0  0.00000000000E+00  0.00000000000E+00  0.25037449104E+03  0.25037449104E+03  0.00000000000E+00 0. -1.
         -2   -1    0    0    0  501 -0.00000000000E+00 -0.00000000000E+00 -0.15138384771E+03  0.15138384771E+03  0.00000000000E+00 0.  1.
          5    1    1    2  502    0  0.32516896545E+02 -0.13931470404E+02  0.16005155430E+02  0.39111244277E+02  0.47000000000E+01 0. -1.
         -5    1    1    2    0  502 -0.16011596853E+03 -0.35826062396E+02 -0.24244472282E+02  0.16592321888E+03  0.47000000000E+01 0.  1.
        -11    1    1    2    0    0  0.14799689068E+02  0.49515017337E+02  0.40553906310E+02  0.65691605669E+02  0.00000000000E+00 0.  1.
         11    1    1    2    0    0  0.11279938292E+03  0.24251546297E+00  0.66676053872E+02  0.13103226992E+03  0.00000000000E+00 0. -1.
<mgrwt>
<rscale>  0 0.19405824E+03</rscale>
<asrwt>0</asrwt>
<pdfrwt beam="1">  1        2 0.38519152E-01 0.20486885E+03</pdfrwt>
<pdfrwt beam="2">  1       -2 0.23289823E-01 0.20486885E+03</pdfrwt>
<totfact> 0.21219824E+03</totfact>
</mgrwt>
</event>
<event>
 7    1  0.6387485E-006  0.1661736E+03  0.7546771E-02  0.1188978E+00
          2   -1    0    0  501    0  0.00000000000E+00  0.00000000000E+00  0.83859486219E+03  0.83859486219E+03  0.00000000000E+00 0. -1.
         -2   -1    0    0    0  501 -0.00000000000E+00 -0.00000000000E+00 -0.28330774724E+02  0.28330774724E+02  0.00000000000E+00 0.  1.
         23    2    1    2    0    0 -0.49534136888E+02 -0.97649296367E+02  0.42287537248E+03  0.45435366981E+03  0.12499864325E+03 0.  0.
          5    1    3    3  502    0  0.27888180041E+02  0.51737430549E+00  0.26717635089E+02  0.38909385589E+02  0.47000000000E+01 0. -1.
         -5    1    3    3    0  502 -0.77422316929E+02 -0.98166670672E+02  0.39615773740E+03  0.41544428422E+03  0.47000000000E+01 0. -1.
        -11    1    1    2    0    0 -0.11883879538E+02  0.75593687563E+02  0.21865710923E+03  0.23166044896E+03  0.00000000000E+00 0.  1.
         11    1    1    2    0    0  0.61418016426E+02  0.22055608804E+02  0.16873160574E+03  0.18091151815E+03  0.00000000000E+00 0. -1.
<mgrwt>
<rscale>  0 0.15975121E+03</rscale>
<asrwt>0</asrwt>
<pdfrwt beam="1">  1        2 0.12901458E+00 0.16617363E+03</pdfrwt>
<pdfrwt beam="2">  1       -2 0.43585814E-02 0.16617363E+03</pdfrwt>
<totfact> 0.78533479E+03</totfact>
</mgrwt>
</event>
<event>
 7    1  0.6387485E-006  0.2128902E+03  0.7546771E-02  0.1143217E+00
         -1   -1    0    0    0  501 -0.00000000000E+00  0.00000000000E+00  0.29256934952E+02  0.29256934952E+02  0.00000000000E+00 0.  1.
          1   -1    0    0  501    0  0.00000000000E+00 -0.00000000000E+00 -0.15232353750E+04  0.15232353750E+04  0.00000000000E+00 0. -1.
         23    2    1    2    0    0 -0.21541006643E+02 -0.17086129114E+03 -0.57084095543E+03  0.60924676604E+03  0.12515841861E+03 0.  0.
          5    1    3    3  502    0  0.12978943407E+02 -0.14084849371E+03 -0.52714936954E+03  0.54581617690E+03  0.47000000000E+01 0. -1.
         -5    1    3    3    0  502 -0.34519950051E+02 -0.30012797429E+02 -0.43691585889E+02  0.63430589138E+02  0.47000000000E+01 0. -1.
        -11    1    1    2    0    0  0.51615192162E+02  0.92275490520E+02 -0.60496258676E+03  0.61413241699E+03  0.00000000000E+00 0.  1.
         11    1    1    2    0    0 -0.30074185519E+02  0.78585800617E+02 -0.31817489788E+03  0.32911312695E+03  0.00000000000E+00 0. -1.
<mgrwt>
<rscale>  0 0.20792805E+03</rscale>
<asrwt>0</asrwt>
<pdfrwt beam="2">  1        1 0.23434396E+00 0.21289017E+03</pdfrwt>
<pdfrwt beam="1">  1       -1 0.45010657E-02 0.21289017E+03</pdfrwt>
<totfact> 0.14269081E+03</totfact>
</mgrwt>
</event>
<event>
 7    1  0.6387485E-006  0.1263727E+03  0.7546771E-02  0.1247588E+00
         -1   -1    0    0    0  501 -0.00000000000E+00  0.00000000000E+00  0.87527959740E+02  0.87527959740E+02  0.00000000000E+00 0.  1.
          1   -1    0    0  501    0  0.00000000000E+00 -0.00000000000E+00 -0.18067477168E+03  0.18067477168E+03  0.00000000000E+00 0. -1.
         23    2    1    2    0    0  0.18196998404E+02  0.60343440916E+00  0.12371429169E+02  0.12697680579E+03  0.12505423649E+03 0.  0.
          5    1    3    3  502    0  0.65715136462E+02 -0.15063528307E+02 -0.15743149219E+02  0.69392548538E+02  0.47000000000E+01 0. -1.
         -5    1    3    3    0  502 -0.47518138058E+02  0.15666962716E+02  0.28114578388E+02  0.57584257251E+02  0.47000000000E+01 0.  1.
        -11    1    1    2    0    0  0.32005402847E+02  0.16902491523E+02 -0.64930692035E+02  0.74337304224E+02  0.00000000000E+00 0. -1.
         11    1    1    2    0    0 -0.50202401251E+02 -0.17505925932E+02 -0.40587549077E+02  0.66888621410E+02  0.00000000000E+00 0.  1.
<mgrwt>
<rscale>  0 0.11731836E+03</rscale>
<asrwt>0</asrwt>
<pdfrwt beam="2">  1        1 0.27796118E-01 0.12637269E+03</pdfrwt>
<pdfrwt beam="1">  1       -1 0.13465840E-01 0.12637269E+03</pdfrwt>
<totfact> 0.60394406E+03</totfact>
</mgrwt>
</event>
<event>
 7    1  0.3273830E-005  0.3845626E+03  0.7546771E-02  0.1050153E+00
          1   -1    0    0  501    0  0.00000000000E+00  0.00000000000E+00  0.92535900354E+03  0.92535900354E+03  0.00000000000E+00 0. -1.
         -1   -1    0    0    0  501 -0.00000000000E+00 -0.00000000000E+00 -0.16171460192E+03  0.16171460192E+03  0.00000000000E+00 0.  1.
         23    2    1    2    0    0 -0.36228649025E+03  0.31812677292E+02  0.28274867998E+03  0.47732083701E+03  0.12499927183E+03 0.  0.
          5    1    3    3  502    0 -0.10661930320E+03 -0.41322224874E+02  0.11843489101E+03  0.16469400563E+03  0.47000000000E+01 0.  1.
         -5    1    3    3    0  502 -0.25566718705E+03  0.73134902166E+02  0.16431378897E+03  0.31262683138E+03  0.47000000000E+01 0.  1.
        -11    1    1    2    0    0  0.23502758021E+03 -0.38327861170E+02  0.24512244260E+03  0.34174844589E+03  0.00000000000E+00 0.  1.
         11    1    1    2    0    0  0.12725891004E+03  0.65151838777E+01  0.23577327904E+03  0.26800432256E+03  0.00000000000E+00 0. -1.
<mgrwt>
<rscale>  0 0.38211965E+03</rscale>
<asrwt>0</asrwt>
<pdfrwt beam="1">  1        1 0.14236292E+00 0.38456256E+03</pdfrwt>
<pdfrwt beam="2">  1       -1 0.24879170E-01 0.38456256E+03</pdfrwt>
<totfact> 0.25475445E+02</totfact>
</mgrwt>
</event>
<event>
 7    1  0.6387485E-006  0.1320007E+03  0.7546771E-02  0.1237840E+00
         -2   -1    0    0    0  501 -0.00000000000E+00  0.00000000000E+00  0.62355268634E+02  0.62355268634E+02  0.00000000000E+00 0.  1.
          2   -1    0    0  501    0  0.00000000000E+00 -0.00000000000E+00 -0.23741484651E+03  0.23741484651E+03  0.00000000000E+00 0. -1.
         23    2    1    2    0    0 -0.27908691012E+02 -0.31957803124E+02 -0.54166009081E+02  0.14268199128E+03  0.12499599146E+03 0.  0.
          5    1    3    3  502    0 -0.71532218848E+01 -0.13197558620E+02  0.40716348494E+02  0.43649228762E+02  0.47000000000E+01 0. -1.
         -5    1    3    3    0  502 -0.20755469127E+02 -0.18760244505E+02 -0.94882357575E+02  0.99032762516E+02  0.47000000000E+01 0. -1.
        -11    1    1    2    0    0  0.14750769310E+02  0.28903419114E+02 -0.13423558840E+03  0.13810208552E+03  0.00000000000E+00 0. -1.
         11    1    1    2    0    0  0.13157921702E+02  0.30543840108E+01  0.13342019601E+02  0.18986038350E+02  0.00000000000E+00 0.  1.
<mgrwt>
<rscale>  0 0.12324369E+03</rscale>
<asrwt>0</asrwt>
<pdfrwt beam="2">  1        2 0.36525361E-01 0.13200074E+03</pdfrwt>
<pdfrwt beam="1">  1       -2 0.95931182E-02 0.13200074E+03</pdfrwt>
<totfact> 0.94414917E+03</totfact>
</mgrwt>
</event>
<event>
 7    1  0.6387485E-006  0.1573504E+03  0.7546771E-02  0.1199563E+00
          2   -1    0    0  501    0  0.00000000000E+00  0.00000000000E+00  0.46828861061E+03  0.46828861061E+03  0.00000000000E+00 0. -1.
         -2   -1    0    0    0  501 -0.00000000000E+00 -0.00000000000E+00 -0.46619854440E+02  0.46619854440E+02  0.00000000000E+00 0.  1.
         23    2    1    2    0    0 -0.75575499019E+02 -0.58498849247E+02  0.17840407297E+03  0.23788058423E+03  0.12500155073E+03 0.  0.
          5    1    3    3  502    0  0.35365766010E+01 -0.27069529612E+02  0.14284471621E+03  0.14550590969E+03  0.47000000000E+01 0.  1.
         -5    1    3    3    0  502 -0.79112075620E+02 -0.31429319635E+02  0.35559356765E+02  0.92374674533E+02  0.47000000000E+01 0.  1.
        -11    1    1    2    0    0  0.39122253206E+02  0.80489411950E+02  0.15359837110E+03  0.17776826414E+03  0.00000000000E+00 0.  1.
         11    1    1    2    0    0  0.36453245813E+02 -0.21990562703E+02  0.89666312100E+02  0.99259616682E+02  0.00000000000E+00 0. -1.
<mgrwt>
<rscale>  0 0.15074307E+03</rscale>
<asrwt>0</asrwt>
<pdfrwt beam="1">  1        2 0.72044399E-01 0.15735043E+03</pdfrwt>
<pdfrwt beam="2">  1       -2 0.71722856E-02 0.15735043E+03</pdfrwt>
<totfact> 0.72598618E+03</totfact>
</mgrwt>
</event>
<event>
 7    1  0.6387485E-006  0.1488007E+03  0.7546771E-02  0.1210983E+00
          2   -1    0    0  501    0  0.00000000000E+00  0.00000000000E+00  0.91107094640E+03  0.91107094640E+03  0.00000000000E+00 0. -1.
         -2   -1    0    0    0  501 -0.00000000000E+00 -0.00000000000E+00 -0.20405067727E+02  0.20405067727E+02  0.00000000000E+00 0.  1.
         23    2    1    2    0    0  0.28119175658E+02  0.75665429714E+02  0.53361849631E+03  0.55397684505E+03  0.12500279976E+03 0.  0.
          5    1    3    3  502    0  0.37118654602E+02  0.33151423842E+02  0.48888476455E+03  0.49143383525E+03  0.47000000000E+01 0. -1.
         -5    1    3    3    0  502 -0.89994789438E+01  0.42514005872E+02  0.44733731761E+02  0.62543009792E+02  0.47000000000E+01 0. -1.
        -11    1    1    2    0    0 -0.30343632993E+02  0.10484271529E+02  0.58117642059E+02  0.66395152919E+02  0.00000000000E+00 0.  1.
         11    1    1    2    0    0  0.22244573350E+01 -0.86149701243E+02  0.29892974030E+03  0.31110401616E+03  0.00000000000E+00 0. -1.
<mgrwt>
<rscale>  0 0.14175798E+03</rscale>
<asrwt>0</asrwt>
<pdfrwt beam="1">  1        2 0.14016473E+00 0.14880069E+03</pdfrwt>
<pdfrwt beam="2">  1       -2 0.31392419E-02 0.14880069E+03</pdfrwt>
<totfact> 0.11419644E+04</totfact>
</mgrwt>
</event>
<event>
 7    1  0.6387485E-006  0.1274692E+03  0.7546771E-02  0.1245905E+00
          2   -1    0    0  501    0  0.00000000000E+00  0.00000000000E+00  0.53585740221E+02  0.53585740221E+02  0.00000000000E+00 0. -1.
         -2   -1    0    0    0  501 -0.00000000000E+00 -0.00000000000E+00 -0.23026909461E+03  0.23026909461E+03  0.00000000000E+00 0.  1.
         23    2    1    2    0    0 -0.24306521623E+02 -0.56713906196E+01 -0.10534455008E+03  0.16536587221E+03  0.12500170317E+03 0.  0.
          5    1    3    3  502    0 -0.30031760338E+02 -0.19180926300E+02 -0.13077930139E+03  0.13562864828E+03  0.47000000000E+01 0.  1.
         -5    1    3    3    0  502  0.57252387146E+01  0.13509535680E+02  0.25434751310E+02  0.29737223927E+02  0.47000000000E+01 0.  1.
        -11    1    1    2    0    0  0.28601528937E+00  0.46426346162E+02 -0.43367420363E+02  0.63531256651E+02  0.00000000000E+00 0.  1.
         11    1    1    2    0    0  0.24020506334E+02 -0.40754955543E+02 -0.27971383946E+02  0.54957705972E+02  0.00000000000E+00 0. -1.
<mgrwt>
<rscale>  0 0.11831350E+03</rscale>
<asrwt>0</asrwt>
<pdfrwt beam="1">  1        2 0.82439600E-02 0.12746920E+03</pdfrwt>
<pdfrwt beam="2">  1       -2 0.35426015E-01 0.12746920E+03</pdfrwt>
<totfact> 0.57941769E+03</totfact>
</mgrwt>
</event>
<event>
 7    1  0.6387485E-006  0.1607281E+03  0.7546771E-02  0.1195411E+00
          1   -1    0    0  501    0  0.00000000000E+00  0.00000000000E+00  0.51759159041E+02  0.51759159041E+02  0.00000000000E+00 0. -1.
         -1   -1    0    0    0  501 -0.00000000000E+00 -0.00000000000E+00 -0.44842143650E+03  0.44842143650E+03  0.00000000000E+00 0.  1.
         23    2    1    2    0    0  0.76127818576E+02 -0.66429394724E+02 -0.27004384253E+03  0.31425657830E+03  0.12500084350E+03 0.  0.
          5    1    3    3  502    0 -0.24343120281E+02 -0.74353108565E+01 -0.74453978437E+01  0.26933163602E+02  0.47000000000E+01 0.  1.
         -5    1    3    3    0  502  0.10047093886E+03 -0.58994083867E+02 -0.26259844468E+03  0.28732341470E+03  0.47000000000E+01 0.  1.
        -11    1    1    2    0    0 -0.70414954643E+02  0.15057335474E+02 -0.11029449496E+03  0.13171888554E+03  0.00000000000E+00 0. -1.
         11    1    1    2    0    0 -0.57128639330E+01  0.51372059250E+02 -0.16323939966E+02  0.54205131693E+02  0.00000000000E+00 0.  1.
<mgrwt>
<rscale>  0 0.15419469E+03</rscale>
<asrwt>0</asrwt>
<pdfrwt beam="1">  1        1 0.79629474E-02 0.16072809E+03</pdfrwt>
<pdfrwt beam="2">  1       -1 0.68987914E-01 0.16072809E+03</pdfrwt>
<totfact> 0.18926303E+03</totfact>
</mgrwt>
</event>
<event>
 7    1  0.6387485E-006  0.1287883E+03  0.7546771E-02  0.1243135E+00
          2   -1    0    0  501    0  0.00000000000E+00  0.00000000000E+00  0.27680141952E+03  0.27680141952E+03  0.00000000000E+00 0. -1.
         -2   -1    0    0    0  501 -0.00000000000E+00 -0.00000000000E+00 -0.52407694132E+02  0.52407694132E+02  0.00000000000E+00 0.  1.
         23    2    1    2    0    0  0.27711116496E+02  0.13834028649E+02  0.69216809117E+02  0.14621010877E+03  0.12500857137E+03 0.  0.
          5    1    3    3  502    0  0.24552008794E+02  0.32439837774E+02 -0.26340652219E+02  0.48693574216E+02  0.47000000000E+01 0.  1.
         -5    1    3    3    0  502  0.31591077013E+01 -0.18605809125E+02  0.95557461336E+02  0.97516534555E+02  0.47000000000E+01 0.  1.
        -11    1    1    2    0    0 -0.57746777181E+02  0.88014778928E+01  0.81421212348E+02  0.10020763498E+03  0.00000000000E+00 0.  1.
         11    1    1    2    0    0  0.30035660685E+02 -0.22635506542E+02  0.73755703925E+02  0.82791369904E+02  0.00000000000E+00 0. -1.
<mgrwt>
<rscale>  0 0.11997725E+03</rscale>
<asrwt>0</asrwt>
<pdfrwt beam="1">  1        2 0.42584833E-01 0.12878831E+03</pdfrwt>
<pdfrwt beam="2">  1       -2 0.80627224E-02 0.12878831E+03</pdfrwt>
<totfact> 0.10486657E+04</totfact>
</mgrwt>
</event>
<event>
 7    1  0.6387485E-006  0.1474847E+03  0.7546771E-02  0.1230441E+00
         -4   -1    0    0    0  501 -0.00000000000E+00  0.00000000000E+00  0.10239986777E+04  0.10239986777E+04  0.00000000000E+00 0.  1.
          4   -1    0    0  501    0  0.00000000000E+00 -0.00000000000E+00 -0.14271755281E+02  0.14271755281E+02  0.00000000000E+00 0. -1.
         23    2    1    2    0    0 -0.81828090427E+02  0.23601364564E+01  0.77883473765E+03  0.79267602606E+03  0.12267977460E+03 0.  0.
          5    1    3    3  502    0 -0.12937396619E+02  0.36416250493E+02  0.73700507724E+02  0.83350911033E+02  0.47000000000E+01 0. -1.
         -5    1    3    3    0  502 -0.68890693808E+02 -0.34056114036E+02  0.70513422993E+03  0.70932511503E+03  0.47000000000E+01 0.  1.
        -11    1    1    2    0    0  0.15015580338E+02  0.35509238968E+00  0.65423116569E+02  0.67125091621E+02  0.00000000000E+00 0.  1.
         11    1    1    2    0    0  0.66812510089E+02 -0.27152288461E+01  0.16546906819E+03  0.17846931529E+03  0.00000000000E+00 0. -1.
<mgrwt>
<rscale>  0 0.12800868E+03</rscale>
<asrwt>0</asrwt>
<pdfrwt beam="2">  1        4 0.21956555E-02 0.14748469E+03</pdfrwt>
<pdfrwt beam="1">  1       -4 0.15753820E+00 0.14748469E+03</pdfrwt>
<totfact> 0.41726935E+02</totfact>
</mgrwt>
</event>
<event>
 7    1  0.6387485E-006  0.1497396E+03  0.7546771E-02  0.1209917E+00
         -2   -1    0    0    0  501 -0.00000000000E+00  0.00000000000E+00  0.18761427072E+02  0.18761427072E+02  0.00000000000E+00 0.  1.
          2   -1    0    0  501    0  0.00000000000E+00 -0.00000000000E+00 -0.10688744950E+04  0.10688744950E+04  0.00000000000E+00 0. -1.
         23    2    1    2    0    0  0.36224035444E+02 -0.74055785734E+02 -0.42708825374E+03  0.45257742422E+03  0.12500203315E+03 0.  0.
          5    1    3    3  502    0  0.19574365618E+01  0.34921523549E+02 -0.10842178752E+03  0.11402069275E+03  0.47000000000E+01 0.  1.
         -5    1    3    3    0  502  0.34266598882E+02 -0.10897730928E+03 -0.31866646622E+03  0.33855673148E+03  0.47000000000E+01 0.  1.
        -11    1    1    2    0    0 -0.46764225778E+02 -0.10571356289E+01 -0.21277195140E+03  0.21785296337E+03  0.00000000000E+00 0.  1.
         11    1    1    2    0    0  0.10540190334E+02  0.75112921363E+02 -0.41025286275E+03  0.41720553443E+03  0.00000000000E+00 0. -1.
<mgrwt>
<rscale>  0 0.14256601E+03</rscale>
<asrwt>0</asrwt>
<pdfrwt beam="2">  1        2 0.16444222E+00 0.14973960E+03</pdfrwt>
<pdfrwt beam="1">  1       -2 0.28863736E-02 0.14973960E+03</pdfrwt>
<totfact> 0.10382203E+04</totfact>
</mgrwt>
</event>
<event>
 7    1  0.6387485E-006  0.2693276E+03  0.7546771E-02  0.1103868E+00
         -3   -1    0    0    0  501 -0.00000000000E+00  0.00000000000E+00  0.44065115814E+03  0.44065115814E+03  0.00000000000E+00 0.  1.
          3   -1    0    0  501    0  0.00000000000E+00 -0.00000000000E+00 -0.19341394785E+03  0.19341394785E+03  0.00000000000E+00 0. -1.
         23    2    1    2    0    0  0.38893829000E+02  0.23537007784E+03  0.26650293918E+03  0.37889469889E+03  0.12500229109E+03 0.  0.
          5    1    3    3  502    0  0.51044262060E+02  0.19140631551E+03  0.13537275940E+03  0.23997868300E+03  0.47000000000E+01 0.  1.
         -5    1    3    3    0  502 -0.12150433060E+02  0.43963762332E+02  0.13113017978E+03  0.13891601589E+03  0.47000000000E+01 0.  1.
        -11    1    1    2    0    0 -0.78341124388E+01 -0.54971368234E+02 -0.43477469257E+02  0.70523152058E+02  0.00000000000E+00 0. -1.
         11    1    1    2    0    0 -0.31059716561E+02 -0.18039870961E+03  0.24211740359E+02  0.18464725504E+03  0.00000000000E+00 0.  1.
<mgrwt>
<rscale>  0 0.26552653E+03</rscale>
<asrwt>0</asrwt>
<pdfrwt beam="2">  1        3 0.29755992E-01 0.26932764E+03</pdfrwt>
<pdfrwt beam="1">  1       -3 0.67792486E-01 0.26932764E+03</pdfrwt>
<totfact> 0.57948778E+01</totfact>
</mgrwt>
</event>
<event>
 6    1  0.6387485E-006  0.3405953E+03  0.7546771E-02  0.1091636E+00
          2   -1    0    0  501    0  0.00000000000E+00  0.00000000000E+00  0.11327784403E+04  0.11327784403E+04  0.00000000000E+00 0. -1.
         -2   -1    0    0    0  501 -0.00000000000E+00 -0.00000000000E+00 -0.78586015938E+02  0.78586015938E+02  0.00000000000E+00 0.  1.
          5    1    1    2  502    0  0.34935498487E+02 -0.21306359815E+03  0.13620977317E+03  0.25532680670E+03  0.47000000000E+01 0. -1.
         -5    1    1    2    0  502  0.31545195186E+02  0.82244759150E+02  0.22237326569E+03  0.23923055624E+03  0.47000000000E+01 0.  1.
        -11    1    1    2    0    0 -0.67050814416E+02  0.54791531498E+02  0.24553568260E+03  0.26035686100E+03  0.00000000000E+00 0. -1.
         11    1    1    2    0    0  0.57012074268E+00  0.76027307505E+02  0.45007370290E+03  0.45645023230E+03  0.00000000000E+00 0.  1.
<mgrwt>
<rscale>  0 0.28754809E+03</rscale>
<asrwt>0</asrwt>
<pdfrwt beam="1">  1        2 0.17427359E+00 0.34059535E+03</pdfrwt>
<pdfrwt beam="2">  1       -2 0.12090157E-01 0.34059535E+03</pdfrwt>
<totfact> 0.10658834E+03</totfact>
</mgrwt>
</event>
<event>
 7    1  0.6387485E-006  0.1321906E+03  0.7546771E-02  0.1237577E+00
          1   -1    0    0  501    0  0.00000000000E+00  0.00000000000E+00  0.18672477836E+03  0.18672477836E+03  0.00000000000E+00 0. -1.
         -1   -1    0    0    0  501 -0.00000000000E+00 -0.00000000000E+00 -0.75935447078E+02  0.75935447078E+02  0.00000000000E+00 0.  1.
         23    2    1    2    0    0  0.39371340456E+01  0.42818462861E+02  0.34681559461E+02  0.13666442919E+03  0.12500173540E+03 0.  0.
          5    1    3    3  502    0 -0.30592055498E+02  0.59896776836E+02 -0.19347900266E+02  0.70142205409E+02  0.47000000000E+01 0. -1.
         -5    1    3    3    0  502  0.34529189544E+02 -0.17078313975E+02  0.54029459727E+02  0.66522223784E+02  0.47000000000E+01 0. -1.
        -11    1    1    2    0    0  0.19817990304E+02  0.15522013962E+02 -0.24613332542E+01  0.25293157543E+02  0.00000000000E+00 0.  1.
         11    1    1    2    0    0 -0.23755124350E+02 -0.58340476823E+02  0.78569105071E+02  0.10070263870E+03  0.00000000000E+00 0. -1.
<mgrwt>
<rscale>  0 0.12340897E+03</rscale>
<asrwt>0</asrwt>
<pdfrwt beam="1">  1        1 0.28726889E-01 0.13219060E+03</pdfrwt>
<pdfrwt beam="2">  1       -1 0.11682377E-01 0.13219060E+03</pdfrwt>
<totfact> 0.72431075E+03</totfact>
</mgrwt>
</event>
<event>
 7    1  0.6387485E-006  0.2741276E+03  0.7546771E-02  0.1100865E+00
         -1   -1    0    0    0  501 -0.00000000000E+00  0.00000000000E+00  0.15130934312E+03  0.15130934312E+03  0.00000000000E+00 0.  1.
          1   -1    0    0  501    0  0.00000000000E+00 -0.00000000000E+00 -0.48344020118E+03  0.48344020118E+03  0.00000000000E+00 0. -1.
         23    2    1    2    0    0  0.23369373550E+03 -0.70039285738E+02 -0.12290345303E+03  0.30041841395E+03  0.12501080400E+03 0.  0.
          5    1    3    3  502    0  0.22627620410E+03 -0.82872352612E+02 -0.78675156395E+02  0.25353622543E+03  0.47000000000E+01 0. -1.
         -5    1    3    3    0  502  0.74175313959E+01  0.12833066873E+02 -0.44228296637E+02  0.46882188524E+02  0.47000000000E+01 0. -1.
        -11    1    1    2    0    0 -0.15765504132E+03  0.50437484496E+02 -0.81759884004E+02  0.18461779580E+03  0.00000000000E+00 0.  1.
         11    1    1    2    0    0 -0.76038694181E+02  0.19601801243E+02 -0.12746752102E+03  0.14971333454E+03  0.00000000000E+00 0. -1.
<mgrwt>
<rscale>  0 0.27072552E+03</rscale>
<asrwt>0</asrwt>
<pdfrwt beam="2">  1        1 0.74375413E-01 0.27412764E+03</pdfrwt>
<pdfrwt beam="1">  1       -1 0.23278361E-01 0.27412764E+03</pdfrwt>
<totfact> 0.74352839E+02</totfact>
</mgrwt>
</event>
<event>
 7    1  0.6387485E-006  0.1452703E+03  0.7546771E-02  0.1215537E+00
         -4   -1    0    0    0  501 -0.00000000000E+00  0.00000000000E+00  0.23849096515E+04  0.23849096515E+04  0.00000000000E+00 0.  1.
          4   -1    0    0  501    0  0.00000000000E+00 -0.00000000000E+00 -0.93407524911E+01  0.93407524911E+01  0.00000000000E+00 0. -1.
         23    2    1    2    0    0  0.30529021311E+02  0.70450614338E+02  0.18286622512E+04  0.18344233668E+04  0.12332132620E+03 0.  0.
          5    1    3    3  502    0 -0.23124928686E+02  0.77712909741E+02  0.74818592803E+03  0.75258111295E+03  0.47000000000E+01 0. -1.
         -5    1    3    3    0  502  0.53653949997E+02 -0.72622954037E+01  0.10804763232E+04  0.10818422538E+04  0.47000000000E+01 0.  1.
        -11    1    1    2    0    0  0.28815889457E+02 -0.47029056130E+02  0.28230682229E+03  0.28764427600E+03  0.00000000000E+00 0.  1.
         11    1    1    2    0    0 -0.59344910769E+02 -0.23421558207E+02  0.26459982551E+03  0.27218276118E+03  0.00000000000E+00 0. -1.
<mgrwt>
<rscale>  0 0.13837176E+03</rscale>
<asrwt>0</asrwt>
<pdfrwt beam="2">  1        4 0.14370407E-02 0.14527030E+03</pdfrwt>
<pdfrwt beam="1">  1       -4 0.36690869E+00 0.14527030E+03</pdfrwt>
<totfact> 0.42946523E+01</totfact>
</mgrwt>
</event>
<event>
 7    1  0.6387485E-006  0.1766413E+03  0.7546771E-02  0.1177194E+00
         -2   -1    0    0    0  501 -0.00000000000E+00  0.00000000000E+00  0.60666937022E+02  0.60666937022E+02  0.00000000000E+00 0.  1.
          2   -1    0    0  501    0  0.00000000000E+00 -0.00000000000E+00 -0.54376670572E+03  0.54376670572E+03  0.00000000000E+00 0. -1.
         23    2    1    2    0    0 -0.12848541040E+02 -0.12418691504E+03 -0.13008183271E+03  0.21937050107E+03  0.12495862781E+03 0.  0.
          5    1    3    3  502    0  0.34509462140E+02 -0.12193720200E+03 -0.78460780782E+02  0.14912333262E+03  0.47000000000E+01 0. -1.
         -5    1    3    3    0  502 -0.47358003180E+02 -0.22497130397E+01 -0.51621051925E+02  0.70247168454E+02  0.47000000000E+01 0. -1.
        -11    1    1    2    0    0  0.41828566511E+02  0.50561904102E+02 -0.22673571267E+03  0.23604071370E+03  0.00000000000E+00 0. -1.
         11    1    1    2    0    0 -0.28980025470E+02  0.73625010941E+02 -0.12628222332E+03  0.14902242797E+03  0.00000000000E+00 0.  1.
<mgrwt>
<rscale>  0 0.17062886E+03</rscale>
<asrwt>0</asrwt>
<pdfrwt beam="2">  1        2 0.83656416E-01 0.17664126E+03</pdfrwt>
<pdfrwt beam="1">  1       -2 0.93333750E-02 0.17664126E+03</pdfrwt>
<totfact> 0.41076450E+03</totfact>
</mgrwt>
</event>
<event>
 7    1  0.6387485E-006  0.1468138E+03  0.7546771E-02  0.1213934E+00
          2   -1    0    0  501    0  0.00000000000E+00  0.00000000000E+00  0.60427743070E+03  0.60427743070E+03  0.00000000000E+00 0. -1.
         -2   -1    0    0    0  501 -0.00000000000E+00 -0.00000000000E+00 -0.41815928543E+02  0.41815928543E+02  0.00000000000E+00 0.  1.
         23    2    1    2    0    0  0.76317695886E+02  0.10462778817E+02  0.12597871274E+03  0.19345527147E+03  0.12498178087E+03 0.  0.
          5    1    3    3  502    0  0.40428140081E+02  0.67756504625E+02  0.68471789027E+02  0.10457463517E+03  0.47000000000E+01 0. -1.
         -5    1    3    3    0  502  0.35889555805E+02 -0.57293725807E+02  0.57506923717E+02  0.88880636295E+02  0.47000000000E+01 0. -1.
        -11    1    1    2    0    0 -0.67466609459E+02 -0.32535177722E+02  0.41105211554E+03  0.41782068267E+03  0.00000000000E+00 0. -1.
         11    1    1    2    0    0 -0.88510864265E+01  0.22072398905E+02  0.25430673880E+02  0.34817405107E+02  0.00000000000E+00 0.  1.
<mgrwt>
<rscale>  0 0.13955157E+03</rscale>
<asrwt>0</asrwt>
<pdfrwt beam="1">  1        2 0.92965752E-01 0.14681385E+03</pdfrwt>
<pdfrwt beam="2">  1       -2 0.64332202E-02 0.14681385E+03</pdfrwt>
<totfact> 0.64276358E+03</totfact>
</mgrwt>
</event>
<event>
 7    1  0.6387485E-006  0.2774267E+03  0.7546771E-02  0.1099015E+00
         -2   -1    0    0    0  501 -0.00000000000E+00  0.00000000000E+00  0.14457542429E+03  0.14457542429E+03  0.00000000000E+00 0. -1.
          2   -1    0    0  501    0  0.00000000000E+00 -0.00000000000E+00 -0.53097407303E+03  0.53097407303E+03  0.00000000000E+00 0.  1.
         23    2    1    2    0    0 -0.21106913383E+03  0.12957849509E+03 -0.12576237429E+03  0.30460097011E+03  0.12499924225E+03 0.  0.
          5    1    3    3  502    0 -0.22065809242E+03  0.11825020976E+03 -0.90828346686E+02  0.26635499699E+03  0.47000000000E+01 0.  1.
         -5    1    3    3    0  502  0.95889585954E+01  0.11328285323E+02 -0.34934027604E+02  0.38245973120E+02  0.47000000000E+01 0.  1.
        -11    1    1    2    0    0  0.13002957930E+03 -0.10511035974E+03 -0.22193448834E+03  0.27786830754E+03  0.00000000000E+00 0.  1.
         11    1    1    2    0    0  0.81039554528E+02 -0.24468135348E+02 -0.38701786109E+02  0.93080219669E+02  0.00000000000E+00 0. -1.
<mgrwt>
<rscale>  0 0.27399531E+03</rscale>
<asrwt>0</asrwt>
<pdfrwt beam="2">  1        2 0.81688320E-01 0.27742670E+03</pdfrwt>
<pdfrwt beam="1">  1       -2 0.22242373E-01 0.27742670E+03</pdfrwt>
<totfact> 0.10176415E+03</totfact>
</mgrwt>
</event>
<event>
 7    1  0.6387485E-006  0.1397666E+03  0.7546771E-02  0.1230039E+00
         -2   -1    0    0    0  501 -0.00000000000E+00  0.00000000000E+00  0.38788017054E+02  0.38788017054E+02  0.00000000000E+00 0. -1.
          2   -1    0    0  501    0  0.00000000000E+00 -0.00000000000E+00 -0.50592677354E+03  0.50592677354E+03  0.00000000000E+00 0.  1.
         23    2    1    2    0    0 -0.51841065791E+02  0.34936320607E+02 -0.12170347214E+03  0.18532794076E+03  0.12500667141E+03 0.  0.
          5    1    3    3  502    0 -0.80165740664E+02  0.16424691942E+02 -0.12659890611E+03  0.15081674148E+03  0.47000000000E+01 0.  1.
         -5    1    3    3    0  502  0.28324674873E+02  0.18511628665E+02  0.48954339662E+01  0.34511199287E+02  0.47000000000E+01 0.  1.
        -11    1    1    2    0    0  0.41520611709E+02  0.17548843255E+02 -0.13854649242E+03  0.14569507081E+03  0.00000000000E+00 0.  1.
         11    1    1    2    0    0  0.10320454082E+02 -0.52485163862E+02 -0.20688879192E+03  0.21369177902E+03  0.00000000000E+00 0. -1.
<mgrwt>
<rscale>  0 0.12827453E+03</rscale>
<asrwt>0</asrwt>
<pdfrwt beam="2">  1        2 0.77834884E-01 0.13976663E+03</pdfrwt>
<pdfrwt beam="1">  1       -2 0.59673876E-02 0.13976663E+03</pdfrwt>
<totfact> 0.87685198E+03</totfact>
</mgrwt>
</event>
<event>
 7    1  0.6387485E-006  0.1331190E+03  0.7546771E-02  0.1234667E+00
          4   -1    0    0  501    0  0.00000000000E+00  0.00000000000E+00  0.14394676618E+03  0.14394676618E+03  0.00000000000E+00 0. -1.
         -4   -1    0    0    0  501 -0.00000000000E+00 -0.00000000000E+00 -0.12581557762E+03  0.12581557762E+03  0.00000000000E+00 0.  1.
         23    2    1    2    0    0 -0.22630660963E+02 -0.39800604605E+02 -0.53205920128E+02  0.14335811055E+03  0.12499777191E+03 0.  0.
          5    1    3    3  502    0 -0.27776591173E+02 -0.53916682080E+02 -0.86952802584E+02  0.10611987326E+03  0.47000000000E+01 0.  1.
         -5    1    3    3    0  502  0.51459302100E+01  0.14116077474E+02  0.33746882456E+02  0.37238237290E+02  0.47000000000E+01 0.  1.
        -11    1    1    2    0    0  0.12606544685E+02 -0.30299590942E+02  0.15868772020E+02  0.36452820270E+02  0.00000000000E+00 0. -1.
         11    1    1    2    0    0  0.10024116278E+02  0.70100195548E+02  0.55468336670E+02  0.89951412974E+02  0.00000000000E+00 0.  1.
<mgrwt>
<rscale>  0 0.12525753E+03</rscale>
<asrwt>0</asrwt>
<pdfrwt beam="1">  1        4 0.22145656E-01 0.13311904E+03</pdfrwt>
<pdfrwt beam="2">  1       -4 0.19356243E-01 0.13311904E+03</pdfrwt>
<totfact> 0.73912951E+02</totfact>
</mgrwt>
</event>
<event>
 7    1  0.6387485E-006  0.1754845E+03  0.7546771E-02  0.1179254E+00
          1   -1    0    0  501    0  0.00000000000E+00  0.00000000000E+00  0.40632364307E+03  0.40632364307E+03  0.00000000000E+00 0. -1.
         -1   -1    0    0    0  501 -0.00000000000E+00 -0.00000000000E+00 -0.82119031619E+02  0.82119031619E+02  0.00000000000E+00 0.  1.
         23    2    1    2    0    0 -0.10785752754E+03 -0.59464951315E+02  0.61289433146E+02  0.18587958399E+03  0.12500199377E+03 0.  0.
          5    1    3    3  502    0  0.23979537397E+02  0.71523667584E+01  0.20160577620E+02  0.32476352227E+02  0.47000000000E+01 0. -1.
         -5    1    3    3    0  502 -0.13183706494E+03 -0.66617318073E+02  0.41128855527E+02  0.15340323176E+03  0.47000000000E+01 0. -1.
        -11    1    1    2    0    0  0.75351635101E+01  0.20282943262E+02  0.38170496705E+01  0.21971489360E+02  0.00000000000E+00 0. -1.
         11    1    1    2    0    0  0.10032236403E+03  0.39182008053E+02  0.25909812863E+03  0.28059160134E+03  0.00000000000E+00 0.  1.
<mgrwt>
<rscale>  0 0.16865867E+03</rscale>
<asrwt>0</asrwt>
<pdfrwt beam="1">  1        1 0.62511329E-01 0.17548454E+03</pdfrwt>
<pdfrwt beam="2">  1       -1 0.12633697E-01 0.17548454E+03</pdfrwt>
<totfact> 0.24688391E+03</totfact>
</mgrwt>
</event>
<event>
 7    1  0.6387485E-006  0.1372204E+03  0.7546771E-02  0.1228297E+00
         -2   -1    0    0    0  501 -0.00000000000E+00  0.00000000000E+00  0.96438965344E+02  0.96438965344E+02  0.00000000000E+00 0.  1.
          2   -1    0    0  501    0  0.00000000000E+00 -0.00000000000E+00 -0.26891545381E+03  0.26891545381E+03  0.00000000000E+00 0. -1.
         23    2    1    2    0    0  0.32260512995E+02  0.46521461250E+02  0.25466019436E+02  0.13956343053E+03  0.12499778374E+03 0.  0.
          5    1    3    3  502    0  0.12031004407E+02 -0.26132420620E+02  0.51886074131E+02  0.59513890507E+02  0.47000000000E+01 0.  1.
         -5    1    3    3    0  502  0.20229508588E+02  0.72653881870E+02 -0.26420054696E+02  0.80049540028E+02  0.47000000000E+01 0.  1.
        -11    1    1    2    0    0  0.20555531526E+02 -0.49442251862E+02 -0.77007718870E+02  0.93793682682E+02  0.00000000000E+00 0.  1.
         11    1    1    2    0    0 -0.52816044521E+02  0.29207906115E+01 -0.12093478903E+03  0.13199730594E+03  0.00000000000E+00 0. -1.
<mgrwt>
<rscale>  0 0.12943471E+03</rscale>
<asrwt>0</asrwt>
<pdfrwt beam="2">  1        2 0.41371608E-01 0.13722038E+03</pdfrwt>
<pdfrwt beam="1">  1       -2 0.14836764E-01 0.13722038E+03</pdfrwt>
<totfact> 0.41319175E+03</totfact>
</mgrwt>
</event>
<event>
 6    1  0.6387485E-006  0.5751786E+03  0.7546771E-02  0.9958284E-01
          2   -1    0    0  501    0  0.00000000000E+00  0.00000000000E+00  0.60221778693E+03  0.60221778693E+03  0.00000000000E+00 0. -1.
         -2   -1    0    0    0  501 -0.00000000000E+00 -0.00000000000E+00 -0.13733836078E+03  0.13733836078E+03  0.00000000000E+00 0.  1.
          5    1    1    2  502    0  0.48391425859E+02 -0.45908557706E+01  0.11497673165E+02  0.50170634255E+02  0.47000000000E+01 0. -1.
         -5    1    1    2    0  502 -0.65335994579E+02 -0.54537689798E+02 -0.73420628874E+02  0.11249813572E+03  0.47000000000E+01 0.  1.
        -11    1    1    2    0    0  0.14163717995E+02 -0.69868384048E+02  0.35467873407E+03  0.36177231293E+03  0.00000000000E+00 0.  1.
         11    1    1    2    0    0  0.27808507243E+01  0.12899692962E+03  0.17212364779E+03  0.21511506481E+03  0.00000000000E+00 0. -1.
<mgrwt>
<rscale>  0 0.57517859E+03</rscale>
<asrwt>0</asrwt>
<pdfrwt beam="1">  1        2 0.92648889E-01 0.57517859E+03</pdfrwt>
<pdfrwt beam="2">  1       -2 0.21128979E-01 0.57517859E+03</pdfrwt>
<totfact> 0.96007723E+02</totfact>
</mgrwt>
</event>
<event>
 7    1  0.6387485E-006  0.1363801E+03  0.7546771E-02  0.1233227E+00
         -4   -1    0    0    0  501 -0.00000000000E+00  0.00000000000E+00  0.30719246880E+02  0.30719246880E+02  0.00000000000E+00 0.  1.
          4   -1    0    0  501    0  0.00000000000E+00 -0.00000000000E+00 -0.45484559105E+03  0.45484559105E+03  0.00000000000E+00 0. -1.
         23    2    1    2    0    0 -0.38664672184E+02 -0.38470015198E+02 -0.25088565552E+03  0.28555759501E+03  0.12499851590E+03 0.  0.
          5    1    3    3  502    0  0.30051792696E+02  0.83780626649E+01 -0.15659751459E+03  0.15974408832E+03  0.47000000000E+01 0.  1.
         -5    1    3    3    0  502 -0.68716464880E+02 -0.46848077863E+02 -0.94288140931E+02  0.12581350669E+03  0.47000000000E+01 0.  1.
        -11    1    1    2    0    0  0.32522586660E+02  0.21589671809E+01 -0.12189051335E+02  0.34798746454E+02  0.00000000000E+00 0.  1.
         11    1    1    2    0    0  0.61420855239E+01  0.36311048017E+02 -0.16105163732E+03  0.16520849647E+03  0.00000000000E+00 0. -1.
<mgrwt>
<rscale>  0 0.12618623E+03</rscale>
<asrwt>0</asrwt>
<pdfrwt beam="2">  1        4 0.69976245E-01 0.13638009E+03</pdfrwt>
<pdfrwt beam="1">  1       -4 0.47260380E-02 0.13638009E+03</pdfrwt>
<totfact> 0.82698596E+02</totfact>
</mgrwt>
</event>
<event>
 7    1  0.6387485E-006  0.3583168E+03  0.7546771E-02  0.1060307E+00
         -2   -1    0    0    0  501 -0.00000000000E+00  0.00000000000E+00  0.93438934358E+03  0.93438934358E+03  0.00000000000E+00 0.  1.
          2   -1    0    0  501    0  0.00000000000E+00 -0.00000000000E+00 -0.13500808070E+03  0.13500808070E+03  0.00000000000E+00 0. -1.
         23    2    1    2    0    0  0.27794644304E+03 -0.18819067392E+03  0.34784167402E+03  0.49938441371E+03  0.12538344199E+03 0.  0.
          5    1    3    3  502    0  0.12444173155E+03 -0.15856195900E+03  0.20581849479E+03  0.28811626506E+03  0.47000000000E+01 0. -1.
         -5    1    3    3    0  502  0.15350471149E+03 -0.29628714914E+02  0.14202317922E+03  0.21126814865E+03  0.47000000000E+01 0. -1.
        -11    1    1    2    0    0 -0.20068950404E+03  0.15301123866E+03  0.26984501923E+03  0.36946589909E+03  0.00000000000E+00 0.  1.
         11    1    1    2    0    0 -0.77256939001E+02  0.35179435254E+02  0.18169456963E+03  0.20054711148E+03  0.00000000000E+00 0. -1.
<mgrwt>
<rscale>  0 0.35568097E+03</rscale>
<asrwt>0</asrwt>
<pdfrwt beam="2">  1        2 0.20770475E-01 0.35831685E+03</pdfrwt>
<pdfrwt beam="1">  1       -2 0.14375220E+00 0.35831685E+03</pdfrwt>
<totfact> 0.93887526E+01</totfact>
</mgrwt>
</event>
<event>
 7    1  0.6387485E-006  0.1332532E+03  0.7546771E-02  0.1235784E+00
          2   -1    0    0  501    0  0.00000000000E+00  0.00000000000E+00  0.63554923733E+02  0.63554923733E+02  0.00000000000E+00 0. -1.
         -2   -1    0    0    0  501 -0.00000000000E+00 -0.00000000000E+00 -0.21770264181E+03  0.21770264181E+03  0.00000000000E+00 0.  1.
         23    2    1    2    0    0  0.42537032108E+02 -0.17942005806E+02 -0.94623511813E+02  0.16343200236E+03  0.12500038294E+03 0.  0.
          5    1    3    3  502    0  0.26808928021E+01 -0.43215271423E+02  0.13307468244E+02  0.45540373093E+02  0.47000000000E+01 0.  1.
         -5    1    3    3    0  502  0.39856139306E+02  0.25273265617E+02 -0.10793098006E+03  0.11789162927E+03  0.47000000000E+01 0.  1.
        -11    1    1    2    0    0  0.89866052372E+01 -0.22794313332E+02  0.58115877580E+01  0.25181627156E+02  0.00000000000E+00 0. -1.
         11    1    1    2    0    0 -0.51523637345E+02  0.40736319138E+02 -0.65335794024E+02  0.92643936028E+02  0.00000000000E+00 0.  1.
<mgrwt>
<rscale>  0 0.12454373E+03</rscale>
<asrwt>0</asrwt>
<pdfrwt beam="1">  1        2 0.97776808E-02 0.13325318E+03</pdfrwt>
<pdfrwt beam="2">  1       -2 0.33492713E-01 0.13325318E+03</pdfrwt>
<totfact> 0.52174010E+03</totfact>
</mgrwt>
</event>
<event>
 6    1  0.6387485E-006  0.1427691E+03  0.7546771E-02  0.1220665E+00
         -3   -1    0    0    0  501 -0.00000000000E+00  0.00000000000E+00  0.82314385614E+02  0.82314385614E+02  0.00000000000E+00 0.  1.
          3   -1    0    0  501    0  0.00000000000E+00 -0.00000000000E+00 -0.29467656245E+03  0.29467656245E+03  0.00000000000E+00 0. -1.
          5    1    1    2  502    0 -0.31392439855E+02  0.25230746810E+02 -0.46568117214E+02  0.61747513354E+02  0.47000000000E+01 0. -1.
         -5    1    1    2    0  502 -0.13257112188E+02 -0.69781108371E+02  0.39101188975E+02  0.81216667553E+02  0.47000000000E+01 0.  1.
        -11    1    1    2    0    0  0.33508373929E+02  0.23711062836E+01 -0.11095086363E+02  0.35377029409E+02  0.00000000000E+00 0. -1.
         11    1    1    2    0    0  0.11141178113E+02  0.42179255278E+02 -0.19380016223E+03  0.19864973775E+03  0.00000000000E+00 0.  1.
<mgrwt>
<rscale>  0 0.13468504E+03</rscale>
<asrwt>0</asrwt>
<pdfrwt beam="2">  1        3 0.45334856E-01 0.14276905E+03</pdfrwt>
<pdfrwt beam="1">  1       -3 0.12663752E-01 0.14276905E+03</pdfrwt>
<totfact> 0.56259274E+02</totfact>
</mgrwt>
</event>
<event>
 7    1  0.6387485E-006  0.1454886E+03  0.7546771E-02  0.1216366E+00
          2   -1    0    0  501    0  0.00000000000E+00  0.00000000000E+00  0.69143911366E+03  0.69143911366E+03  0.00000000000E+00 0. -1.
         -2   -1    0    0    0  501 -0.00000000000E+00 -0.00000000000E+00 -0.25216962012E+02  0.25216962012E+02  0.00000000000E+00 0.  1.
         23    2    1    2    0    0 -0.73808681386E+02 -0.97141536839E+01  0.32936902147E+03  0.36007066432E+03  0.12499937910E+03 0.  0.
          5    1    3    3  502    0  0.32509479740E+02  0.79189104041E+01  0.47725787863E+02  0.58475774831E+02  0.47000000000E+01 0. -1.
         -5    1    3    3    0  502 -0.10631816113E+03 -0.17633064088E+02  0.28164323360E+03  0.30159488949E+03  0.47000000000E+01 0. -1.
        -11    1    1    2    0    0  0.28032877634E+02 -0.27365430399E+02  0.48844600869E+02  0.62613928509E+02  0.00000000000E+00 0.  1.
         11    1    1    2    0    0  0.45775803752E+02  0.37079584083E+02  0.28800852932E+03  0.29397148284E+03  0.00000000000E+00 0. -1.
<mgrwt>
<rscale>  0 0.13776689E+03</rscale>
<asrwt>0</asrwt>
<pdfrwt beam="1">  1        2 0.10637523E+00 0.14548859E+03</pdfrwt>
<pdfrwt beam="2">  1       -2 0.38795331E-02 0.14548859E+03</pdfrwt>
<totfact> 0.11755586E+04</totfact>
</mgrwt>
</event>
<event>
 7    1  0.6387485E-006  0.1378037E+03  0.7546771E-02  0.1229289E+00
          1   -1    0    0  501    0  0.00000000000E+00  0.00000000000E+00  0.29796130226E+02  0.29796130226E+02  0.00000000000E+00 0. -1.
         -1   -1    0    0    0  501 -0.00000000000E+00 -0.00000000000E+00 -0.54650805123E+03  0.54650805123E+03  0.00000000000E+00 0.  1.
         23    2    1    2    0    0 -0.34267181346E+02  0.46753795429E+02 -0.37765303003E+03  0.40200953187E+03  0.12501878066E+03 0.  0.
          5    1    3    3  502    0 -0.44002160259E+02  0.40212332234E+02 -0.38346698137E+03  0.38810080852E+03  0.47000000000E+01 0.  1.
         -5    1    3    3    0  502  0.97349789129E+01  0.65414631954E+01  0.58139513381E+01  0.13908723354E+02  0.47000000000E+01 0.  1.
        -11    1    1    2    0    0  0.40477871146E+02  0.30409767183E+00 -0.18072236259E+02  0.44330082915E+02  0.00000000000E+00 0. -1.
         11    1    1    2    0    0 -0.62106897997E+01 -0.47057893101E+02 -0.12098665472E+03  0.12996456667E+03  0.00000000000E+00 0.  1.
<mgrwt>
<rscale>  0 0.12877243E+03</rscale>
<asrwt>0</asrwt>
<pdfrwt beam="1">  1        1 0.45840203E-02 0.13780367E+03</pdfrwt>
<pdfrwt beam="2">  1       -1 0.84078157E-01 0.13780367E+03</pdfrwt>
<totfact> 0.26692429E+03</totfact>
</mgrwt>
</event>
<event>
 7    1  0.6387485E-006  0.1526818E+03  0.7546771E-02  0.1204439E+00
          4   -1    0    0  501    0  0.00000000000E+00  0.00000000000E+00  0.18972430739E+02  0.18972430739E+02  0.00000000000E+00 0. -1.
         -4   -1    0    0    0  501 -0.00000000000E+00 -0.00000000000E+00 -0.13049489761E+04  0.13049489761E+04  0.00000000000E+00 0.  1.
         23    2    1    2    0    0  0.74592175593E+02 -0.46112636683E+02 -0.97153837691E+03  0.98346252639E+03  0.12498541946E+03 0.  0.
          5    1    3    3  502    0  0.33985277288E+02 -0.83169410616E+02 -0.44240510766E+03  0.45146042930E+03  0.47000000000E+01 0.  1.
         -5    1    3    3    0  502  0.40606898306E+02  0.37056773933E+02 -0.52913326924E+03  0.53200209709E+03  0.47000000000E+01 0.  1.
        -11    1    1    2    0    0  0.12211658683E+02  0.90773241176E+01 -0.36359388668E+01  0.15644247261E+02  0.00000000000E+00 0. -1.
         11    1    1    2    0    0 -0.86803834276E+02  0.37035312565E+02 -0.31080222961E+03  0.32481463322E+03  0.00000000000E+00 0.  1.
<mgrwt>
<rscale>  0 0.14681719E+03</rscale>
<asrwt>0</asrwt>
<pdfrwt beam="1">  1        4 0.29188359E-02 0.15268177E+03</pdfrwt>
<pdfrwt beam="2">  1       -4 0.20076135E+00 0.15268177E+03</pdfrwt>
<totfact> 0.13906445E+02</totfact>
</mgrwt>
</event>
<event>
 7    1  0.6387485E-006  0.1269282E+03  0.7546771E-02  0.1246527E+00
          1   -1    0    0  501    0  0.00000000000E+00  0.00000000000E+00  0.18755476666E+03  0.18755476666E+03  0.00000000000E+00 0. -1.
         -1   -1    0    0    0  501 -0.00000000000E+00 -0.00000000000E+00 -0.10296039923E+03  0.10296039923E+03  0.00000000000E+00 0.  1.
         23    2    1    2    0    0 -0.13862398339E+02 -0.17155313317E+02 -0.40886605606E+02  0.13335101017E+03  0.12499722610E+03 0.  0.
          5    1    3    3  502    0  0.26863898123E+01 -0.91593021210E+01  0.44565758121E+02  0.45818187464E+02  0.47000000000E+01 0. -1.
         -5    1    3    3    0  502 -0.16548788151E+02 -0.79960111959E+01 -0.85452363727E+02  0.87532822706E+02  0.47000000000E+01 0. -1.
        -11    1    1    2    0    0  0.55472750716E+01  0.27862510704E+02  0.13666681859E+03  0.13958836294E+03  0.00000000000E+00 0. -1.
         11    1    1    2    0    0  0.83151232672E+01 -0.10707197388E+02 -0.11185845556E+02  0.17575792774E+02  0.00000000000E+00 0.  1.
<mgrwt>
<rscale>  0 0.11794444E+03</rscale>
<asrwt>0</asrwt>
<pdfrwt beam="1">  1        1 0.28854579E-01 0.12692824E+03</pdfrwt>
<pdfrwt beam="2">  1       -1 0.15840061E-01 0.12692824E+03</pdfrwt>
<totfact> 0.44753212E+03</totfact>
</mgrwt>
</event>
<event>
 7    1  0.6387485E-006  0.2688996E+03  0.7546771E-02  0.1104088E+00
         -2   -1    0    0    0  501 -0.00000000000E+00  0.00000000000E+00  0.35747562550E+03  0.35747562550E+03  0.00000000000E+00 0.  1.
          2   -1    0    0  501    0  0.00000000000E+00 -0.00000000000E+00 -0.25697366163E+03  0.25697366163E+03  0.00000000000E+00 0. -1.
         23    2    1    2    0    0 -0.22121229626E+03 -0.88027380301E+02  0.20648337366E+03  0.33903151749E+03  0.12499314605E+03 0.  0.
          5    1    3    3  502    0 -0.15788357275E+03 -0.12193288122E+02  0.77148602620E+02  0.17620980593E+03  0.47000000000E+01 0. -1.
         -5    1    3    3    0  502 -0.63328723509E+02 -0.75834092179E+02  0.12933477104E+03  0.16282171156E+03  0.47000000000E+01 0. -1.
        -11    1    1    2    0    0  0.14847426717E+03  0.73226331621E+02 -0.11363221727E+03  0.20079587759E+03  0.00000000000E+00 0. -1.
         11    1    1    2    0    0  0.72738029087E+02  0.14801048679E+02  0.76508074919E+01  0.74621892048E+02  0.00000000000E+00 0.  1.
<mgrwt>
<rscale>  0 0.26514955E+03</rscale>
<asrwt>0</asrwt>
<pdfrwt beam="2">  1        2 0.39534409E-01 0.26889958E+03</pdfrwt>
<pdfrwt beam="1">  1       -2 0.54996250E-01 0.26889958E+03</pdfrwt>
<totfact> 0.41169276E+02</totfact>
</mgrwt>
</event>
<event>
 7    1  0.6387485E-006  0.1264354E+03  0.7546771E-02  0.1247041E+00
         -2   -1    0    0    0  501 -0.00000000000E+00  0.00000000000E+00  0.27210719428E+02  0.27210719428E+02  0.00000000000E+00 0.  1.
          2   -1    0    0  501    0  0.00000000000E+00 -0.00000000000E+00 -0.58576961920E+03  0.58576961920E+03  0.00000000000E+00 0. -1.
         23    2    1    2    0    0  0.53010735849E+01  0.18291366747E+02 -0.16332400377E+03  0.20654450224E+03  0.12499290268E+03 0.  0.
          5    1    3    3  502    0 -0.37615338874E+02  0.12375915821E+02 -0.25374621739E+01  0.39957549040E+02  0.47000000000E+01 0. -1.
         -5    1    3    3    0  502  0.42916412459E+02  0.59154509256E+01 -0.16078654160E+03  0.16658695320E+03  0.47000000000E+01 0. -1.
        -11    1    1    2    0    0  0.91866351651E+01  0.35507018374E+02 -0.20313951542E+03  0.20642384878E+03  0.00000000000E+00 0. -1.
         11    1    1    2    0    0 -0.14487708750E+02 -0.53798385121E+02 -0.19209538058E+03  0.20001198761E+03  0.00000000000E+00 0.  1.
<mgrwt>
<rscale>  0 0.11764074E+03</rscale>
<asrwt>0</asrwt>
<pdfrwt beam="2">  1        2 0.90118396E-01 0.12643536E+03</pdfrwt>
<pdfrwt beam="1">  1       -2 0.41862649E-02 0.12643536E+03</pdfrwt>
<totfact> 0.12592215E+04</totfact>
</mgrwt>
</event>
<event>
 7    1  0.6387485E-006  0.1921292E+03  0.7546771E-02  0.1161380E+00
         -2   -1    0    0    0  501 -0.00000000000E+00  0.00000000000E+00  0.68030935039E+02  0.68030935039E+02  0.00000000000E+00 0. -1.
          2   -1    0    0  501    0  0.00000000000E+00 -0.00000000000E+00 -0.48917665441E+03  0.48917665441E+03  0.00000000000E+00 0.  1.
         23    2    1    2    0    0  0.81206431778E+02 -0.12121724410E+03 -0.24334339644E+03  0.31004778267E+03  0.12500205647E+03 0.  0.
          5    1    3    3  502    0  0.49356150372E+02  0.68007261313E+01 -0.27670008656E+02  0.57183903631E+02  0.47000000000E+01 0.  1.
         -5    1    3    3    0  502  0.31850281406E+02 -0.12801797023E+03 -0.21567338778E+03  0.25286387904E+03  0.47000000000E+01 0.  1.
        -11    1    1    2    0    0  0.13038508694E+02  0.53567690241E+02 -0.66616070002E+02  0.86470809695E+02  0.00000000000E+00 0.  1.
         11    1    1    2    0    0 -0.94244940472E+02  0.67649553859E+02 -0.11118625294E+03  0.16068899708E+03  0.00000000000E+00 0. -1.
<mgrwt>
<rscale>  0 0.18679938E+03</rscale>
<asrwt>0</asrwt>
<pdfrwt beam="2">  1        2 0.75257948E-01 0.19212917E+03</pdfrwt>
<pdfrwt beam="1">  1       -2 0.10466297E-01 0.19212917E+03</pdfrwt>
<totfact> 0.38697921E+03</totfact>
</mgrwt>
</event>
<event>
 7    1  0.6387485E-006  0.1203792E+03  0.7546771E-02  0.1254523E+00
         -2   -1    0    0    0  501 -0.00000000000E+00  0.00000000000E+00  0.90477395498E+02  0.90477395498E+02  0.00000000000E+00 0.  1.
          2   -1    0    0  501    0  0.00000000000E+00 -0.00000000000E+00 -0.16341936573E+03  0.16341936573E+03  0.00000000000E+00 0. -1.
         23    2    1    2    0    0 -0.20277358077E+02  0.20812380529E+02  0.19155856777E+02  0.12189378715E+03  0.11681961335E+03 0.  0.
          5    1    3    3  502    0 -0.36352428545E+02 -0.11375336579E+02 -0.38118997389E+02  0.54092932120E+02  0.47000000000E+01 0. -1.
         -5    1    3    3    0  502  0.16075070467E+02  0.32187717108E+02  0.57274854166E+02  0.67800855031E+02  0.47000000000E+01 0.  1.
        -11    1    1    2    0    0  0.86282759507E+01 -0.46293128435E+02 -0.92704644434E+02  0.10397909398E+03  0.00000000000E+00 0. -1.
         11    1    1    2    0    0  0.11649082127E+02  0.25480747906E+02  0.60681742268E+00  0.28023880096E+02  0.00000000000E+00 0.  1.
<mgrwt>
<rscale>  0 0.11333071E+03</rscale>
<asrwt>0</asrwt>
<pdfrwt beam="2">  1        2 0.25141441E-01 0.12037919E+03</pdfrwt>
<pdfrwt beam="1">  1       -2 0.13919599E-01 0.12037919E+03</pdfrwt>
<totfact> 0.77694995E+03</totfact>
</mgrwt>
</event>
<event>
 7    1  0.6387485E-006  0.2672886E+03  0.7546771E-02  0.1104447E+00
         -2   -1    0    0    0  501 -0.00000000000E+00  0.00000000000E+00  0.67454612663E+02  0.67454612663E+02  0.00000000000E+00 0. -1.
          2   -1    0    0  501    0  0.00000000000E+00 -0.00000000000E+00 -0.10826148580E+04  0.10826148580E+04  0.00000000000E+00 0.  1.
         23    2    1    2    0    0 -0.13890495112E+03 -0.19111035782E+03 -0.37550073893E+03  0.46091648495E+03  0.12500178738E+03 0.  0.
          5    1    3    3  502    0 -0.33472492145E+02 -0.14618259369E+03 -0.24379558626E+03  0.28626584900E+03  0.47000000000E+01 0.  1.
         -5    1    3    3    0  502 -0.10543245897E+03 -0.44927764130E+02 -0.13170515268E+03  0.17465063595E+03  0.47000000000E+01 0.  1.
        -11    1    1    2    0    0  0.93906427118E+02  0.15238837495E+03 -0.57094028510E+03  0.59834224573E+03  0.00000000000E+00 0.  1.
         11    1    1    2    0    0  0.44998524001E+02  0.38721982876E+02 -0.68719221314E+02  0.90810739993E+02  0.00000000000E+00 0. -1.
<mgrwt>
<rscale>  0 0.26453723E+03</rscale>
<asrwt>0</asrwt>
<pdfrwt beam="2">  1        2 0.16655613E+00 0.26728861E+03</pdfrwt>
<pdfrwt beam="1">  1       -2 0.10377633E-01 0.26728861E+03</pdfrwt>
<totfact> 0.14634983E+03</totfact>
</mgrwt>
</event>
<event>
 7    1  0.6387485E-006  0.1332294E+03  0.7546771E-02  0.1235235E+00
         -1   -1    0    0    0  501 -0.00000000000E+00  0.00000000000E+00  0.13654565284E+04  0.13654565284E+04  0.00000000000E+00 0.  1.
          1   -1    0    0  501    0  0.00000000000E+00 -0.00000000000E+00 -0.12306459081E+02  0.12306459081E+02  0.00000000000E+00 0. -1.
         23    2    1    2    0    0  0.42231283852E+02 -0.18424237790E+02  0.10312262346E+04  0.10397969072E+04  0.12500850932E+03 0.  0.
          5    1    3    3  502    0 -0.55519172026E+01 -0.26518497268E+02  0.47642138707E+02  0.55008343572E+02  0.47000000000E+01 0. -1.
         -5    1    3    3    0  502  0.47783201054E+02  0.80942594787E+01  0.98358409593E+03  0.98478856366E+03  0.47000000000E+01 0. -1.
        -11    1    1    2    0    0  0.24968577408E+02  0.40292745816E+01  0.36641355258E+02  0.44522509213E+02  0.00000000000E+00 0. -1.
         11    1    1    2    0    0 -0.67199861260E+02  0.14394963208E+02  0.28528247946E+03  0.29344357108E+03  0.00000000000E+00 0.  1.
<mgrwt>
<rscale>  0 0.12489413E+03</rscale>
<asrwt>0</asrwt>
<pdfrwt beam="2">  1        1 0.18933025E-02 0.13322936E+03</pdfrwt>
<pdfrwt beam="1">  1       -1 0.21007011E+00 0.13322936E+03</pdfrwt>
<totfact> 0.91912950E+02</totfact>
</mgrwt>
</event>
<event>
 7    1  0.6387485E-006  0.1536142E+03  0.7546771E-02  0.1204438E+00
         -2   -1    0    0    0  501 -0.00000000000E+00  0.00000000000E+00  0.93814518744E+02  0.93814518744E+02  0.00000000000E+00 0.  1.
          2   -1    0    0  501    0  0.00000000000E+00 -0.00000000000E+00 -0.22335098305E+03  0.22335098305E+03  0.00000000000E+00 0. -1.
         23    2    1    2    0    0  0.84977251012E+02 -0.27342419996E+02 -0.34091789076E+02  0.15735176437E+03  0.12501434537E+03 0.  0.
          5    1    3    3  502    0  0.19495723212E+02 -0.42517082330E+02 -0.67410556423E+02  0.82183079954E+02  0.47000000000E+01 0. -1.
         -5    1    3    3    0  502  0.65481527800E+02  0.15174662334E+02  0.33318767347E+02  0.75168684420E+02  0.47000000000E+01 0. -1.
        -11    1    1    2    0    0 -0.87390854946E+01  0.14940453756E+02 -0.78958813385E+02  0.80833674820E+02  0.00000000000E+00 0. -1.
         11    1    1    2    0    0 -0.76238165517E+02  0.12401966240E+02 -0.16485861849E+02  0.78980062604E+02  0.00000000000E+00 0.  1.
<mgrwt>
<rscale>  0 0.14681848E+03</rscale>
<asrwt>0</asrwt>
<pdfrwt beam="2">  1        2 0.34361690E-01 0.15361422E+03</pdfrwt>
<pdfrwt beam="1">  1       -2 0.14433003E-01 0.15361422E+03</pdfrwt>
<totfact> 0.53044838E+03</totfact>
</mgrwt>
</event>
<event>
 7    1  0.6387485E-006  0.1456009E+03  0.7546771E-02  0.1215811E+00
          1   -1    0    0  501    0  0.00000000000E+00  0.00000000000E+00  0.27949826781E+03  0.27949826781E+03  0.00000000000E+00 0. -1.
         -1   -1    0    0    0  501 -0.00000000000E+00 -0.00000000000E+00 -0.62197111410E+02  0.62197111410E+02  0.00000000000E+00 0.  1.
         23    2    1    2    0    0 -0.58141291415E+02  0.46837100205E+02  0.11815564919E+03  0.18751101675E+03  0.12500200097E+03 0.  0.
          5    1    3    3  502    0  0.14993336128E+02  0.34495339800E+02  0.10552683915E+03  0.11212819617E+03  0.47000000000E+01 0. -1.
         -5    1    3    3    0  502 -0.73134627543E+02  0.12341760405E+02  0.12628810040E+02  0.75382820581E+02  0.47000000000E+01 0. -1.
        -11    1    1    2    0    0 -0.22724371257E+02 -0.19127263030E+02  0.11772981585E+02  0.31950779888E+02  0.00000000000E+00 0.  1.
         11    1    1    2    0    0  0.80865662672E+02 -0.27709837175E+02  0.87372525622E+02  0.12223358257E+03  0.00000000000E+00 0. -1.
<mgrwt>
<rscale>  0 0.13817120E+03</rscale>
<asrwt>0</asrwt>
<pdfrwt beam="1">  1        1 0.42999733E-01 0.14560091E+03</pdfrwt>
<pdfrwt beam="2">  1       -1 0.95687866E-02 0.14560091E+03</pdfrwt>
<totfact> 0.60013133E+03</totfact>
</mgrwt>
</event>
<event>
 7    1  0.6387485E-006  0.1356813E+03  0.7546771E-02  0.1231547E+00
         -1   -1    0    0    0  501 -0.00000000000E+00  0.00000000000E+00  0.16887664338E+02  0.16887664338E+02  0.00000000000E+00 0.  1.
          1   -1    0    0  501    0  0.00000000000E+00 -0.00000000000E+00 -0.86885592777E+03  0.86885592777E+03  0.00000000000E+00 0. -1.
         23    2    1    2    0    0 -0.21971104656E+02 -0.47906404652E+02 -0.43050528574E+03  0.45138033590E+03  0.12502661134E+03 0.  0.
          5    1    3    3  502    0 -0.66912495735E+02 -0.17694970523E+01 -0.16473674214E+03  0.17787832194E+03  0.47000000000E+01 0.  1.
         -5    1    3    3    0  502  0.44941391079E+02 -0.46136907600E+02 -0.26576854360E+03  0.27350201397E+03  0.47000000000E+01 0.  1.
        -11    1    1    2    0    0  0.51601684496E+02  0.35845561595E+01 -0.20209583685E+03  0.20861042678E+03  0.00000000000E+00 0.  1.
         11    1    1    2    0    0 -0.29630579840E+02  0.44321848492E+02 -0.21936714084E+03  0.22575282943E+03  0.00000000000E+00 0. -1.
<mgrwt>
<rscale>  0 0.12728083E+03</rscale>
<asrwt>0</asrwt>
<pdfrwt beam="2">  1        1 0.13367015E+00 0.13568127E+03</pdfrwt>
<pdfrwt beam="1">  1       -1 0.25981021E-02 0.13568127E+03</pdfrwt>
<totfact> 0.90907290E+03</totfact>
</mgrwt>
</event>
<event>
 7    1  0.6387485E-006  0.1380578E+03  0.7546771E-02  0.1228453E+00
         -2   -1    0    0    0  501 -0.00000000000E+00  0.00000000000E+00  0.52275276169E+02  0.52275276169E+02  0.00000000000E+00 0.  1.
          2   -1    0    0  501    0  0.00000000000E+00 -0.00000000000E+00 -0.29054168349E+03  0.29054168349E+03  0.00000000000E+00 0. -1.
         23    2    1    2    0    0  0.46207294732E+02 -0.36047057213E+02 -0.15649786924E+03  0.20869006557E+03  0.12500182388E+03 0.  0.
          5    1    3    3  502    0 -0.82823270110E+01  0.18552955952E+02  0.11467287517E+02  0.23799113392E+02  0.47000000000E+01 0. -1.
         -5    1    3    3    0  502  0.54489621743E+02 -0.54600013165E+02 -0.16796515675E+03  0.18489095218E+03  0.47000000000E+01 0. -1.
        -11    1    1    2    0    0 -0.38988650400E+02  0.47519450438E+02 -0.11463300507E+02  0.62526956495E+02  0.00000000000E+00 0.  1.
         11    1    1    2    0    0 -0.72186443319E+01 -0.11472393226E+02 -0.70305237574E+02  0.71599937589E+02  0.00000000000E+00 0. -1.
<mgrwt>
<rscale>  0 0.12933005E+03</rscale>
<asrwt>0</asrwt>
<pdfrwt beam="2">  1        2 0.44698721E-01 0.13805782E+03</pdfrwt>
<pdfrwt beam="1">  1       -2 0.80423501E-02 0.13805782E+03</pdfrwt>
<totfact> 0.10054058E+04</totfact>
</mgrwt>
</event>
<event>
 7    1  0.8088568E-006  0.3085645E+03  0.7546771E-02  0.1082541E+00
          2   -1    0    0  501    0  0.00000000000E+00  0.00000000000E+00  0.10139517278E+04  0.10139517278E+04  0.00000000000E+00 0. -1.
         -2   -1    0    0    0  501 -0.00000000000E+00 -0.00000000000E+00 -0.92610382540E+02  0.92610382540E+02  0.00000000000E+00 0.  1.
         23    2    1    2    0    0  0.27505320973E+03  0.62708630048E+02  0.38085711429E+03  0.49016748431E+03  0.12500152280E+03 0.  0.
          5    1    3    3  502    0  0.12065810074E+03  0.72062438534E+02  0.11124672692E+03  0.17930224921E+03  0.47000000000E+01 0. -1.
         -5    1    3    3    0  502  0.15439510899E+03 -0.93538084868E+01  0.26961038737E+03  0.31086523510E+03  0.47000000000E+01 0. -1.
        -11    1    1    2    0    0 -0.96334672077E+02 -0.36300275516E+02  0.28867637682E+03  0.30648348990E+03  0.00000000000E+00 0.  1.
         11    1    1    2    0    0 -0.17871853765E+03 -0.26408354531E+02  0.25180785417E+03  0.30991113616E+03  0.00000000000E+00 0. -1.
<mgrwt>
<rscale>  0 0.30546261E+03</rscale>
<asrwt>0</asrwt>
<pdfrwt beam="1">  1        2 0.15599257E+00 0.30856445E+03</pdfrwt>
<pdfrwt beam="2">  1       -2 0.14247752E-01 0.30856445E+03</pdfrwt>
<totfact> 0.96036204E+02</totfact>
</mgrwt>
</event>
<event>
 7    1  0.6387485E-006  0.1290176E+03  0.7546771E-02  0.1240264E+00
         -1   -1    0    0    0  501 -0.00000000000E+00  0.00000000000E+00  0.91142407232E+02  0.91142407232E+02  0.00000000000E+00 0.  1.
          1   -1    0    0  501    0  0.00000000000E+00 -0.00000000000E+00 -0.20094854142E+03  0.20094854142E+03  0.00000000000E+00 0. -1.
         23    2    1    2    0    0 -0.13883522097E+02 -0.28583070226E+02  0.15957348038E+02  0.13000070049E+03  0.12504319687E+03 0.  0.
          5    1    3    3  502    0  0.32008350109E+02 -0.32767930311E+01  0.55402325066E+02  0.64240014570E+02  0.47000000000E+01 0. -1.
         -5    1    3    3    0  502 -0.45891872206E+02 -0.25306277195E+02 -0.39444977028E+02  0.65760685921E+02  0.47000000000E+01 0. -1.
        -11    1    1    2    0    0 -0.24836093873E+02 -0.16208315310E+02 -0.87015093363E+01  0.30907237158E+02  0.00000000000E+00 0.  1.
         11    1    1    2    0    0  0.38719615969E+02  0.44791385537E+02 -0.11706197289E+03  0.13118301100E+03  0.00000000000E+00 0. -1.
<mgrwt>
<rscale>  0 0.12173391E+03</rscale>
<asrwt>0</asrwt>
<pdfrwt beam="2">  1        1 0.30915160E-01 0.12901762E+03</pdfrwt>
<pdfrwt beam="1">  1       -1 0.14021909E-01 0.12901762E+03</pdfrwt>
<totfact> 0.49759058E+03</totfact>
</mgrwt>
</event>
<event>
 7    1  0.6387485E-006  0.2564232E+03  0.7546771E-02  0.1111771E+00
         -2   -1    0    0    0  501 -0.00000000000E+00  0.00000000000E+00  0.17229903399E+03  0.17229903399E+03  0.00000000000E+00 0.  1.
          2   -1    0    0  501    0  0.00000000000E+00 -0.00000000000E+00 -0.38618669667E+03  0.38618669667E+03  0.00000000000E+00 0. -1.
         23    2    1    2    0    0  0.20377902375E+03 -0.92742784724E+02 -0.35750178269E+02  0.25890333916E+03  0.12500299654E+03 0.  0.
          5    1    3    3  502    0 -0.16883860961E+01 -0.29852598641E+02  0.20720337430E+02  0.36680385446E+02  0.47000000000E+01 0. -1.
         -5    1    3    3    0  502  0.20546740984E+03 -0.62890186082E+02 -0.56470515699E+02  0.22222295371E+03  0.47000000000E+01 0. -1.
        -11    1    1    2    0    0 -0.69568927144E+02  0.74662930864E+02 -0.10171471618E+03  0.14408425437E+03  0.00000000000E+00 0. -1.
         11    1    1    2    0    0 -0.13421009660E+03  0.18079853859E+02 -0.76422768235E+02  0.15549813713E+03  0.00000000000E+00 0.  1.
<mgrwt>
<rscale>  0 0.25244227E+03</rscale>
<asrwt>0</asrwt>
<pdfrwt beam="2">  1        2 0.59413338E-01 0.25642321E+03</pdfrwt>
<pdfrwt beam="1">  1       -2 0.26507544E-01 0.25642321E+03</pdfrwt>
<totfact> 0.10628494E+03</totfact>
</mgrwt>
</event>
<event>
 7    1  0.6387485E-006  0.1597268E+03  0.7546771E-02  0.1195903E+00
          1   -1    0    0  501    0  0.00000000000E+00  0.00000000000E+00  0.49334120519E+03  0.49334120519E+03  0.00000000000E+00 0. -1.
         -1   -1    0    0    0  501 -0.00000000000E+00 -0.00000000000E+00 -0.44887658131E+02  0.44887658131E+02  0.00000000000E+00 0.  1.
         23    2    1    2    0    0 -0.79166850355E+02 -0.60160719564E+02  0.22326379833E+03  0.27451660612E+03  0.12500376403E+03 0.  0.
          5    1    3    3  502    0 -0.91534344710E+02 -0.87573289572E+02  0.19727169233E+03  0.23449057103E+03  0.47000000000E+01 0.  1.
         -5    1    3    3    0  502  0.12367494355E+02  0.27412570008E+02  0.25992105994E+02  0.40026035090E+02  0.47000000000E+01 0.  1.
        -11    1    1    2    0    0  0.88380411007E+02  0.14336636367E+02  0.16224655544E+03  0.18531211764E+03  0.00000000000E+00 0. -1.
         11    1    1    2    0    0 -0.92135606527E+01  0.45824083197E+02  0.62943193289E+02  0.78400139555E+02  0.00000000000E+00 0.  1.
<mgrwt>
<rscale>  0 0.15378017E+03</rscale>
<asrwt>0</asrwt>
<pdfrwt beam="1">  1        1 0.75898643E-01 0.15972678E+03</pdfrwt>
<pdfrwt beam="2">  1       -1 0.69057939E-02 0.15972678E+03</pdfrwt>
<totfact> 0.48241431E+03</totfact>
</mgrwt>
</event>
<event>
 7    1  0.6387485E-006  0.1400975E+03  0.7546771E-02  0.1230104E+00
          1   -1    0    0  501    0  0.00000000000E+00  0.00000000000E+00  0.44303744585E+02  0.44303744585E+02  0.00000000000E+00 0. -1.
         -1   -1    0    0    0  501 -0.00000000000E+00 -0.00000000000E+00 -0.35012203975E+03  0.35012203975E+03  0.00000000000E+00 0.  1.
         23    2    1    2    0    0  0.62138118477E+02 -0.11870281537E+02 -0.23373192770E+03  0.27250305213E+03  0.12500100016E+03 0.  0.
          5    1    3    3  502    0  0.56218340041E+02  0.13190791217E+02 -0.23889730926E+03  0.24582211678E+03  0.47000000000E+01 0. -1.
         -5    1    3    3    0  502  0.59197784359E+01 -0.25061072754E+02  0.51653815542E+01  0.26680935345E+02  0.47000000000E+01 0. -1.
        -11    1    1    2    0    0 -0.32386283048E+02  0.98117300582E+01 -0.83417172618E+02  0.90019809286E+02  0.00000000000E+00 0.  1.
         11    1    1    2    0    0 -0.29751835428E+02  0.20585514787E+01  0.11330805153E+02  0.31902922922E+02  0.00000000000E+00 0. -1.
<mgrwt>
<rscale>  0 0.12823122E+03</rscale>
<asrwt>0</asrwt>
<pdfrwt beam="1">  1        1 0.68159608E-02 0.14009746E+03</pdfrwt>
<pdfrwt beam="2">  1       -1 0.53864928E-01 0.14009746E+03</pdfrwt>
<totfact> 0.37221659E+03</totfact>
</mgrwt>
</event>
<event>
 7    1  0.6387485E-006  0.1313413E+03  0.7546771E-02  0.1238300E+00
         -2   -1    0    0    0  501 -0.00000000000E+00  0.00000000000E+00  0.37433277117E+02  0.37433277117E+02  0.00000000000E+00 0. -1.
          2   -1    0    0  501    0  0.00000000000E+00 -0.00000000000E+00 -0.36938407662E+03  0.36938407662E+03  0.00000000000E+00 0.  1.
         23    2    1    2    0    0  0.39867658407E+02  0.60418089634E+01 -0.15529575323E+03  0.20338953778E+03  0.12499839784E+03 0.  0.
          5    1    3    3  502    0  0.60659949547E+02 -0.17457898218E+02 -0.15929574172E+03  0.17141070859E+03  0.47000000000E+01 0. -1.
         -5    1    3    3    0  502 -0.20792291140E+02  0.23499707181E+02  0.39999884876E+01  0.31978829190E+02  0.47000000000E+01 0. -1.
        -11    1    1    2    0    0 -0.16450670516E+02 -0.44809949425E+02 -0.50973397594E+02  0.69834399763E+02  0.00000000000E+00 0. -1.
         11    1    1    2    0    0 -0.23416987890E+02  0.38768140462E+02 -0.12568164868E+03  0.13359341620E+03  0.00000000000E+00 0.  1.
<mgrwt>
<rscale>  0 0.12295534E+03</rscale>
<asrwt>0</asrwt>
<pdfrwt beam="2">  1        2 0.56828321E-01 0.13134128E+03</pdfrwt>
<pdfrwt beam="1">  1       -2 0.57589655E-02 0.13134128E+03</pdfrwt>
<totfact> 0.12932441E+04</totfact>
</mgrwt>
</event>
<event>
 7    1  0.6387485E-006  0.2140483E+03  0.7546771E-02  0.1141955E+00
          2   -1    0    0  501    0  0.00000000000E+00  0.00000000000E+00  0.71644176825E+03  0.71644176825E+03  0.00000000000E+00 0.  1.
         -2   -1    0    0    0  501 -0.00000000000E+00 -0.00000000000E+00 -0.58910702825E+02  0.58910702825E+02  0.00000000000E+00 0. -1.
         23    2    1    2    0    0 -0.51909831033E+02  0.16582336310E+03  0.35928881870E+03  0.41821661270E+03  0.12499864634E+03 0.  0.
          5    1    3    3  502    0 -0.40698297901E+02  0.29322505128E+00  0.34848174642E+02  0.53785896932E+02  0.47000000000E+01 0. -1.
         -5    1    3    3    0  502 -0.11211533132E+02  0.16553013805E+03  0.32444064406E+03  0.36443071577E+03  0.47000000000E+01 0. -1.
        -11    1    1    2    0    0  0.59655611709E+02 -0.45140166162E+02  0.12910797892E+03  0.14921560518E+03  0.00000000000E+00 0.  1.
         11    1    1    2    0    0 -0.77457806758E+01 -0.12068319694E+03  0.16913426781E+03  0.20792025319E+03  0.00000000000E+00 0. -1.
<mgrwt>
<rscale>  0 0.20950957E+03</rscale>
<asrwt>0</asrwt>
<pdfrwt beam="1">  1        2 0.11022180E+00 0.21404831E+03</pdfrwt>
<pdfrwt beam="2">  1       -2 0.90631855E-02 0.21404831E+03</pdfrwt>
<totfact> 0.31377232E+03</totfact>
</mgrwt>
</event>
<event>
 7    1  0.6387485E-006  0.1339016E+03  0.7546771E-02  0.1233408E+00
         -3   -1    0    0    0  501 -0.00000000000E+00  0.00000000000E+00  0.10007884167E+03  0.10007884167E+03  0.00000000000E+00 0.  1.
          3   -1    0    0  501    0  0.00000000000E+00 -0.00000000000E+00 -0.14290877223E+03  0.14290877223E+03  0.00000000000E+00 0. -1.
         23    2    1    2    0    0  0.44465868491E+02 -0.18070572805E+02 -0.21125653621E+02  0.13555787940E+03  0.12500354541E+03 0.  0.
          5    1    3    3  502    0  0.57692626441E+02 -0.21864126947E+02 -0.64757948625E+02  0.89566517755E+02  0.47000000000E+01 0. -1.
         -5    1    3    3    0  502 -0.13226757950E+02  0.37935541423E+01  0.43632295003E+02  0.45991361647E+02  0.47000000000E+01 0. -1.
        -11    1    1    2    0    0 -0.13376210747E+02 -0.25636655091E+02  0.23518337689E+02  0.37272956763E+02  0.00000000000E+00 0.  1.
         11    1    1    2    0    0 -0.31089657744E+02  0.43707227896E+02 -0.45222614625E+02  0.70156777737E+02  0.00000000000E+00 0. -1.
<mgrwt>
<rscale>  0 0.12606897E+03</rscale>
<asrwt>0</asrwt>
<pdfrwt beam="2">  1        3 0.21985965E-01 0.13390163E+03</pdfrwt>
<pdfrwt beam="1">  1       -3 0.15396745E-01 0.13390163E+03</pdfrwt>
<totfact> 0.15415893E+03</totfact>
</mgrwt>
</event>
<event>
 7    1  0.6387485E-006  0.1773119E+03  0.7546771E-02  0.1176214E+00
         -1   -1    0    0    0  501 -0.00000000000E+00  0.00000000000E+00  0.47772541270E+02  0.47772541270E+02  0.00000000000E+00 0.  1.
          1   -1    0    0  501    0  0.00000000000E+00 -0.00000000000E+00 -0.59419567427E+03  0.59419567427E+03  0.00000000000E+00 0. -1.
         23    2    1    2    0    0  0.57389902793E+02 -0.11189410712E+03 -0.24033846955E+03  0.29866717819E+03  0.12500244489E+03 0.  0.
          5    1    3    3  502    0 -0.81555300126E+01 -0.84215643172E+01 -0.13914641306E+03  0.13971846579E+03  0.47000000000E+01 0. -1.
         -5    1    3    3    0  502  0.65545432806E+02 -0.10347254280E+03 -0.10119205650E+03  0.15894871240E+03  0.47000000000E+01 0. -1.
        -11    1    1    2    0    0 -0.31664046590E+02  0.65453195186E+02 -0.68630972590E+02  0.99984713857E+02  0.00000000000E+00 0.  1.
         11    1    1    2    0    0 -0.25725856204E+02  0.46440911932E+02 -0.23745369085E+03  0.24331632349E+03  0.00000000000E+00 0. -1.
<mgrwt>
<rscale>  0 0.17157657E+03</rscale>
<asrwt>0</asrwt>
<pdfrwt beam="2">  1        1 0.91414727E-01 0.17731188E+03</pdfrwt>
<pdfrwt beam="1">  1       -1 0.73496211E-02 0.17731188E+03</pdfrwt>
<totfact> 0.34388063E+03</totfact>
</mgrwt>
</event>
<event>
 7    1  0.6387485E-006  0.1675503E+03  0.7546771E-02  0.1187659E+00
          1   -1    0    0  501    0  0.00000000000E+00  0.00000000000E+00  0.87067711094E+03  0.87067711094E+03  0.00000000000E+00 0. -1.
         -1   -1    0    0    0  501 -0.00000000000E+00 -0.00000000000E+00 -0.28614373991E+02  0.28614373991E+02  0.00000000000E+00 0.  1.
         23    2    1    2    0    0  0.40224146203E+02  0.10407959095E+03  0.36999177148E+03  0.40616129740E+03  0.12499018101E+03 0.  0.
          5    1    3    3  502    0 -0.32802334363E+01  0.11975317373E+03  0.24385088989E+03  0.27172951450E+03  0.47000000000E+01 0. -1.
         -5    1    3    3    0  502  0.43504379639E+02 -0.15673582772E+02  0.12614088159E+03  0.13443178290E+03  0.47000000000E+01 0. -1.
        -11    1    1    2    0    0 -0.25845790518E+02 -0.32090561062E+02  0.50319533904E+02  0.65037408383E+02  0.00000000000E+00 0.  1.
         11    1    1    2    0    0 -0.14378355685E+02 -0.71989029893E+02  0.42175143156E+03  0.42809277915E+03  0.00000000000E+00 0. -1.
<mgrwt>
<rscale>  0 0.16092234E+03</rscale>
<asrwt>0</asrwt>
<pdfrwt beam="1">  1        1 0.13395030E+00 0.16755026E+03</pdfrwt>
<pdfrwt beam="2">  1       -1 0.44022120E-02 0.16755026E+03</pdfrwt>
<totfact> 0.42251635E+03</totfact>
</mgrwt>
</event>
<event>
 7    1  0.6387485E-006  0.1502207E+03  0.7546771E-02  0.1210508E+00
         -2   -1    0    0    0  501 -0.00000000000E+00  0.00000000000E+00  0.15191186877E+02  0.15191186877E+02  0.00000000000E+00 0.  1.
          2   -1    0    0  501    0  0.00000000000E+00 -0.00000000000E+00 -0.12051786324E+04  0.12051786324E+04  0.00000000000E+00 0. -1.
         23    2    1    2    0    0  0.57119952748E+02  0.60647024111E+02 -0.67317498739E+03  0.68973243345E+03  0.12500206225E+03 0.  0.
          5    1    3    3  502    0  0.44218376706E+02 -0.50598134848E+01 -0.52682265262E+03  0.52872021322E+03  0.47000000000E+01 0.  1.
         -5    1    3    3    0  502  0.12901576042E+02  0.65706837596E+02 -0.14635233477E+03  0.16101222024E+03  0.47000000000E+01 0.  1.
        -11    1    1    2    0    0 -0.21958467970E+01 -0.65034814808E+02 -0.29366341062E+03  0.30078654826E+03  0.00000000000E+00 0.  1.
         11    1    1    2    0    0 -0.54924105951E+02  0.43877906966E+01 -0.22314904747E+03  0.22985083752E+03  0.00000000000E+00 0. -1.
<mgrwt>
<rscale>  0 0.14211729E+03</rscale>
<asrwt>0</asrwt>
<pdfrwt beam="2">  1        2 0.18541217E+00 0.15022072E+03</pdfrwt>
<pdfrwt beam="1">  1       -2 0.23371048E-02 0.15022072E+03</pdfrwt>
<totfact> 0.11841925E+04</totfact>
</mgrwt>
</event>
<event>
 7    1  0.6387485E-006  0.1253446E+03  0.7546771E-02  0.1249845E+00
         -2   -1    0    0    0  501 -0.00000000000E+00  0.00000000000E+00  0.37553031387E+02  0.37553031387E+02  0.00000000000E+00 0.  1.
          2   -1    0    0  501    0  0.00000000000E+00 -0.00000000000E+00 -0.38255332560E+03  0.38255332560E+03  0.00000000000E+00 0. -1.
         23    2    1    2    0    0 -0.59073492329E+01 -0.71905614891E+01 -0.10643734914E+03  0.16443897024E+03  0.12499865876E+03 0.  0.
          5    1    3    3  502    0  0.54910333221E+02 -0.25549935429E+02 -0.61787996835E+02  0.86647506876E+02  0.47000000000E+01 0.  1.
         -5    1    3    3    0  502 -0.60817682454E+02  0.18359373940E+02 -0.44649352309E+02  0.77791463363E+02  0.47000000000E+01 0.  1.
        -11    1    1    2    0    0 -0.27740868751E+02  0.20224605842E+02 -0.35355053351E+02  0.49280526357E+02  0.00000000000E+00 0.  1.
         11    1    1    2    0    0  0.33648217984E+02 -0.13034044353E+02 -0.20320789171E+03  0.20638686039E+03  0.00000000000E+00 0. -1.
<mgrwt>
<rscale>  0 0.11600026E+03</rscale>
<asrwt>0</asrwt>
<pdfrwt beam="2">  1        2 0.58854355E-01 0.12534459E+03</pdfrwt>
<pdfrwt beam="1">  1       -2 0.57773897E-02 0.12534459E+03</pdfrwt>
<totfact> 0.12353174E+04</totfact>
</mgrwt>
</event>
<event>
 7    1  0.6387485E-006  0.1304470E+03  0.7546771E-02  0.1240754E+00
         -1   -1    0    0    0  501 -0.00000000000E+00  0.00000000000E+00  0.16906768780E+03  0.16906768780E+03  0.00000000000E+00 0.  1.
          1   -1    0    0  501    0  0.00000000000E+00 -0.00000000000E+00 -0.77224719456E+02  0.77224719456E+02  0.00000000000E+00 0. -1.
         23    2    1    2    0    0 -0.33466114797E+02  0.16443392042E+02  0.56499227331E+02  0.14215690702E+03  0.12500423010E+03 0.  0.
          5    1    3    3  502    0  0.24413958538E+02  0.72658014838E+01 -0.28688375451E+02  0.38651599304E+02  0.47000000000E+01 0. -1.
         -5    1    3    3    0  502 -0.57880073336E+02  0.91775905583E+01  0.85187602781E+02  0.10350530772E+03  0.47000000000E+01 0. -1.
        -11    1    1    2    0    0  0.59397857683E+02 -0.22941310643E+02  0.42383927064E+02  0.76490564808E+02  0.00000000000E+00 0. -1.
         11    1    1    2    0    0 -0.25931742885E+02  0.64979186013E+01 -0.70401860502E+01  0.27644935428E+02  0.00000000000E+00 0.  1.
<mgrwt>
<rscale>  0 0.12143150E+03</rscale>
<asrwt>0</asrwt>
<pdfrwt beam="2">  1        1 0.11880726E-01 0.13044701E+03</pdfrwt>
<pdfrwt beam="1">  1       -1 0.26010413E-01 0.13044701E+03</pdfrwt>
<totfact> 0.62696056E+03</totfact>
</mgrwt>
</event>
<event>
 7    1  0.6387485E-006  0.1430723E+03  0.7546771E-02  0.1219295E+00
          1   -1    0    0  501    0  0.00000000000E+00  0.00000000000E+00  0.30630699277E+02  0.30630699277E+02  0.00000000000E+00 0. -1.
         -1   -1    0    0    0  501 -0.00000000000E+00 -0.00000000000E+00 -0.76976190769E+03  0.76976190769E+03  0.00000000000E+00 0.  1.
         23    2    1    2    0    0  0.68095292694E+02  0.14323584877E+02 -0.61214633748E+03  0.62864364172E+03  0.12501022282E+03 0.  0.
          5    1    3    3  502    0  0.56678197467E+02  0.66869409010E+02 -0.41899225360E+03  0.42808940013E+03  0.47000000000E+01 0.  1.
         -5    1    3    3    0  502  0.11417095227E+02 -0.52545824134E+02 -0.19315408388E+03  0.20055424158E+03  0.47000000000E+01 0.  1.
        -11    1    1    2    0    0 -0.45698932560E+02 -0.72806908641E+01 -0.13819163536E+03  0.14573376061E+03  0.00000000000E+00 0.  1.
         11    1    1    2    0    0 -0.22396360133E+02 -0.70428940126E+01  0.11206764435E+02  0.26015204639E+02  0.00000000000E+00 0. -1.
<mgrwt>
<rscale>  0 0.13565740E+03</rscale>
<asrwt>0</asrwt>
<pdfrwt beam="1">  1        1 0.47124148E-02 0.14307232E+03</pdfrwt>
<pdfrwt beam="2">  1       -1 0.11842492E+00 0.14307232E+03</pdfrwt>
<totfact> 0.12110113E+03</totfact>
</mgrwt>
</event>
<event>
 7    1  0.6387485E-006  0.1338963E+03  0.7546771E-02  0.1234600E+00
         -2   -1    0    0    0  501 -0.00000000000E+00  0.00000000000E+00  0.38171957363E+03  0.38171957363E+03  0.00000000000E+00 0.  1.
          2   -1    0    0  501    0  0.00000000000E+00 -0.00000000000E+00 -0.37570808532E+02  0.37570808532E+02  0.00000000000E+00 0. -1.
         23    2    1    2    0    0  0.43249112362E+02 -0.20832669204E+02  0.22664374551E+03  0.26324059238E+03  0.12499494499E+03 0.  0.
          5    1    3    3  502    0  0.87351004939E+02 -0.18262629915E+02  0.14637005283E+03  0.17149345201E+03  0.47000000000E+01 0. -1.
         -5    1    3    3    0  502 -0.44101892577E+02 -0.25700392895E+01  0.80273692675E+02  0.91747140373E+02  0.47000000000E+01 0. -1.
        -11    1    1    2    0    0 -0.44622006549E+01  0.52349876283E+02  0.64665659501E+02  0.83319075248E+02  0.00000000000E+00 0.  1.
         11    1    1    2    0    0 -0.38786911707E+02 -0.31517207078E+02  0.52839360085E+02  0.72730714529E+02  0.00000000000E+00 0. -1.
<mgrwt>
<rscale>  0 0.12530047E+03</rscale>
<asrwt>0</asrwt>
<pdfrwt beam="2">  1        2 0.57801247E-02 0.13389631E+03</pdfrwt>
<pdfrwt beam="1">  1       -2 0.58726086E-01 0.13389631E+03</pdfrwt>
<totfact> 0.34218026E+03</totfact>
</mgrwt>
</event>
<event>
 6    1  0.6387485E-006  0.1705797E+03  0.7546771E-02  0.1200090E+00
          2   -1    0    0  501    0  0.00000000000E+00  0.00000000000E+00  0.44525688281E+03  0.44525688281E+03  0.00000000000E+00 0. -1.
         -2   -1    0    0    0  501 -0.00000000000E+00 -0.00000000000E+00 -0.79325896593E+02  0.79325896593E+02  0.00000000000E+00 0.  1.
          5    1    1    2  502    0  0.71362410259E+02  0.69985896970E+01  0.51090140952E+02  0.88169531915E+02  0.47000000000E+01 0. -1.
         -5    1    1    2    0  502 -0.60165721478E+02 -0.56010905844E+02 -0.21170577905E+02  0.85014228123E+02  0.47000000000E+01 0. -1.
        -11    1    1    2    0    0 -0.45275610731E+02  0.28809153152E+02  0.26212017200E+03  0.26755715801E+03  0.00000000000E+00 0.  1.
         11    1    1    2    0    0  0.34078921950E+02  0.20203162995E+02  0.73891251170E+02  0.83841861356E+02  0.00000000000E+00 0. -1.
<mgrwt>
<rscale>  0 0.15031208E+03</rscale>
<asrwt>0</asrwt>
<pdfrwt beam="1">  1        2 0.68501057E-01 0.17057970E+03</pdfrwt>
<pdfrwt beam="2">  1       -2 0.12203984E-01 0.17057970E+03</pdfrwt>
<totfact> 0.33410240E+03</totfact>
</mgrwt>
</event>
<event>
 7    1  0.6387485E-006  0.1311145E+03  0.7546771E-02  0.1238548E+00
         -1   -1    0    0    0  501 -0.00000000000E+00  0.00000000000E+00  0.94213201629E+02  0.94213201629E+02  0.00000000000E+00 0.  1.
          1   -1    0    0  501    0  0.00000000000E+00 -0.00000000000E+00 -0.17010815738E+03  0.17010815738E+03  0.00000000000E+00 0. -1.
         23    2    1    2    0    0  0.45516741704E+02  0.11589335339E-01  0.10448113828E+02  0.13153011619E+03  0.12296029633E+03 0.  0.
          5    1    3    3  502    0  0.61840311608E+02 -0.48221643836E+02 -0.31267165760E+01  0.78621990757E+02  0.47000000000E+01 0. -1.
         -5    1    3    3    0  502 -0.16323569904E+02  0.48233233171E+02  0.13574830404E+02  0.52908125435E+02  0.47000000000E+01 0.  1.
        -11    1    1    2    0    0  0.27319096266E+02  0.90909122397E+00 -0.16807387941E+02  0.32088124860E+02  0.00000000000E+00 0. -1.
         11    1    1    2    0    0 -0.72835837970E+02 -0.92068055931E+00 -0.69535681643E+02  0.10070311796E+03  0.00000000000E+00 0.  1.
<mgrwt>
<rscale>  0 0.12279986E+03</rscale>
<asrwt>0</asrwt>
<pdfrwt beam="2">  1        1 0.26170486E-01 0.13111449E+03</pdfrwt>
<pdfrwt beam="1">  1       -1 0.14494339E-01 0.13111449E+03</pdfrwt>
<totfact> 0.58208619E+03</totfact>
</mgrwt>
</event>
<event>
 7    1  0.6387485E-006  0.1379967E+03  0.7546771E-02  0.1227405E+00
          1   -1    0    0  501    0  0.00000000000E+00  0.00000000000E+00  0.16918155532E+03  0.16918155532E+03  0.00000000000E+00 0. -1.
         -1   -1    0    0    0  501 -0.00000000000E+00 -0.00000000000E+00 -0.11184531539E+03  0.11184531539E+03  0.00000000000E+00 0.  1.
         23    2    1    2    0    0 -0.20107765860E+02 -0.54901713423E+02 -0.30345279289E+02  0.14129375126E+03  0.12499827112E+03 0.  0.
          5    1    3    3  502    0 -0.48596949408E+02  0.17806027688E+02  0.10533260593E+02  0.53026009585E+02  0.47000000000E+01 0. -1.
         -5    1    3    3    0  502  0.28489183548E+02 -0.72707741111E+02 -0.40878539882E+02  0.88267741671E+02  0.47000000000E+01 0. -1.
        -11    1    1    2    0    0  0.26470315629E+02  0.77206802105E+02  0.50712591109E+02  0.96090242990E+02  0.00000000000E+00 0. -1.
         11    1    1    2    0    0 -0.63625497688E+01 -0.22305088682E+02  0.36968928114E+02  0.43642876470E+02  0.00000000000E+00 0.  1.
<mgrwt>
<rscale>  0 0.13003435E+03</rscale>
<asrwt>0</asrwt>
<pdfrwt beam="1">  1        1 0.26027932E-01 0.13799670E+03</pdfrwt>
<pdfrwt beam="2">  1       -1 0.17206972E-01 0.13799670E+03</pdfrwt>
<totfact> 0.44887187E+03</totfact>
</mgrwt>
</event>
<event>
 7    1  0.6387485E-006  0.1376247E+03  0.7546771E-02  0.1227944E+00
          2   -1    0    0  501    0  0.00000000000E+00  0.00000000000E+00  0.16429894672E+03  0.16429894672E+03  0.00000000000E+00 0. -1.
         -2   -1    0    0    0  501 -0.00000000000E+00 -0.00000000000E+00 -0.19834541372E+03  0.19834541372E+03  0.00000000000E+00 0.  1.
         23    2    1    2    0    0 -0.39681930898E+01  0.57443141064E+02 -0.15020319648E+03  0.20371933619E+03  0.12500042677E+03 0.  0.
          5    1    3    3  502    0 -0.42122775091E+02  0.33867454950E+02 -0.83771267700E+01  0.54896256148E+02  0.47000000000E+01 0. -1.
         -5    1    3    3    0  502  0.38154582001E+02  0.23575686114E+02 -0.14182606971E+03  0.14882308004E+03  0.47000000000E+01 0. -1.
        -11    1    1    2    0    0 -0.61521656405E+01 -0.15963392391E+02 -0.13897629826E+02  0.22041396360E+02  0.00000000000E+00 0.  1.
         11    1    1    2    0    0  0.10120358730E+02 -0.41479748673E+02  0.13005435931E+03  0.13688362789E+03  0.00000000000E+00 0. -1.
<mgrwt>
<rscale>  0 0.12967174E+03</rscale>
<asrwt>0</asrwt>
<pdfrwt beam="1">  1        2 0.25276761E-01 0.13762474E+03</pdfrwt>
<pdfrwt beam="2">  1       -2 0.30514679E-01 0.13762474E+03</pdfrwt>
<totfact> 0.20483812E+03</totfact>
</mgrwt>
</event>
<event>
 7    1  0.6387485E-006  0.1879434E+03  0.7546771E-02  0.1164965E+00
         -1   -1    0    0    0  501 -0.00000000000E+00  0.00000000000E+00  0.42793992774E+02  0.42793992774E+02  0.00000000000E+00 0. -1.
          1   -1    0    0  501    0  0.00000000000E+00 -0.00000000000E+00 -0.87772140612E+03  0.87772140612E+03  0.00000000000E+00 0.  1.
         23    2    1    2    0    0 -0.14033052376E+03 -0.22645540058E+01 -0.25666818073E+03  0.31812145340E+03  0.12499968003E+03 0.  0.
          5    1    3    3  502    0 -0.17378168803E+02  0.31041688412E+02 -0.14266449719E+03  0.14710824562E+03  0.47000000000E+01 0.  1.
         -5    1    3    3    0  502 -0.12295235496E+03 -0.33306242418E+02 -0.11400368355E+03  0.17101320778E+03  0.47000000000E+01 0.  1.
        -11    1    1    2    0    0  0.32761186107E+02 -0.38210288251E+02 -0.23748856798E+03  0.24276355032E+03  0.00000000000E+00 0.  1.
         11    1    1    2    0    0  0.10756933766E+03  0.40474842257E+02 -0.34077066463E+03  0.35963039517E+03  0.00000000000E+00 0. -1.
<mgrwt>
<rscale>  0 0.18296406E+03</rscale>
<asrwt>0</asrwt>
<pdfrwt beam="2">  1        1 0.13503405E+00 0.18794335E+03</pdfrwt>
<pdfrwt beam="1">  1       -1 0.65836919E-02 0.18794335E+03</pdfrwt>
<totfact> 0.22934778E+03</totfact>
</mgrwt>
</event>
<event>
 7    1  0.6387485E-006  0.1308647E+03  0.7546771E-02  0.1240360E+00
          1   -1    0    0  501    0  0.00000000000E+00  0.00000000000E+00  0.57359389434E+03  0.57359389434E+03  0.00000000000E+00 0. -1.
         -1   -1    0    0    0  501 -0.00000000000E+00 -0.00000000000E+00 -0.26957583550E+02  0.26957583550E+02  0.00000000000E+00 0.  1.
         23    2    1    2    0    0  0.19298764193E+02  0.31412973562E+02  0.18970116127E+03  0.23046064419E+03  0.12556416975E+03 0.  0.
          5    1    3    3  502    0 -0.24806132720E+02 -0.38934139163E+02  0.84011070453E+02  0.95974795502E+02  0.47000000000E+01 0. -1.
         -5    1    3    3    0  502  0.44104896913E+02  0.70347112725E+02  0.10569009082E+03  0.13448584869E+03  0.47000000000E+01 0.  1.
        -11    1    1    2    0    0  0.33252940043E+02 -0.29591052696E+02  0.14178465408E+03  0.14860779439E+03  0.00000000000E+00 0.  1.
         11    1    1    2    0    0 -0.52551704236E+02 -0.18219208664E+01  0.21515049544E+03  0.22148303931E+03  0.00000000000E+00 0. -1.
<mgrwt>
<rscale>  0 0.12167459E+03</rscale>
<asrwt>0</asrwt>
<pdfrwt beam="1">  1        1 0.88245205E-01 0.13086473E+03</pdfrwt>
<pdfrwt beam="2">  1       -1 0.41473210E-02 0.13086473E+03</pdfrwt>
<totfact> 0.83346919E+03</totfact>
</mgrwt>
</event>
<event>
 7    1  0.6387485E-006  0.1289774E+03  0.7546771E-02  0.1242953E+00
          1   -1    0    0  501    0  0.00000000000E+00  0.00000000000E+00  0.30499126610E+03  0.30499126610E+03  0.00000000000E+00 0. -1.
         -1   -1    0    0    0  501 -0.00000000000E+00 -0.00000000000E+00 -0.43193502489E+02  0.43193502489E+02  0.00000000000E+00 0.  1.
         23    2    1    2    0    0 -0.21514498310E+02  0.23956357809E+02  0.11827507729E+03  0.17499761274E+03  0.12489351400E+03 0.  0.
          5    1    3    3  502    0 -0.47660085955E+02 -0.21167304684E+02  0.11021242340E+03  0.12201805953E+03  0.47000000000E+01 0.  1.
         -5    1    3    3    0  502  0.26145587645E+02  0.45123662493E+02  0.80626538887E+01  0.52979553205E+02  0.47000000000E+01 0.  1.
        -11    1    1    2    0    0  0.44758516183E+02  0.10837030865E+02  0.38118271695E+02  0.59781005729E+02  0.00000000000E+00 0.  1.
         11    1    1    2    0    0 -0.23244017873E+02 -0.34793388674E+02  0.10540441463E+03  0.11340615012E+03  0.00000000000E+00 0. -1.
<mgrwt>
<rscale>  0 0.12008741E+03</rscale>
<asrwt>0</asrwt>
<pdfrwt beam="1">  1        1 0.46921732E-01 0.12897740E+03</pdfrwt>
<pdfrwt beam="2">  1       -1 0.66451544E-02 0.12897740E+03</pdfrwt>
<totfact> 0.92627283E+03</totfact>
</mgrwt>
</event>
<event>
 7    1  0.6387485E-006  0.1259669E+03  0.7546771E-02  0.1248716E+00
         -1   -1    0    0    0  501 -0.00000000000E+00  0.00000000000E+00  0.67044227920E+02  0.67044227920E+02  0.00000000000E+00 0.  1.
          1   -1    0    0  501    0  0.00000000000E+00 -0.00000000000E+00 -0.21776089933E+03  0.21776089933E+03  0.00000000000E+00 0. -1.
         23    2    1    2    0    0  0.26646815580E+01 -0.15331400009E+02 -0.24659140744E+02  0.12835786537E+03  0.12500206408E+03 0.  0.
          5    1    3    3  502    0  0.62804908977E+02 -0.17618114328E+02 -0.16448364575E+02  0.67435103924E+02  0.47000000000E+01 0. -1.
         -5    1    3    3    0  502 -0.60140227419E+02  0.22867143183E+01 -0.82107761688E+01  0.60922761442E+02  0.47000000000E+01 0. -1.
        -11    1    1    2    0    0 -0.38987301125E+02  0.21418272367E+02 -0.10497451492E+03  0.11401052944E+03  0.00000000000E+00 0. -1.
         11    1    1    2    0    0  0.36322619567E+02 -0.60868723580E+01 -0.21083015740E+02  0.42436732438E+02  0.00000000000E+00 0.  1.
<mgrwt>
<rscale>  0 0.11665719E+03</rscale>
<asrwt>0</asrwt>
<pdfrwt beam="2">  1        1 0.33501677E-01 0.12596693E+03</pdfrwt>
<pdfrwt beam="1">  1       -1 0.10314497E-01 0.12596693E+03</pdfrwt>
<totfact> 0.72185548E+03</totfact>
</mgrwt>
</event>
<event>
 7    1  0.6387485E-006  0.1450159E+03  0.7546771E-02  0.1216799E+00
          4   -1    0    0  501    0  0.00000000000E+00  0.00000000000E+00  0.27443454088E+03  0.27443454088E+03  0.00000000000E+00 0. -1.
         -4   -1    0    0    0  501 -0.00000000000E+00 -0.00000000000E+00 -0.77365289408E+02  0.77365289408E+02  0.00000000000E+00 0.  1.
         23    2    1    2    0    0 -0.57456654661E+02 -0.45945970486E+02  0.30449745612E+02  0.14817829586E+03  0.12496928017E+03 0.  0.
          5    1    3    3  502    0 -0.89472261145E+02 -0.60644132475E+02  0.14266009324E+02  0.10912655653E+03  0.47000000000E+01 0. -1.
         -5    1    3    3    0  502  0.32015606484E+02  0.14698161989E+02  0.16183736289E+02  0.39051739330E+02  0.47000000000E+01 0. -1.
        -11    1    1    2    0    0  0.11794670861E+02 -0.24337716856E+02  0.16476480121E+02  0.31668803572E+02  0.00000000000E+00 0.  1.
         11    1    1    2    0    0  0.45661983800E+02  0.70283687342E+02  0.15014302573E+03  0.17195273085E+03  0.00000000000E+00 0. -1.
<mgrwt>
<rscale>  0 0.13745184E+03</rscale>
<asrwt>0</asrwt>
<pdfrwt beam="1">  1        4 0.42220698E-01 0.14501593E+03</pdfrwt>
<pdfrwt beam="2">  1       -4 0.11902352E-01 0.14501593E+03</pdfrwt>
<totfact> 0.51717589E+02</totfact>
</mgrwt>
</event>
<event>
 7    1  0.6387485E-006  0.1732297E+03  0.7546771E-02  0.1178263E+00
          2   -1    0    0  501    0  0.00000000000E+00  0.00000000000E+00  0.37670995382E+03  0.37670995382E+03  0.00000000000E+00 0. -1.
         -2   -1    0    0    0  501 -0.00000000000E+00 -0.00000000000E+00 -0.86029780509E+02  0.86029780509E+02  0.00000000000E+00 0.  1.
         23    2    1    2    0    0  0.46805138074E+02  0.11041926947E+03  0.61737960284E+02  0.18390239354E+03  0.12500151435E+03 0.  0.
          5    1    3    3  502    0  0.77881451420E+02  0.10149847590E+03  0.17957268343E+02  0.12927495725E+03  0.47000000000E+01 0. -1.
         -5    1    3    3    0  502 -0.31076313346E+02  0.89207935750E+01  0.43780691941E+02  0.54627436293E+02  0.47000000000E+01 0. -1.
        -11    1    1    2    0    0 -0.29556210773E+02 -0.12986043082E+03  0.19131113897E+03  0.23310352417E+03  0.00000000000E+00 0.  1.
         11    1    1    2    0    0 -0.17248927301E+02  0.19441161349E+02  0.37631074064E+02  0.45733816622E+02  0.00000000000E+00 0. -1.
<mgrwt>
<rscale>  0 0.16960293E+03</rscale>
<asrwt>0</asrwt>
<pdfrwt beam="1">  1        2 0.57955377E-01 0.17322966E+03</pdfrwt>
<pdfrwt beam="2">  1       -2 0.13235351E-01 0.17322966E+03</pdfrwt>
<totfact> 0.35131376E+03</totfact>
</mgrwt>
</event>
<event>
 7    1  0.6387485E-006  0.1617387E+03  0.7546771E-02  0.1194160E+00
          2   -1    0    0  501    0  0.00000000000E+00  0.00000000000E+00  0.66625081782E+03  0.66625081782E+03  0.00000000000E+00 0. -1.
         -2   -1    0    0    0  501 -0.00000000000E+00 -0.00000000000E+00 -0.46295194512E+02  0.46295194512E+02  0.00000000000E+00 0.  1.
         23    2    1    2    0    0  0.10234894460E+03 -0.77342692353E+01  0.14191623886E+03  0.21517347514E+03  0.12499712065E+03 0.  0.
          5    1    3    3  502    0  0.33257893011E+02  0.52909669959E+02  0.27802803669E+02  0.68560969323E+02  0.47000000000E+01 0. -1.
         -5    1    3    3    0  502  0.69091051591E+02 -0.60643939194E+02  0.11411343520E+03  0.14661250582E+03  0.47000000000E+01 0. -1.
        -11    1    1    2    0    0 -0.43643706715E+02 -0.37818171231E+02  0.14358162511E+03  0.15476004097E+03  0.00000000000E+00 0. -1.
         11    1    1    2    0    0 -0.58705237888E+02  0.45552440467E+02  0.33445775933E+03  0.34261249622E+03  0.00000000000E+00 0.  1.
<mgrwt>
<rscale>  0 0.15525543E+03</rscale>
<asrwt>0</asrwt>
<pdfrwt beam="1">  1        2 0.10250012E+00 0.16173870E+03</pdfrwt>
<pdfrwt beam="2">  1       -2 0.71223381E-02 0.16173870E+03</pdfrwt>
<totfact> 0.49337160E+03</totfact>
</mgrwt>
</event>
<event>
 6    1  0.6387485E-006  0.1476115E+03  0.7546771E-02  0.1217407E+00
          3   -1    0    0  501    0  0.00000000000E+00  0.00000000000E+00  0.12164434611E+03  0.12164434611E+03  0.00000000000E+00 0. -1.
         -3   -1    0    0    0  501 -0.00000000000E+00 -0.00000000000E+00 -0.14611152504E+03  0.14611152504E+03  0.00000000000E+00 0.  1.
          5    1    1    2  502    0 -0.34983259902E+02  0.75915044013E+02  0.17157064558E+02  0.85459799000E+02  0.47000000000E+01 0. -1.
         -5    1    1    2    0  502  0.18378433200E+01 -0.22737364908E+02 -0.66053620806E+02  0.70039533498E+02  0.47000000000E+01 0.  1.
        -11    1    1    2    0    0  0.49091311326E+02 -0.69346270067E+02  0.10485794752E+02  0.85608492052E+02  0.00000000000E+00 0. -1.
         11    1    1    2    0    0 -0.15945894744E+02  0.16168590962E+02  0.13943582559E+02  0.26648046597E+02  0.00000000000E+00 0.  1.
<mgrwt>
<rscale>  0 0.13701223E+03</rscale>
<asrwt>0</asrwt>
<pdfrwt beam="1">  1        3 0.18714515E-01 0.14761155E+03</pdfrwt>
<pdfrwt beam="2">  1       -3 0.22478696E-01 0.14761155E+03</pdfrwt>
<totfact> 0.10733674E+03</totfact>
</mgrwt>
</event>
<event>
 7    1  0.6387485E-006  0.1479647E+03  0.7546771E-02  0.1212144E+00
          1   -1    0    0  501    0  0.00000000000E+00  0.00000000000E+00  0.74402945702E+02  0.74402945702E+02  0.00000000000E+00 0. -1.
         -1   -1    0    0    0  501 -0.00000000000E+00 -0.00000000000E+00 -0.24704212744E+03  0.24704212744E+03  0.00000000000E+00 0.  1.
         23    2    1    2    0    0  0.50251581720E+02 -0.61193352116E+02 -0.11186407835E+03  0.18549156937E+03  0.12499480979E+03 0.  0.
          5    1    3    3  502    0  0.77832644367E+02 -0.20572052706E+02 -0.10965789795E+03  0.13611786975E+03  0.47000000000E+01 0. -1.
         -5    1    3    3    0  502 -0.27581062647E+02 -0.40621299410E+02 -0.22061803970E+01  0.49373699623E+02  0.47000000000E+01 0. -1.
        -11    1    1    2    0    0 -0.36651881062E+02 -0.18109581256E+02 -0.24806542854E+02  0.47819262719E+02  0.00000000000E+00 0.  1.
         11    1    1    2    0    0 -0.13599700658E+02  0.79302933372E+02 -0.35968560543E+02  0.88134241059E+02  0.00000000000E+00 0. -1.
<mgrwt>
<rscale>  0 0.14088464E+03</rscale>
<asrwt>0</asrwt>
<pdfrwt beam="1">  1        1 0.11446607E-01 0.14796469E+03</pdfrwt>
<pdfrwt beam="2">  1       -1 0.38006480E-01 0.14796469E+03</pdfrwt>
<totfact> 0.34926066E+03</totfact>
</mgrwt>
</event>
<event>
 7    1  0.6387485E-006  0.2754119E+03  0.7546771E-02  0.1100564E+00
          1   -1    0    0  501    0  0.00000000000E+00  0.00000000000E+00  0.10123838505E+03  0.10123838505E+03  0.00000000000E+00 0. -1.
         -1   -1    0    0    0  501 -0.00000000000E+00 -0.00000000000E+00 -0.76976035323E+03  0.76976035323E+03  0.00000000000E+00 0.  1.
         23    2    1    2    0    0  0.23084646082E+03  0.83289041611E+02 -0.46920407378E+03  0.54406265792E+03  0.12499823984E+03 0.  0.
          5    1    3    3  502    0  0.10828282324E+02  0.12894502656E+02 -0.14443815391E+03  0.14549223417E+03  0.47000000000E+01 0. -1.
         -5    1    3    3    0  502  0.22001817849E+03  0.70394538955E+02 -0.32476591987E+03  0.39857042375E+03  0.47000000000E+01 0. -1.
        -11    1    1    2    0    0 -0.10820843659E+03 -0.64255724978E+02 -0.14346637530E+03  0.19084146505E+03  0.00000000000E+00 0.  1.
         11    1    1    2    0    0 -0.12263802423E+03 -0.19033316633E+02 -0.55851519102E+02  0.13609461530E+03  0.00000000000E+00 0. -1.
<mgrwt>
<rscale>  0 0.27125360E+03</rscale>
<asrwt>0</asrwt>
<pdfrwt beam="1">  1        1 0.15575136E-01 0.27541190E+03</pdfrwt>
<pdfrwt beam="2">  1       -1 0.11842467E+00 0.27541190E+03</pdfrwt>
<totfact> 0.24268689E+02</totfact>
</mgrwt>
</event>
<event>
 7    1  0.6387485E-006  0.2072313E+03  0.7546771E-02  0.1147753E+00
          1   -1    0    0  501    0  0.00000000000E+00  0.00000000000E+00  0.36740313923E+03  0.36740313923E+03  0.00000000000E+00 0. -1.
         -1   -1    0    0    0  501 -0.00000000000E+00 -0.00000000000E+00 -0.10710713351E+03  0.10710713351E+03  0.00000000000E+00 0.  1.
         23    2    1    2    0    0  0.11343575676E+03 -0.12022121075E+03  0.15349715214E+03  0.25788793572E+03  0.12499600493E+03 0.  0.
          5    1    3    3  502    0  0.64768028384E+02 -0.12646747376E+03  0.15263791360E+03  0.20858893089E+03  0.47000000000E+01 0.  1.
         -5    1    3    3    0  502  0.48667728372E+02  0.62462630064E+01  0.85923853291E+00  0.49299004830E+02  0.47000000000E+01 0.  1.
        -11    1    1    2    0    0 -0.34573285484E+02  0.89937718702E+02  0.87082747260E+02  0.12987497906E+03  0.00000000000E+00 0. -1.
         11    1    1    2    0    0 -0.78862471271E+02  0.30283492049E+02  0.19716106326E+02  0.86747357967E+02  0.00000000000E+00 0.  1.
<mgrwt>
<rscale>  0 0.20237156E+03</rscale>
<asrwt>0</asrwt>
<pdfrwt beam="1">  1        1 0.56523559E-01 0.20723130E+03</pdfrwt>
<pdfrwt beam="2">  1       -1 0.16478021E-01 0.20723130E+03</pdfrwt>
<totfact> 0.18544442E+03</totfact>
</mgrwt>
</event>
<event>
 7    1  0.6387485E-006  0.1475962E+03  0.7546771E-02  0.1213557E+00
          1   -1    0    0  501    0  0.00000000000E+00  0.00000000000E+00  0.41666664012E+03  0.41666664012E+03  0.00000000000E+00 0. -1.
         -1   -1    0    0    0  501 -0.00000000000E+00 -0.00000000000E+00 -0.54573568390E+02  0.54573568390E+02  0.00000000000E+00 0.  1.
         23    2    1    2    0    0  0.55325507177E+02 -0.55665164500E+02  0.86461224337E+02  0.17105607588E+03  0.12500046199E+03 0.  0.
          5    1    3    3  502    0  0.68378858665E+01  0.30011313467E+02 -0.10440043983E+02  0.32840830341E+02  0.47000000000E+01 0.  1.
         -5    1    3    3    0  502  0.48487621310E+02 -0.85676477967E+02  0.96901268320E+02  0.13821524554E+03  0.47000000000E+01 0.  1.
        -11    1    1    2    0    0 -0.11422097444E+02 -0.24482085273E+02  0.51940395123E+02  0.58546062676E+02  0.00000000000E+00 0.  1.
         11    1    1    2    0    0 -0.43903409733E+02  0.80147249773E+02  0.22369145227E+03  0.24163806995E+03  0.00000000000E+00 0. -1.
<mgrwt>
<rscale>  0 0.13983096E+03</rscale>
<asrwt>0</asrwt>
<pdfrwt beam="1">  1        1 0.64102558E-01 0.14759620E+03</pdfrwt>
<pdfrwt beam="2">  1       -1 0.83959339E-02 0.14759620E+03</pdfrwt>
<totfact> 0.44473040E+03</totfact>
</mgrwt>
</event>
<event>
 7    1  0.6387485E-006  0.1755755E+03  0.7546771E-02  0.1177830E+00
         -1   -1    0    0    0  501 -0.00000000000E+00  0.00000000000E+00  0.47621090045E+02  0.47621090045E+02  0.00000000000E+00 0.  1.
          1   -1    0    0  501    0  0.00000000000E+00 -0.00000000000E+00 -0.57764751698E+03  0.57764751698E+03  0.00000000000E+00 0. -1.
         23    2    1    2    0    0  0.29936669172E+02 -0.11960474107E+03 -0.24975456642E+03  0.30529345285E+03  0.12500100262E+03 0.  0.
          5    1    3    3  502    0 -0.56644657280E+01 -0.38977557501E+02  0.77177975751E+00  0.39673943649E+02  0.47000000000E+01 0. -1.
         -5    1    3    3    0  502  0.35601134900E+02 -0.80627183567E+02 -0.25052634618E+03  0.26561950920E+03  0.47000000000E+01 0. -1.
        -11    1    1    2    0    0 -0.20652799164E+02  0.32804079298E+02 -0.16493348355E+02  0.42126906744E+02  0.00000000000E+00 0.  1.
         11    1    1    2    0    0 -0.92838700084E+01  0.86800661770E+02 -0.26377851216E+03  0.27784824743E+03  0.00000000000E+00 0. -1.
<mgrwt>
<rscale>  0 0.17001705E+03</rscale>
<asrwt>0</asrwt>
<pdfrwt beam="2">  1        1 0.88868851E-01 0.17557548E+03</pdfrwt>
<pdfrwt beam="1">  1       -1 0.73263214E-02 0.17557548E+03</pdfrwt>
<totfact> 0.35899639E+03</totfact>
</mgrwt>
</event>
<event>
 7    1  0.6387485E-006  0.1285991E+03  0.7546771E-02  0.1245335E+00
          1   -1    0    0  501    0  0.00000000000E+00  0.00000000000E+00  0.61756016326E+02  0.61756016326E+02  0.00000000000E+00 0. -1.
         -1   -1    0    0    0  501 -0.00000000000E+00 -0.00000000000E+00 -0.27268242751E+03  0.27268242751E+03  0.00000000000E+00 0.  1.
         23    2    1    2    0    0  0.28303712694E+02  0.10915295650E+02 -0.20378186817E+03  0.24096634357E+03  0.12496993681E+03 0.  0.
          5    1    3    3  502    0  0.35613245802E+02  0.19500835660E+02 -0.21824214305E+03  0.22203672865E+03  0.47000000000E+01 0.  1.
         -5    1    3    3    0  502 -0.73095331078E+01 -0.85855400099E+01  0.14460274876E+02  0.18929614919E+02  0.47000000000E+01 0.  1.
        -11    1    1    2    0    0 -0.76275576415E+00 -0.42353292430E+02 -0.23674173300E+02  0.48526793191E+02  0.00000000000E+00 0.  1.
         11    1    1    2    0    0 -0.27540956930E+02  0.31437996780E+02  0.16529630291E+02  0.44945307071E+02  0.00000000000E+00 0. -1.
<mgrwt>
<rscale>  0 0.11865358E+03</rscale>
<asrwt>0</asrwt>
<pdfrwt beam="1">  1        1 0.95009256E-02 0.12859910E+03</pdfrwt>
<pdfrwt beam="2">  1       -1 0.41951143E-01 0.12859910E+03</pdfrwt>
<totfact> 0.37289112E+03</totfact>
</mgrwt>
</event>
<event>
 7    1  0.6387485E-006  0.1416012E+03  0.7546771E-02  0.1222044E+00
          1   -1    0    0  501    0  0.00000000000E+00  0.00000000000E+00  0.75953519390E+02  0.75953519390E+02  0.00000000000E+00 0. -1.
         -1   -1    0    0    0  501 -0.00000000000E+00 -0.00000000000E+00 -0.21331890672E+03  0.21331890672E+03  0.00000000000E+00 0.  1.
         23    2    1    2    0    0 -0.49744750451E+02 -0.44246504691E+02 -0.84308024008E+02  0.16479909980E+03  0.12497442542E+03 0.  0.
          5    1    3    3  502    0 -0.89842216104E+02 -0.43206810089E+02 -0.70206750373E+02  0.12202266195E+03  0.47000000000E+01 0.  1.
         -5    1    3    3    0  502  0.40097465654E+02 -0.10396946019E+01 -0.14101273635E+02  0.42776437846E+02  0.47000000000E+01 0.  1.
        -11    1    1    2    0    0  0.48313856223E+02  0.62895696220E+02 -0.64776152433E+02  0.10240140248E+03  0.00000000000E+00 0.  1.
         11    1    1    2    0    0  0.14308942278E+01 -0.18649191528E+02  0.11718789115E+02  0.22071923824E+02  0.00000000000E+00 0. -1.
<mgrwt>
<rscale>  0 0.13371613E+03</rscale>
<asrwt>0</asrwt>
<pdfrwt beam="1">  1        1 0.11685157E-01 0.14160120E+03</pdfrwt>
<pdfrwt beam="2">  1       -1 0.32818293E-01 0.14160120E+03</pdfrwt>
<totfact> 0.43648728E+03</totfact>
</mgrwt>
</event>
<event>
 7    1  0.6387485E-006  0.1130198E+03  0.7546771E-02  0.1261345E+00
          3   -1    0    0  501    0  0.00000000000E+00  0.00000000000E+00  0.49123560793E+02  0.49123560793E+02  0.00000000000E+00 0. -1.
         -3   -1    0    0    0  501 -0.00000000000E+00 -0.00000000000E+00 -0.44379750585E+03  0.44379750585E+03  0.00000000000E+00 0.  1.
         23    2    1    2    0    0  0.19961041348E+02 -0.11707948631E+02 -0.37428387227E+03  0.39097555045E+03  0.11062524477E+03 0.  0.
          5    1    3    3  502    0  0.38275836871E+02  0.20961596350E+02 -0.59505390295E+02  0.73941934543E+02  0.47000000000E+01 0. -1.
         -5    1    3    3    0  502 -0.18314795523E+02 -0.32669544981E+02 -0.31477848197E+03  0.31703361591E+03  0.47000000000E+01 0.  1.
        -11    1    1    2    0    0  0.32108706233E+02 -0.12151781562E+02 -0.27821955018E+02  0.44189319887E+02  0.00000000000E+00 0.  1.
         11    1    1    2    0    0 -0.52069747581E+02  0.23859730193E+02  0.74318822280E+01  0.57756196304E+02  0.00000000000E+00 0. -1.
<mgrwt>
<rscale>  0 0.10958257E+03</rscale>
<asrwt>0</asrwt>
<pdfrwt beam="1">  1        3 0.75574709E-02 0.11301975E+03</pdfrwt>
<pdfrwt beam="2">  1       -3 0.68276540E-01 0.11301975E+03</pdfrwt>
<totfact> 0.55371014E+02</totfact>
</mgrwt>
</event>
<event>
 6    1  0.6387485E-006  0.1962400E+03  0.7546771E-02  0.1158674E+00
         -1   -1    0    0    0  501 -0.00000000000E+00  0.00000000000E+00  0.21967643471E+03  0.21967643471E+03  0.00000000000E+00 0.  1.
          1   -1    0    0  501    0  0.00000000000E+00 -0.00000000000E+00 -0.15755018162E+03  0.15755018162E+03  0.00000000000E+00 0. -1.
          5    1    1    2  502    0 -0.22775117408E+02  0.91023342831E+02  0.82519135852E+01  0.94308742919E+02  0.47000000000E+01 0. -1.
         -5    1    1    2    0  502 -0.97011572567E+02 -0.11444819955E+02  0.53183888137E+02  0.11132315605E+03  0.47000000000E+01 0.  1.
        -11    1    1    2    0    0  0.27443400205E+02 -0.33145967785E+02 -0.41660469587E+02  0.59894825498E+02  0.00000000000E+00 0.  1.
         11    1    1    2    0    0  0.92343289770E+02 -0.46432555092E+02  0.42350920954E+02  0.11169989187E+03  0.00000000000E+00 0. -1.
<mgrwt>
<rscale>  0 0.18976481E+03</rscale>
<asrwt>0</asrwt>
<pdfrwt beam="2">  1        1 0.24238489E-01 0.19623996E+03</pdfrwt>
<pdfrwt beam="1">  1       -1 0.33796375E-01 0.19623996E+03</pdfrwt>
<totfact> 0.16393465E+03</totfact>
</mgrwt>
</event>
<event>
 7    1  0.6387485E-006  0.1478292E+03  0.7546771E-02  0.1212398E+00
         -3   -1    0    0    0  501 -0.00000000000E+00  0.00000000000E+00  0.77744169941E+03  0.77744169941E+03  0.00000000000E+00 0.  1.
          3   -1    0    0  501    0  0.00000000000E+00 -0.00000000000E+00 -0.25963043983E+02  0.25963043983E+02  0.00000000000E+00 0. -1.
         23    2    1    2    0    0 -0.55518810919E+02  0.56073931465E+02  0.53732248338E+03  0.55728711712E+03  0.12500742221E+03 0.  0.
          5    1    3    3  502    0 -0.80452246015E+02 -0.41844862238E+01  0.25366108651E+03  0.26618811135E+03  0.47000000000E+01 0.  1.
         -5    1    3    3    0  502  0.24933435096E+02  0.60258417689E+02  0.28366139687E+03  0.29109900577E+03  0.47000000000E+01 0.  1.
        -11    1    1    2    0    0 -0.20104568980E+02 -0.18984610500E+02  0.18969880478E+02  0.33533050787E+02  0.00000000000E+00 0. -1.
         11    1    1    2    0    0  0.75623379900E+02 -0.37089320965E+02  0.19518629157E+03  0.21258457549E+03  0.00000000000E+00 0.  1.
<mgrwt>
<rscale>  0 0.14069400E+03</rscale>
<asrwt>0</asrwt>
<pdfrwt beam="2">  1        3 0.39943150E-02 0.14782923E+03</pdfrwt>
<pdfrwt beam="1">  1       -3 0.11960640E+00 0.14782923E+03</pdfrwt>
<totfact> 0.45603545E+02</totfact>
</mgrwt>
</event>
<event>
 7    1  0.6387485E-006  0.1298267E+03  0.7546771E-02  0.1242774E+00
         -1   -1    0    0    0  501 -0.00000000000E+00  0.00000000000E+00  0.42864189225E+03  0.42864189225E+03  0.00000000000E+00 0.  1.
          1   -1    0    0  501    0  0.00000000000E+00 -0.00000000000E+00 -0.45287990375E+02  0.45287990375E+02  0.00000000000E+00 0. -1.
         23    2    1    2    0    0  0.51139096379E+01 -0.34761120607E+02  0.34930535212E+03  0.37265156542E+03  0.12498188914E+03 0.  0.
          5    1    3    3  502    0  0.33402713050E+01 -0.20036117784E+02 -0.20518876733E+01  0.20950027954E+02  0.47000000000E+01 0.  1.
         -5    1    3    3    0  502  0.17736383329E+01 -0.14725002823E+02  0.35135723980E+03  0.35170153747E+03  0.47000000000E+01 0.  1.
        -11    1    1    2    0    0 -0.17059164045E+02  0.70844950478E+00 -0.26068224447E+02  0.31161984924E+02  0.00000000000E+00 0. -1.
         11    1    1    2    0    0  0.11945254407E+02  0.34052671102E+02  0.60116774196E+02  0.70116332275E+02  0.00000000000E+00 0.  1.
<mgrwt>
<rscale>  0 0.12019630E+03</rscale>
<asrwt>0</asrwt>
<pdfrwt beam="2">  1        1 0.69673834E-02 0.12982665E+03</pdfrwt>
<pdfrwt beam="1">  1       -1 0.65944904E-01 0.12982665E+03</pdfrwt>
<totfact> 0.24514972E+03</totfact>
</mgrwt>
</event>
<event>
 6    1  0.6387485E-006  0.5130215E+03  0.7546771E-02  0.1024809E+00
         -1   -1    0    0    0  501 -0.00000000000E+00  0.00000000000E+00  0.44458941435E+03  0.44458941435E+03  0.00000000000E+00 0.  1.
          1   -1    0    0  501    0  0.00000000000E+00 -0.00000000000E+00 -0.51403202016E+03  0.51403202016E+03  0.00000000000E+00 0. -1.
          5    1    1    2  502    0  0.11517998588E+03 -0.33018976217E+02  0.84124690909E+02  0.14647776472E+03  0.47000000000E+01 0. -1.
         -5    1    1    2    0  502 -0.32749001946E+03 -0.20328238094E+03  0.96096266465E+02  0.39727826731E+03  0.47000000000E+01 0.  1.
        -11    1    1    2    0    0  0.84414750928E+02  0.32901829586E+02 -0.78323358095E+02  0.11976196803E+03  0.00000000000E+00 0.  1.
         11    1    1    2    0    0  0.12789528265E+03  0.20339952757E+03 -0.17134020509E+03  0.29510343445E+03  0.00000000000E+00 0. -1.
<mgrwt>
<rscale>  0 0.45990460E+03</rscale>
<asrwt>0</asrwt>
<pdfrwt beam="2">  1        1 0.79081849E-01 0.51302147E+03</pdfrwt>
<pdfrwt beam="1">  1       -1 0.68398372E-01 0.51302147E+03</pdfrwt>
<totfact> 0.95803638E+01</totfact>
</mgrwt>
</event>
<event>
 7    1  0.6387485E-006  0.1393411E+03  0.7546771E-02  0.1225028E+00
          3   -1    0    0  501    0  0.00000000000E+00  0.00000000000E+00  0.83518722316E+02  0.83518722316E+02  0.00000000000E+00 0. -1.
         -3   -1    0    0    0  501 -0.00000000000E+00 -0.00000000000E+00 -0.18797255051E+03  0.18797255051E+03  0.00000000000E+00 0.  1.
         23    2    1    2    0    0 -0.58190159021E+02  0.20096956174E+02 -0.52462217504E+02  0.14889001123E+03  0.12500387564E+03 0.  0.
          5    1    3    3  502    0  0.38673876238E+02  0.12968566780E+02 -0.74212812223E+01  0.41725505900E+02  0.47000000000E+01 0. -1.
         -5    1    3    3    0  502 -0.96864035259E+02  0.71283893940E+01 -0.45040936282E+02  0.10716450533E+03  0.47000000000E+01 0. -1.
        -11    1    1    2    0    0  0.40053664361E+02  0.34892565758E+02 -0.25591408594E+02  0.58963610538E+02  0.00000000000E+00 0. -1.
         11    1    1    2    0    0  0.18136494661E+02 -0.54989521933E+02 -0.26400202095E+02  0.63637651054E+02  0.00000000000E+00 0.  1.
<mgrwt>
<rscale>  0 0.13164999E+03</rscale>
<asrwt>0</asrwt>
<pdfrwt beam="1">  1        3 0.12849034E-01 0.13934113E+03</pdfrwt>
<pdfrwt beam="2">  1       -3 0.28918854E-01 0.13934113E+03</pdfrwt>
<totfact> 0.12852295E+03</totfact>
</mgrwt>
</event>
<event>
 7    1  0.6387485E-006  0.1581419E+03  0.7546771E-02  0.1198617E+00
         -1   -1    0    0    0  501 -0.00000000000E+00  0.00000000000E+00  0.46937318690E+03  0.46937318690E+03  0.00000000000E+00 0.  1.
          1   -1    0    0  501    0  0.00000000000E+00 -0.00000000000E+00 -0.46350150034E+02  0.46350150034E+02  0.00000000000E+00 0. -1.
         23    2    1    2    0    0  0.63056469649E+02 -0.73269079500E+02  0.26903914005E+03  0.31207516199E+03  0.12515738682E+03 0.  0.
          5    1    3    3  502    0  0.12571024727E+02 -0.48943028390E+02  0.24620155631E+03  0.25137769793E+03  0.47000000000E+01 0.  1.
         -5    1    3    3    0  502  0.50485444922E+02 -0.24326051110E+02  0.22837583747E+02  0.60697464057E+02  0.47000000000E+01 0.  1.
        -11    1    1    2    0    0 -0.23076968306E+02  0.22793650976E+02  0.13150596883E+03  0.13544709974E+03  0.00000000000E+00 0.  1.
         11    1    1    2    0    0 -0.39979501343E+02  0.50475428524E+02  0.22477927986E+02  0.68201075203E+02  0.00000000000E+00 0. -1.
<mgrwt>
<rscale>  0 0.15152008E+03</rscale>
<asrwt>0</asrwt>
<pdfrwt beam="2">  1        1 0.71307926E-02 0.15814186E+03</pdfrwt>
<pdfrwt beam="1">  1       -1 0.72211256E-01 0.15814186E+03</pdfrwt>
<totfact> 0.20052563E+03</totfact>
</mgrwt>
</event>
<event>
 7    1  0.6387485E-006  0.1463924E+03  0.7546771E-02  0.1215556E+00
         -2   -1    0    0    0  501 -0.00000000000E+00  0.00000000000E+00  0.58402387832E+02  0.58402387832E+02  0.00000000000E+00 0. -1.
          2   -1    0    0  501    0  0.00000000000E+00 -0.00000000000E+00 -0.30262807800E+03  0.30262807800E+03  0.00000000000E+00 0.  1.
         23    2    1    2    0    0  0.30137491608E+02 -0.69975169199E+02 -0.11010425201E+03  0.18317664685E+03  0.12500377969E+03 0.  0.
          5    1    3    3  502    0  0.88992367776E+01  0.10365454906E+02 -0.98010259806E+02  0.99069370130E+02  0.47000000000E+01 0. -1.
         -5    1    3    3    0  502  0.21238254831E+02 -0.80340624105E+02 -0.12093992201E+02  0.84107276720E+02  0.47000000000E+01 0. -1.
        -11    1    1    2    0    0 -0.58826750183E+01  0.63587809661E+02 -0.13838828238E+03  0.15241171905E+03  0.00000000000E+00 0.  1.
         11    1    1    2    0    0 -0.24254816590E+02  0.63873595379E+01  0.42668442167E+01  0.25442099938E+02  0.00000000000E+00 0. -1.
<mgrwt>
<rscale>  0 0.13835802E+03</rscale>
<asrwt>0</asrwt>
<pdfrwt beam="2">  1        2 0.46558166E-01 0.14639241E+03</pdfrwt>
<pdfrwt beam="1">  1       -2 0.89849826E-02 0.14639241E+03</pdfrwt>
<totfact> 0.81397554E+03</totfact>
</mgrwt>
</event>
<event>
 7    1  0.6387485E-006  0.1467749E+03  0.7546771E-02  0.1212887E+00
         -1   -1    0    0    0  501 -0.00000000000E+00  0.00000000000E+00  0.10568914406E+03  0.10568914406E+03  0.00000000000E+00 0.  1.
          1   -1    0    0  501    0  0.00000000000E+00 -0.00000000000E+00 -0.20710165360E+03  0.20710165360E+03  0.00000000000E+00 0. -1.
         23    2    1    2    0    0 -0.25312309310E+02 -0.72786154895E+02  0.99799172968E+01  0.14711375081E+03  0.12491725094E+03 0.  0.
          5    1    3    3  502    0  0.36167046172E+00  0.35283991485E+02  0.23785307060E+01  0.35676859012E+02  0.47000000000E+01 0. -1.
         -5    1    3    3    0  502 -0.25673979772E+02 -0.10807014638E+03  0.76013865909E+01  0.11143689180E+03  0.47000000000E+01 0. -1.
        -11    1    1    2    0    0  0.39333908410E+02  0.68273287572E+02 -0.12357783702E+03  0.14656015813E+03  0.00000000000E+00 0.  1.
         11    1    1    2    0    0 -0.14021599100E+02  0.45128673227E+01  0.12185410188E+02  0.19116888718E+02  0.00000000000E+00 0. -1.
<mgrwt>
<rscale>  0 0.14032884E+03</rscale>
<asrwt>0</asrwt>
<pdfrwt beam="2">  1        1 0.31861793E-01 0.14677485E+03</pdfrwt>
<pdfrwt beam="1">  1       -1 0.16259868E-01 0.14677485E+03</pdfrwt>
<totfact> 0.38270971E+03</totfact>
</mgrwt>
</event>
<event>
 6    1  0.6387485E-006  0.1962407E+03  0.7546771E-02  0.1175988E+00
         -1   -1    0    0    0  501 -0.00000000000E+00  0.00000000000E+00  0.23289110033E+02  0.23289110033E+02  0.00000000000E+00 0.  1.
          1   -1    0    0  501    0  0.00000000000E+00 -0.00000000000E+00 -0.10866306775E+04  0.10866306775E+04  0.00000000000E+00 0. -1.
          5    1    1    2  502    0  0.16112058768E+02 -0.67905227777E+02 -0.44710566774E+03  0.45254423709E+03  0.47000000000E+01 0. -1.
         -5    1    1    2    0  502  0.54320786446E+02  0.62561483285E+02 -0.10782179970E+03  0.13605997766E+03  0.47000000000E+01 0.  1.
        -11    1    1    2    0    0 -0.88688424211E+02 -0.10371913147E+02 -0.43432788079E+03  0.44341168366E+03  0.00000000000E+00 0. -1.
         11    1    1    2    0    0  0.18255578998E+02  0.15715657639E+02 -0.74086219190E+02  0.77903889077E+02  0.00000000000E+00 0.  1.
<mgrwt>
<rscale>  0 0.17179566E+03</rscale>
<asrwt>0</asrwt>
<pdfrwt beam="2">  1        1 0.16717401E+00 0.19624074E+03</pdfrwt>
<pdfrwt beam="1">  1       -1 0.35829387E-02 0.19624074E+03</pdfrwt>
<totfact> 0.39663920E+03</totfact>
</mgrwt>
</event>
<event>
 7    1  0.6387485E-006  0.1397449E+03  0.7546771E-02  0.1225538E+00
          1   -1    0    0  501    0  0.00000000000E+00  0.00000000000E+00  0.23685051989E+02  0.23685051989E+02  0.00000000000E+00 0. -1.
         -1   -1    0    0    0  501 -0.00000000000E+00 -0.00000000000E+00 -0.65925357221E+03  0.65925357221E+03  0.00000000000E+00 0.  1.
         23    2    1    2    0    0 -0.57617737817E+02  0.24172403501E+02 -0.39081681885E+03  0.41504991978E+03  0.12499816483E+03 0.  0.
          5    1    3    3  502    0 -0.27248444632E+02  0.34363141127E+02 -0.37745720083E+03  0.38002543555E+03  0.47000000000E+01 0.  1.
         -5    1    3    3    0  502 -0.30369293185E+02 -0.10190737626E+02 -0.13359618012E+02  0.35024484227E+02  0.47000000000E+01 0.  1.
        -11    1    1    2    0    0  0.27851148475E+02 -0.56169981058E+02 -0.17137888684E+03  0.18248692035E+03  0.00000000000E+00 0.  1.
         11    1    1    2    0    0  0.29766589342E+02  0.31997577557E+02 -0.73372814540E+02  0.85401784080E+02  0.00000000000E+00 0. -1.
<mgrwt>
<rscale>  0 0.13130071E+03</rscale>
<asrwt>0</asrwt>
<pdfrwt beam="1">  1        1 0.36438539E-02 0.13974495E+03</pdfrwt>
<pdfrwt beam="2">  1       -1 0.10142363E+00 0.13974495E+03</pdfrwt>
<totfact> 0.24513978E+03</totfact>
</mgrwt>
</event>
<event>
 7    1  0.6387485E-006  0.2110524E+03  0.7546771E-02  0.1144410E+00
         -1   -1    0    0    0  501 -0.00000000000E+00  0.00000000000E+00  0.39160118175E+03  0.39160118175E+03  0.00000000000E+00 0.  1.
          1   -1    0    0  501    0  0.00000000000E+00 -0.00000000000E+00 -0.10957902255E+03  0.10957902255E+03  0.00000000000E+00 0. -1.
         23    2    1    2    0    0  0.13550822883E+03  0.10274234849E+03  0.20166267751E+03  0.29190917049E+03  0.12499863225E+03 0.  0.
          5    1    3    3  502    0  0.72986318105E+02  0.80851768589E+02  0.38285219666E+02  0.11555024517E+03  0.47000000000E+01 0. -1.
         -5    1    3    3    0  502  0.62521910723E+02  0.21890579902E+02  0.16337745784E+03  0.17635892532E+03  0.47000000000E+01 0. -1.
        -11    1    1    2    0    0 -0.11963574702E+03 -0.11771681411E+03  0.56875910793E+02  0.17721407822E+03  0.00000000000E+00 0. -1.
         11    1    1    2    0    0 -0.15872481804E+02  0.14974465617E+02  0.23483570908E+02  0.32056955590E+02  0.00000000000E+00 0.  1.
<mgrwt>
<rscale>  0 0.20644758E+03</rscale>
<asrwt>0</asrwt>
<pdfrwt beam="2">  1        1 0.16858311E-01 0.21105243E+03</pdfrwt>
<pdfrwt beam="1">  1       -1 0.60246335E-01 0.21105243E+03</pdfrwt>
<totfact> 0.91824196E+02</totfact>
</mgrwt>
</event>
<event>
 7    1  0.6387485E-006  0.1353956E+03  0.7546771E-02  0.1225348E+00
          1   -1    0    0  501    0  0.00000000000E+00  0.00000000000E+00  0.44722042567E+02  0.44722042567E+02  0.00000000000E+00 0. -1.
         -1   -1    0    0    0  501 -0.00000000000E+00 -0.00000000000E+00 -0.36806236405E+03  0.36806236405E+03  0.00000000000E+00 0.  1.
         23    2    1    2    0    0 -0.78397377271E+02  0.75503496714E+01 -0.15318387218E+03  0.20444378161E+03  0.11013085217E+03 0.  0.
          5    1    3    3  502    0 -0.50600006227E+02  0.55591200023E+02 -0.61825220111E+02  0.97443265503E+02  0.47000000000E+01 0. -1.
         -5    1    3    3    0  502 -0.27797371044E+02 -0.48040850352E+02 -0.91358652072E+02  0.10700051611E+03  0.47000000000E+01 0.  1.
        -11    1    1    2    0    0  0.10455953295E+02  0.36269549275E+02 -0.70926008448E+02  0.80344917936E+02  0.00000000000E+00 0. -1.
         11    1    1    2    0    0  0.67941423977E+02 -0.43819898946E+02 -0.99230440849E+02  0.12799570706E+03  0.00000000000E+00 0.  1.
<mgrwt>
<rscale>  0 0.13143063E+03</rscale>
<asrwt>0</asrwt>
<pdfrwt beam="1">  1        1 0.68803143E-02 0.13539557E+03</pdfrwt>
<pdfrwt beam="2">  1       -1 0.56624979E-01 0.13539557E+03</pdfrwt>
<totfact> 0.33418041E+03</totfact>
</mgrwt>
</event>
<event>
 7    1  0.6387485E-006  0.1504509E+03  0.7546771E-02  0.1208707E+00
         -1   -1    0    0    0  501 -0.00000000000E+00  0.00000000000E+00  0.89012017879E+02  0.89012017879E+02  0.00000000000E+00 0.  1.
          1   -1    0    0  501    0  0.00000000000E+00 -0.00000000000E+00 -0.21906335414E+03  0.21906335414E+03  0.00000000000E+00 0. -1.
         23    2    1    2    0    0  0.25418505452E+02 -0.79779136362E+02 -0.44029792792E+02  0.15676129661E+03  0.12499868177E+03 0.  0.
          5    1    3    3  502    0 -0.49596768293E+02 -0.18971315801E+02 -0.21567097841E+02  0.57506347107E+02  0.47000000000E+01 0. -1.
         -5    1    3    3    0  502  0.75015273744E+02 -0.60807820562E+02 -0.22462694951E+02  0.99254949503E+02  0.47000000000E+01 0. -1.
        -11    1    1    2    0    0  0.20353746135E+02 -0.10223197284E+01 -0.45767297880E+02  0.50099557628E+02  0.00000000000E+00 0. -1.
         11    1    1    2    0    0 -0.45772251586E+02  0.80801456091E+02 -0.40254245590E+02  0.10121451778E+03  0.00000000000E+00 0.  1.
<mgrwt>
<rscale>  0 0.14349093E+03</rscale>
<asrwt>0</asrwt>
<pdfrwt beam="2">  1        1 0.33702055E-01 0.15045093E+03</pdfrwt>
<pdfrwt beam="1">  1       -1 0.13694157E-01 0.15045093E+03</pdfrwt>
<totfact> 0.46797739E+03</totfact>
</mgrwt>
</event>
<event>
 7    1  0.6387485E-006  0.1454594E+03  0.7546771E-02  0.1215807E+00
          1   -1    0    0  501    0  0.00000000000E+00  0.00000000000E+00  0.53703160922E+02  0.53703160922E+02  0.00000000000E+00 0. -1.
         -1   -1    0    0    0  501 -0.00000000000E+00 -0.00000000000E+00 -0.33479521686E+03  0.33479521686E+03  0.00000000000E+00 0.  1.
         23    2    1    2    0    0 -0.67848325313E+02 -0.30496296277E+02 -0.18886944538E+03  0.23839063140E+03  0.12500002562E+03 0.  0.
          5    1    3    3  502    0 -0.27671835003E+02 -0.22451717586E+01  0.12686366434E+02  0.30883735881E+02  0.47000000000E+01 0.  1.
         -5    1    3    3    0  502 -0.40176490311E+02 -0.28251124518E+02 -0.20155581182E+03  0.20750689552E+03  0.47000000000E+01 0.  1.
        -11    1    1    2    0    0  0.14994566812E+02 -0.25086603489E+02 -0.60338463324E+02  0.67044051673E+02  0.00000000000E+00 0.  1.
         11    1    1    2    0    0  0.52853758501E+02  0.55582899765E+02 -0.31884147229E+02  0.83063694708E+02  0.00000000000E+00 0. -1.
<mgrwt>
<rscale>  0 0.13817457E+03</rscale>
<asrwt>0</asrwt>
<pdfrwt beam="1">  1        1 0.82620248E-02 0.14545936E+03</pdfrwt>
<pdfrwt beam="2">  1       -1 0.51506956E-01 0.14545936E+03</pdfrwt>
<totfact> 0.31265551E+03</totfact>
</mgrwt>
</event>
<event>
 7    1  0.6387485E-006  0.1353636E+03  0.7546771E-02  0.1232354E+00
          2   -1    0    0  501    0  0.00000000000E+00  0.00000000000E+00  0.38456842127E+03  0.38456842127E+03  0.00000000000E+00 0. -1.
         -2   -1    0    0    0  501 -0.00000000000E+00 -0.00000000000E+00 -0.41355564927E+02  0.41355564927E+02  0.00000000000E+00 0.  1.
         23    2    1    2    0    0 -0.23288410714E+01  0.51890662417E+02  0.12538788570E+03  0.18451405239E+03  0.12500099720E+03 0.  0.
          5    1    3    3  502    0 -0.11561759106E+02  0.14514630703E+02  0.14130053417E+03  0.14259130315E+03  0.47000000000E+01 0. -1.
         -5    1    3    3    0  502  0.92329180346E+01  0.37376031714E+02 -0.15912648471E+02  0.41922749236E+02  0.47000000000E+01 0. -1.
        -11    1    1    2    0    0 -0.20274074502E+02 -0.61055396366E+02  0.20280849855E+03  0.21276768224E+03  0.00000000000E+00 0. -1.
         11    1    1    2    0    0  0.22602915574E+02  0.91647339492E+01  0.15016472102E+02  0.28642251573E+02  0.00000000000E+00 0.  1.
<mgrwt>
<rscale>  0 0.12675359E+03</rscale>
<asrwt>0</asrwt>
<pdfrwt beam="1">  1        2 0.59164370E-01 0.13536363E+03</pdfrwt>
<pdfrwt beam="2">  1       -2 0.63623949E-02 0.13536363E+03</pdfrwt>
<totfact> 0.10676906E+04</totfact>
</mgrwt>
</event>
<event>
 7    1  0.6387485E-006  0.1179441E+03  0.7546771E-02  0.1257481E+00
         -1   -1    0    0    0  501 -0.00000000000E+00  0.00000000000E+00  0.45727904957E+03  0.45727904957E+03  0.00000000000E+00 0.  1.
          1   -1    0    0  501    0  0.00000000000E+00 -0.00000000000E+00 -0.26159821346E+02  0.26159821346E+02  0.00000000000E+00 0. -1.
         23    2    1    2    0    0 -0.15013745309E+02  0.18420445147E+02  0.29348773232E+03  0.31630028141E+03  0.11552529441E+03 0.  0.
          5    1    3    3  502    0  0.14063141763E+02  0.34829665843E+02  0.24241796625E+02  0.44951443610E+02  0.47000000000E+01 0. -1.
         -5    1    3    3    0  502 -0.29076887073E+02 -0.16409220696E+02  0.26924593569E+03  0.27134883780E+03  0.47000000000E+01 0.  1.
        -11    1    1    2    0    0  0.60605598087E+01  0.36991635295E+02  0.68534030527E+02  0.78115458184E+02  0.00000000000E+00 0. -1.
         11    1    1    2    0    0  0.89531855008E+01 -0.55412080442E+02  0.69097465378E+02  0.89023131327E+02  0.00000000000E+00 0.  1.
<mgrwt>
<rscale>  0 0.11168494E+03</rscale>
<asrwt>0</asrwt>
<pdfrwt beam="2">  1        1 0.40245882E-02 0.11794414E+03</pdfrwt>
<pdfrwt beam="1">  1       -1 0.70350617E-01 0.11794414E+03</pdfrwt>
<totfact> 0.45302376E+03</totfact>
</mgrwt>
</event>
<event>
 7    1  0.6387485E-006  0.1310450E+03  0.7546771E-02  0.1237538E+00
          2   -1    0    0  501    0  0.00000000000E+00  0.00000000000E+00  0.10766405177E+03  0.10766405177E+03  0.00000000000E+00 0.  1.
         -2   -1    0    0    0  501 -0.00000000000E+00 -0.00000000000E+00 -0.13472628157E+03  0.13472628157E+03  0.00000000000E+00 0. -1.
         23    2    1    2    0    0 -0.12346164485E+02  0.37344302999E+02 -0.43206067978E+02  0.13798386957E+03  0.12500303680E+03 0.  0.
          5    1    3    3  502    0 -0.31385455191E+02 -0.21525528957E+02 -0.62218249371E+02  0.73086221337E+02  0.47000000000E+01 0. -1.
         -5    1    3    3    0  502  0.19039290706E+02  0.58869831956E+02  0.19012181393E+02  0.64897648235E+02  0.47000000000E+01 0. -1.
        -11    1    1    2    0    0  0.38222782238E+02 -0.57729114420E+01  0.41210766160E+02  0.56503405526E+02  0.00000000000E+00 0.  1.
         11    1    1    2    0    0 -0.25876617753E+02 -0.31571391557E+02 -0.25066927978E+02  0.47903058247E+02  0.00000000000E+00 0. -1.
<mgrwt>
<rscale>  0 0.12343360E+03</rscale>
<asrwt>0</asrwt>
<pdfrwt beam="1">  1        2 0.16563700E-01 0.13104497E+03</pdfrwt>
<pdfrwt beam="2">  1       -2 0.20727120E-01 0.13104497E+03</pdfrwt>
<totfact> 0.64714193E+03</totfact>
</mgrwt>
</event>
<event>
 7    1  0.6387485E-006  0.1424367E+03  0.7546771E-02  0.1232015E+00
          3   -1    0    0  501    0  0.00000000000E+00  0.00000000000E+00  0.32928158709E+03  0.32928158709E+03  0.00000000000E+00 0. -1.
         -3   -1    0    0    0  501 -0.00000000000E+00 -0.00000000000E+00 -0.49805589772E+02  0.49805589772E+02  0.00000000000E+00 0.  1.
         23    2    1    2    0    0 -0.68218906386E+02  0.32391610189E+01  0.87717797837E+02  0.16728011248E+03  0.12499565041E+03 0.  0.
          5    1    3    3  502    0 -0.63673857639E+01 -0.30362451443E+01  0.10278898841E+03  0.10313791022E+03  0.47000000000E+01 0. -1.
         -5    1    3    3    0  502 -0.61851520622E+02  0.62754061632E+01 -0.15071190571E+02  0.64142202262E+02  0.47000000000E+01 0. -1.
        -11    1    1    2    0    0 -0.10357180704E+02 -0.38147736400E+01  0.30181069019E+02  0.32135970768E+02  0.00000000000E+00 0. -1.
         11    1    1    2    0    0  0.78576087091E+02  0.57561262108E+00  0.16157713046E+03  0.17967109362E+03  0.00000000000E+00 0.  1.
<mgrwt>
<rscale>  0 0.12697463E+03</rscale>
<asrwt>0</asrwt>
<pdfrwt beam="1">  1        3 0.50658704E-01 0.14243674E+03</pdfrwt>
<pdfrwt beam="2">  1       -3 0.76623986E-02 0.14243674E+03</pdfrwt>
<totfact> 0.10355134E+03</totfact>
</mgrwt>
</event>
<event>
 7    1  0.6387485E-006  0.2109871E+03  0.7546771E-02  0.1144260E+00
          1   -1    0    0  501    0  0.00000000000E+00  0.00000000000E+00  0.93266423555E+03  0.93266423555E+03  0.00000000000E+00 0. -1.
         -1   -1    0    0    0  501 -0.00000000000E+00 -0.00000000000E+00 -0.58893552720E+02  0.58893552720E+02  0.00000000000E+00 0.  1.
         23    2    1    2    0    0 -0.14203783027E+03 -0.93358610460E+02  0.20121708660E+03  0.29155422031E+03  0.12499988827E+03 0.  0.
          5    1    3    3  502    0 -0.17855540164E+02  0.30421696883E+02  0.34345703558E+02  0.49457227062E+02  0.47000000000E+01 0.  1.
         -5    1    3    3    0  502 -0.12418229011E+03 -0.12378030734E+03  0.16687138304E+03  0.24209699325E+03  0.47000000000E+01 0.  1.
        -11    1    1    2    0    0  0.29894307178E+02  0.21569763221E+02  0.43533120588E+02  0.57044341307E+02  0.00000000000E+00 0.  1.
         11    1    1    2    0    0  0.11214352309E+03  0.71788847239E+02  0.62902047564E+03  0.64295922665E+03  0.00000000000E+00 0. -1.
<mgrwt>
<rscale>  0 0.20663360E+03</rscale>
<asrwt>0</asrwt>
<pdfrwt beam="1">  1        1 0.14348679E+00 0.21098708E+03</pdfrwt>
<pdfrwt beam="2">  1       -1 0.90605472E-02 0.21098708E+03</pdfrwt>
<totfact> 0.12803258E+03</totfact>
</mgrwt>
</event>
<event>
 7    1  0.6387485E-006  0.1605911E+03  0.7546771E-02  0.1196514E+00
         -2   -1    0    0    0  501 -0.00000000000E+00  0.00000000000E+00  0.12571675670E+03  0.12571675670E+03  0.00000000000E+00 0.  1.
          2   -1    0    0  501    0  0.00000000000E+00 -0.00000000000E+00 -0.17324352652E+03  0.17324352652E+03  0.00000000000E+00 0. -1.
         23    2    1    2    0    0 -0.86407923950E+02  0.51956802956E+02 -0.11859903305E+02  0.16102846616E+03  0.12499468354E+03 0.  0.
          5    1    3    3  502    0 -0.36999025165E+02  0.98718358506E+01  0.55355871791E+02  0.67474021282E+02  0.47000000000E+01 0.  1.
         -5    1    3    3    0  502 -0.49408898785E+02  0.42084967106E+02 -0.67215775096E+02  0.93554444882E+02  0.47000000000E+01 0.  1.
        -11    1    1    2    0    0  0.62044786866E+02 -0.69364471203E+01 -0.55010123982E+02  0.83209276024E+02  0.00000000000E+00 0. -1.
         11    1    1    2    0    0  0.24363137084E+02 -0.45020355836E+02  0.19343257461E+02  0.54722541035E+02  0.00000000000E+00 0.  1.
<mgrwt>
<rscale>  0 0.15326758E+03</rscale>
<asrwt>0</asrwt>
<pdfrwt beam="2">  1        2 0.26652850E-01 0.16059113E+03</pdfrwt>
<pdfrwt beam="1">  1       -2 0.19341040E-01 0.16059113E+03</pdfrwt>
<totfact> 0.43123251E+03</totfact>
</mgrwt>
</event>
<event>
 7    1  0.6387485E-006  0.1178981E+03  0.7546771E-02  0.1253830E+00
          1   -1    0    0  501    0  0.00000000000E+00  0.00000000000E+00  0.90945137779E+02  0.90945137779E+02  0.00000000000E+00 0. -1.
         -1   -1    0    0    0  501 -0.00000000000E+00 -0.00000000000E+00 -0.17287715729E+03  0.17287715729E+03  0.00000000000E+00 0.  1.
         23    2    1    2    0    0  0.24748282450E+02 -0.23803434391E+02 -0.10646887721E+03  0.15885708151E+03  0.11278683238E+03 0.  0.
          5    1    3    3  502    0  0.61358038277E+02 -0.26114971263E+02 -0.10150806421E+03  0.12154331608E+03  0.47000000000E+01 0. -1.
         -5    1    3    3    0  502 -0.36609755827E+02  0.23115368722E+01 -0.49608129990E+01  0.37313765423E+02  0.47000000000E+01 0.  1.
        -11    1    1    2    0    0  0.32005262709E+02  0.24529404586E+02 -0.55855879807E+01  0.40709057021E+02  0.00000000000E+00 0. -1.
         11    1    1    2    0    0 -0.56753545159E+02 -0.72597019560E+00  0.30122445671E+02  0.64256156546E+02  0.00000000000E+00 0.  1.
<mgrwt>
<rscale>  0 0.11372101E+03</rscale>
<asrwt>0</asrwt>
<pdfrwt beam="1">  1        1 0.13991560E-01 0.11789805E+03</pdfrwt>
<pdfrwt beam="2">  1       -1 0.26596485E-01 0.11789805E+03</pdfrwt>
<totfact> 0.48492175E+03</totfact>
</mgrwt>
</event>
<event>
 7    1  0.6387485E-006  0.1489569E+03  0.7546771E-02  0.1209383E+00
          1   -1    0    0  501    0  0.00000000000E+00  0.00000000000E+00  0.25156756527E+02  0.25156756527E+02  0.00000000000E+00 0. -1.
         -1   -1    0    0    0  501 -0.00000000000E+00 -0.00000000000E+00 -0.10934476297E+04  0.10934476297E+04  0.00000000000E+00 0.  1.
         23    2    1    2    0    0 -0.48224048161E+02 -0.65100531975E+02 -0.87533305318E+03  0.88791672217E+03  0.12499805369E+03 0.  0.
          5    1    3    3  502    0 -0.68400160159E+02 -0.73023892770E+02 -0.41010460517E+03  0.42215986072E+03  0.47000000000E+01 0.  1.
         -5    1    3    3    0  502  0.20176111997E+02  0.79233607945E+01 -0.46522844801E+03  0.46575686144E+03  0.47000000000E+01 0.  1.
        -11    1    1    2    0    0  0.21590776213E+02  0.48662448537E+02 -0.23206571090E+02  0.58075299886E+02  0.00000000000E+00 0. -1.
         11    1    1    2    0    0  0.26633271948E+02  0.16438083438E+02 -0.16975124890E+03  0.17261236417E+03  0.00000000000E+00 0.  1.
<mgrwt>
<rscale>  0 0.14297377E+03</rscale>
<asrwt>0</asrwt>
<pdfrwt beam="1">  1        1 0.38702703E-02 0.14895688E+03</pdfrwt>
<pdfrwt beam="2">  1       -1 0.16822271E+00 0.14895688E+03</pdfrwt>
<totfact> 0.65417183E+02</totfact>
</mgrwt>
</event>
<event>
 7    1  0.6387485E-006  0.1295565E+03  0.7546771E-02  0.1242340E+00
          2   -1    0    0  501    0  0.00000000000E+00  0.00000000000E+00  0.12794079364E+03  0.12794079364E+03  0.00000000000E+00 0. -1.
         -2   -1    0    0    0  501 -0.00000000000E+00 -0.00000000000E+00 -0.10030351225E+03  0.10030351225E+03  0.00000000000E+00 0.  1.
         23    2    1    2    0    0  0.22214586494E+02 -0.25762139428E+02  0.11279785952E+02  0.13004656869E+03  0.12501080263E+03 0.  0.
          5    1    3    3  502    0  0.26292022482E+02 -0.71110109340E+02 -0.14765626799E+02  0.77382374164E+02  0.47000000000E+01 0.  1.
         -5    1    3    3    0  502 -0.40774359877E+01  0.45347969911E+02  0.26045412750E+02  0.52664194522E+02  0.47000000000E+01 0.  1.
        -11    1    1    2    0    0 -0.56731328319E+02  0.10440940920E+02  0.17619468195E+01  0.57711015558E+02  0.00000000000E+00 0.  1.
         11    1    1    2    0    0  0.34516741825E+02  0.15321198508E+02  0.14595548620E+02  0.40486721644E+02  0.00000000000E+00 0. -1.
<mgrwt>
<rscale>  0 0.12045977E+03</rscale>
<asrwt>0</asrwt>
<pdfrwt beam="1">  1        2 0.19683199E-01 0.12955646E+03</pdfrwt>
<pdfrwt beam="2">  1       -2 0.15431310E-01 0.12955646E+03</pdfrwt>
<totfact> 0.86796647E+03</totfact>
</mgrwt>
</event>
<event>
 7    1  0.6387485E-006  0.1152658E+03  0.7546771E-02  0.1260538E+00
          2   -1    0    0  501    0  0.00000000000E+00  0.00000000000E+00  0.17036573395E+03  0.17036573395E+03  0.00000000000E+00 0. -1.
         -2   -1    0    0    0  501 -0.00000000000E+00 -0.00000000000E+00 -0.65610048658E+02  0.65610048658E+02  0.00000000000E+00 0.  1.
         23    2    1    2    0    0  0.27243814014E+02  0.99112418550E+01  0.65467780649E+02  0.13256026870E+03  0.11156046082E+03 0.  0.
          5    1    3    3  502    0 -0.24806408284E+01 -0.10119751048E+02  0.88800839363E+02  0.89533468668E+02  0.47000000000E+01 0. -1.
         -5    1    3    3    0  502  0.29724454843E+02  0.20030992903E+02 -0.23333058714E+02  0.43026800036E+02  0.47000000000E+01 0.  1.
        -11    1    1    2    0    0 -0.28963707545E+02  0.32797630132E+02 -0.22496492698E+01  0.43813717245E+02  0.00000000000E+00 0.  1.
         11    1    1    2    0    0  0.17198935305E+01 -0.42708871987E+02  0.41537553915E+02  0.59601796662E+02  0.00000000000E+00 0. -1.
<mgrwt>
<rscale>  0 0.11001709E+03</rscale>
<asrwt>0</asrwt>
<pdfrwt beam="1">  1        2 0.26210113E-01 0.11526576E+03</pdfrwt>
<pdfrwt beam="2">  1       -2 0.10093854E-01 0.11526576E+03</pdfrwt>
<totfact> 0.12329677E+04</totfact>
</mgrwt>
</event>
<event>
 7    1  0.6387485E-006  0.1347733E+03  0.7546771E-02  0.1232422E+00
          1   -1    0    0  501    0  0.00000000000E+00  0.00000000000E+00  0.53799851456E+03  0.53799851456E+03  0.00000000000E+00 0. -1.
         -1   -1    0    0    0  501 -0.00000000000E+00 -0.00000000000E+00 -0.36419862154E+02  0.36419862154E+02  0.00000000000E+00 0.  1.
         23    2    1    2    0    0 -0.17880573378E+02  0.47530581552E+02  0.12650495273E+03  0.18484413526E+03  0.12483981811E+03 0.  0.
          5    1    3    3  502    0  0.29177348740E+02  0.74520787805E+02  0.79648677316E+02  0.11300737716E+03  0.47000000000E+01 0.  1.
         -5    1    3    3    0  502 -0.47057922118E+02 -0.26990206254E+02  0.46856275417E+02  0.71836758095E+02  0.47000000000E+01 0.  1.
        -11    1    1    2    0    0  0.46410368816E+02  0.22302277599E+01  0.13608470864E+03  0.14379827598E+03  0.00000000000E+00 0.  1.
         11    1    1    2    0    0 -0.28529795438E+02 -0.49760809312E+02  0.23898899103E+03  0.24577596548E+03  0.00000000000E+00 0. -1.
<mgrwt>
<rscale>  0 0.12670936E+03</rscale>
<asrwt>0</asrwt>
<pdfrwt beam="1">  1        1 0.82768996E-01 0.13477333E+03</pdfrwt>
<pdfrwt beam="2">  1       -1 0.56030561E-02 0.13477333E+03</pdfrwt>
<totfact> 0.58319185E+03</totfact>
</mgrwt>
</event>
<event>
 7    1  0.6387485E-006  0.1627061E+03  0.7546771E-02  0.1191504E+00
          1   -1    0    0  501    0  0.00000000000E+00  0.00000000000E+00  0.73029651638E+03  0.73029651638E+03  0.00000000000E+00 0. -1.
         -1   -1    0    0    0  501 -0.00000000000E+00 -0.00000000000E+00 -0.45693727064E+02  0.45693727064E+02  0.00000000000E+00 0.  1.
         23    2    1    2    0    0 -0.10981225078E+03  0.79621245155E+01  0.14559967608E+03  0.21834039435E+03  0.11979622817E+03 0.  0.
          5    1    3    3  502    0 -0.64501340679E+02  0.16248671453E+01  0.15797816956E+03  0.17071102835E+03  0.47000000000E+01 0. -1.
         -5    1    3    3    0  502 -0.45310910099E+02  0.63372573702E+01 -0.12378493481E+02  0.47629366003E+02  0.47000000000E+01 0.  1.
        -11    1    1    2    0    0  0.10454059864E+03  0.24033028627E+02  0.35649600895E+03  0.37228447137E+03  0.00000000000E+00 0. -1.
         11    1    1    2    0    0  0.52716521371E+01 -0.31995153143E+02  0.18250710428E+03  0.18536537771E+03  0.00000000000E+00 0.  1.
<mgrwt>
<rscale>  0 0.15753853E+03</rscale>
<asrwt>0</asrwt>
<pdfrwt beam="1">  1        1 0.11235330E+00 0.16270606E+03</pdfrwt>
<pdfrwt beam="2">  1       -1 0.70298047E-02 0.16270606E+03</pdfrwt>
<totfact> 0.27405611E+03</totfact>
</mgrwt>
</event>
<event>
 7    1  0.6387485E-006  0.1520465E+03  0.7546771E-02  0.1206951E+00
          1   -1    0    0  501    0  0.00000000000E+00  0.00000000000E+00  0.71987282457E+03  0.71987282457E+03  0.00000000000E+00 0. -1.
         -1   -1    0    0    0  501 -0.00000000000E+00 -0.00000000000E+00 -0.27496378647E+02  0.27496378647E+02  0.00000000000E+00 0.  1.
         23    2    1    2    0    0 -0.77418272987E+02  0.38729967678E+02  0.31541022818E+03  0.35014530870E+03  0.12499810309E+03 0.  0.
          5    1    3    3  502    0 -0.93022891953E+02 -0.74427587107E+01  0.25958242043E+03  0.27588725248E+03  0.47000000000E+01 0. -1.
         -5    1    3    3    0  502  0.15604618967E+02  0.46172726388E+02  0.55827807745E+02  0.74258056215E+02  0.47000000000E+01 0. -1.
        -11    1    1    2    0    0 -0.79547538567E+01 -0.38603613985E+02  0.13512268355E+03  0.14075388710E+03  0.00000000000E+00 0.  1.
         11    1    1    2    0    0  0.85373026843E+02 -0.12635369288E+00  0.24184353419E+03  0.25647000742E+03  0.00000000000E+00 0. -1.
<mgrwt>
<rscale>  0 0.14484779E+03</rscale>
<asrwt>0</asrwt>
<pdfrwt beam="1">  1        1 0.11074965E+00 0.15204646E+03</pdfrwt>
<pdfrwt beam="2">  1       -1 0.42302126E-02 0.15204646E+03</pdfrwt>
<totfact> 0.59495355E+03</totfact>
</mgrwt>
</event>
<event>
 7    1  0.6387485E-006  0.1323008E+03  0.7546771E-02  0.1237277E+00
         -2   -1    0    0    0  501 -0.00000000000E+00  0.00000000000E+00  0.17852836826E+03  0.17852836826E+03  0.00000000000E+00 0.  1.
          2   -1    0    0  501    0  0.00000000000E+00 -0.00000000000E+00 -0.76890218864E+02  0.76890218864E+02  0.00000000000E+00 0. -1.
         23    2    1    2    0    0 -0.43260768928E+02 -0.24869166494E+01  0.70664350579E+02  0.14998986242E+03  0.12500331797E+03 0.  0.
          5    1    3    3  502    0 -0.46135563789E+02  0.10918945085E+02  0.10358710091E+03  0.11401794193E+03  0.47000000000E+01 0.  1.
         -5    1    3    3    0  502  0.28747948611E+01 -0.13405861735E+02 -0.32922750328E+02  0.35971920487E+02  0.47000000000E+01 0.  1.
        -11    1    1    2    0    0 -0.25027008129E+02  0.14670228857E+02  0.19912411148E+02  0.35186231232E+02  0.00000000000E+00 0.  1.
         11    1    1    2    0    0  0.68287777057E+02 -0.12183312208E+02  0.11061387665E+02  0.70242493470E+02  0.00000000000E+00 0. -1.
<mgrwt>
<rscale>  0 0.12359799E+03</rscale>
<asrwt>0</asrwt>
<pdfrwt beam="2">  1        2 0.11829265E-01 0.13230083E+03</pdfrwt>
<pdfrwt beam="1">  1       -2 0.27465903E-01 0.13230083E+03</pdfrwt>
<totfact> 0.59126348E+03</totfact>
</mgrwt>
</event>
<event>
 7    1  0.6387485E-006  0.1514235E+03  0.7546771E-02  0.1208093E+00
         -1   -1    0    0    0  501 -0.00000000000E+00  0.00000000000E+00  0.73804586517E+02  0.73804586517E+02  0.00000000000E+00 0.  1.
          1   -1    0    0  501    0  0.00000000000E+00 -0.00000000000E+00 -0.35993661224E+03  0.35993661224E+03  0.00000000000E+00 0. -1.
         23    2    1    2    0    0 -0.72980944895E+02  0.44468904124E+02 -0.37451295301E+02  0.15598609469E+03  0.12500144185E+03 0.  0.
          5    1    3    3  502    0 -0.13433390690E+01  0.53889666571E+02 -0.59374765928E+02  0.80332767611E+02  0.47000000000E+01 0.  1.
         -5    1    3    3    0  502 -0.71637605826E+02 -0.94207624469E+01  0.21923470628E+02  0.75653327078E+02  0.47000000000E+01 0.  1.
        -11    1    1    2    0    0  0.43549217948E+02 -0.71458911689E+02 -0.16306247684E+03  0.18328197346E+03  0.00000000000E+00 0.  1.
         11    1    1    2    0    0  0.29431726947E+02  0.26990007565E+02 -0.85618253578E+02  0.94473130599E+02  0.00000000000E+00 0. -1.
<mgrwt>
<rscale>  0 0.14396331E+03</rscale>
<asrwt>0</asrwt>
<pdfrwt beam="2">  1        1 0.55374864E-01 0.15142345E+03</pdfrwt>
<pdfrwt beam="1">  1       -1 0.11354552E-01 0.15142345E+03</pdfrwt>
<totfact> 0.33763475E+03</totfact>
</mgrwt>
</event>
<event>
 7    1  0.6387485E-006  0.2455434E+03  0.7546771E-02  0.1118765E+00
          4   -1    0    0  501    0  0.00000000000E+00  0.00000000000E+00  0.44219104069E+03  0.44219104069E+03  0.00000000000E+00 0. -1.
         -4   -1    0    0    0  501 -0.00000000000E+00 -0.00000000000E+00 -0.18670676024E+03  0.18670676024E+03  0.00000000000E+00 0.  1.
         23    2    1    2    0    0  0.20253961710E+03  0.60461376776E+02 -0.45909306916E+02  0.24979837894E+03  0.12495475615E+03 0.  0.
          5    1    3    3  502    0 -0.12223031986E+02  0.23874720803E+02 -0.63777864277E+00  0.27237870070E+02  0.47000000000E+01 0.  1.
         -5    1    3    3    0  502  0.21476264909E+03  0.36586655973E+02 -0.45271528274E+02  0.22256050887E+03  0.47000000000E+01 0.  1.
        -11    1    1    2    0    0 -0.15153430018E+03 -0.30503620654E+02  0.14518284070E+03  0.21206407578E+03  0.00000000000E+00 0.  1.
         11    1    1    2    0    0 -0.51005316924E+02 -0.29957756122E+02  0.15621074667E+03  0.16703534621E+03  0.00000000000E+00 0. -1.
<mgrwt>
<rscale>  0 0.24154935E+03</rscale>
<asrwt>0</asrwt>
<pdfrwt beam="1">  1        4 0.68029391E-01 0.24554341E+03</pdfrwt>
<pdfrwt beam="2">  1       -4 0.28724117E-01 0.24554341E+03</pdfrwt>
<totfact> 0.42552065E+01</totfact>
</mgrwt>
</event>
<event>
 6    1  0.6387485E-006  0.2981543E+03  0.7546771E-02  0.1130906E+00
          2   -1    0    0  501    0  0.00000000000E+00  0.00000000000E+00  0.32459692473E+03  0.32459692473E+03  0.00000000000E+00 0. -1.
         -2   -1    0    0    0  501 -0.00000000000E+00 -0.00000000000E+00 -0.19541547282E+03  0.19541547282E+03  0.00000000000E+00 0.  1.
          5    1    1    2  502    0  0.38115172943E+02  0.53401964461E+02  0.99671180445E+02  0.11941930509E+03  0.47000000000E+01 0. -1.
         -5    1    1    2    0  502 -0.68970180007E+02 -0.53905663671E+02 -0.16345891942E+03  0.18548211408E+03  0.47000000000E+01 0.  1.
        -11    1    1    2    0    0 -0.23798201175E+02  0.14767829348E+02  0.11780818972E+03  0.12109175334E+03  0.00000000000E+00 0. -1.
         11    1    1    2    0    0  0.54653208238E+02 -0.14264130138E+02  0.75161001165E+02  0.94019225032E+02  0.00000000000E+00 0.  1.
<mgrwt>
<rscale>  0 0.22404002E+03</rscale>
<asrwt>0</asrwt>
<pdfrwt beam="1">  1        2 0.49937988E-01 0.29815432E+03</pdfrwt>
<pdfrwt beam="2">  1       -2 0.30063919E-01 0.29815432E+03</pdfrwt>
<totfact> 0.10242936E+03</totfact>
</mgrwt>
</event>
<event>
 7    1  0.6387485E-006  0.1265250E+03  0.7546771E-02  0.1247605E+00
         -2   -1    0    0    0  501 -0.00000000000E+00  0.00000000000E+00  0.32719478252E+02  0.32719478252E+02  0.00000000000E+00 0.  1.
          2   -1    0    0  501    0  0.00000000000E+00 -0.00000000000E+00 -0.37845243144E+03  0.37845243144E+03  0.00000000000E+00 0. -1.
         23    2    1    2    0    0 -0.15163360734E+02  0.12167266242E+02 -0.16761636436E+03  0.21000907419E+03  0.12502238104E+03 0.  0.
          5    1    3    3  502    0  0.30784871404E+02  0.21991204673E+02 -0.15706215034E+03  0.16162280303E+03  0.47000000000E+01 0. -1.
         -5    1    3    3    0  502 -0.45948232138E+02 -0.98239384314E+01 -0.10554214026E+02  0.48386271158E+02  0.47000000000E+01 0. -1.
        -11    1    1    2    0    0 -0.26059739268E+01  0.37679450185E+02 -0.50932795304E+02  0.63408845627E+02  0.00000000000E+00 0.  1.
         11    1    1    2    0    0  0.17769334661E+02 -0.49846716427E+02 -0.12718379353E+03  0.13775398988E+03  0.00000000000E+00 0. -1.
<mgrwt>
<rscale>  0 0.11730786E+03</rscale>
<asrwt>0</asrwt>
<pdfrwt beam="2">  1        2 0.58223449E-01 0.12652496E+03</pdfrwt>
<pdfrwt beam="1">  1       -2 0.50337660E-02 0.12652496E+03</pdfrwt>
<totfact> 0.15385522E+04</totfact>
</mgrwt>
</event>
<event>
 6    1  0.6387485E-006  0.2277517E+03  0.7546771E-02  0.1159962E+00
         -2   -1    0    0    0  501 -0.00000000000E+00  0.00000000000E+00  0.65377886950E+03  0.65377886950E+03  0.00000000000E+00 0.  1.
          2   -1    0    0  501    0  0.00000000000E+00 -0.00000000000E+00 -0.57316880360E+02  0.57316880360E+02  0.00000000000E+00 0. -1.
          5    1    1    2  502    0  0.41183312859E+02  0.12770547131E+03  0.43227761675E+03  0.45264862819E+03  0.47000000000E+01 0. -1.
         -5    1    1    2    0  502 -0.31461078703E+02 -0.73852383090E+02  0.11693964628E+03  0.14191879662E+03  0.47000000000E+01 0.  1.
        -11    1    1    2    0    0  0.62015505408E+01  0.23315626210E+02 -0.98249068959E+00  0.24146282170E+02  0.00000000000E+00 0. -1.
         11    1    1    2    0    0 -0.15923784697E+02 -0.77168714432E+02  0.48227216794E+02  0.92382042876E+02  0.00000000000E+00 0.  1.
<mgrwt>
<rscale>  0 0.18834551E+03</rscale>
<asrwt>0</asrwt>
<pdfrwt beam="2">  1        2 0.88179820E-02 0.22775166E+03</pdfrwt>
<pdfrwt beam="1">  1       -2 0.10058136E+00 0.22775166E+03</pdfrwt>
<totfact> 0.63278659E+02</totfact>
</mgrwt>
</event>
<event>
 7    1  0.6387485E-006  0.1258756E+03  0.7546771E-02  0.1249385E+00
          4   -1    0    0  501    0  0.00000000000E+00  0.00000000000E+00  0.69769310355E+03  0.69769310355E+03  0.00000000000E+00 0. -1.
         -4   -1    0    0    0  501 -0.00000000000E+00 -0.00000000000E+00 -0.21966096025E+02  0.21966096025E+02  0.00000000000E+00 0.  1.
         23    2    1    2    0    0  0.14766779325E+02  0.15837853496E+01  0.20863934014E+03  0.24366994199E+03  0.12499640084E+03 0.  0.
          5    1    3    3  502    0  0.27031390989E+02 -0.51343522220E+02  0.52902045300E+02  0.78661107096E+02  0.47000000000E+01 0.  1.
         -5    1    3    3    0  502 -0.12264611664E+02  0.52927307570E+02  0.15573729485E+03  0.16500883489E+03  0.47000000000E+01 0.  1.
        -11    1    1    2    0    0 -0.30856756614E+02  0.37457128981E+02  0.28204349188E+03  0.28618823744E+03  0.00000000000E+00 0.  1.
         11    1    1    2    0    0  0.16089977289E+02 -0.39040914331E+02  0.18504417550E+03  0.18980102015E+03  0.00000000000E+00 0. -1.
<mgrwt>
<rscale>  0 0.11626741E+03</rscale>
<asrwt>0</asrwt>
<pdfrwt beam="1">  1        4 0.10733738E+00 0.12587560E+03</pdfrwt>
<pdfrwt beam="2">  1       -4 0.33793999E-02 0.12587560E+03</pdfrwt>
<totfact> 0.53017301E+02</totfact>
</mgrwt>
</event>
<event>
 7    1  0.6387485E-006  0.1299448E+03  0.7546771E-02  0.1241200E+00
         -1   -1    0    0    0  501 -0.00000000000E+00  0.00000000000E+00  0.10695973178E+03  0.10695973178E+03  0.00000000000E+00 0.  1.
          1   -1    0    0  501    0  0.00000000000E+00 -0.00000000000E+00 -0.12602426544E+03  0.12602426544E+03  0.00000000000E+00 0. -1.
         23    2    1    2    0    0  0.13481349011E+02  0.31122733434E+02  0.10660637110E+02  0.13038136618E+03  0.12544034501E+03 0.  0.
          5    1    3    3  502    0  0.22862543121E+02  0.77495522872E+02  0.16119956294E+02  0.82523905228E+02  0.47000000000E+01 0. -1.
         -5    1    3    3    0  502 -0.93811941102E+01 -0.46372789438E+02 -0.54593191846E+01  0.47857460956E+02  0.47000000000E+01 0.  1.
        -11    1    1    2    0    0  0.24085027025E+02 -0.39259462527E+02 -0.41917943259E+02  0.62277667681E+02  0.00000000000E+00 0.  1.
         11    1    1    2    0    0 -0.37566376036E+02  0.81367290930E+01  0.12192772494E+02  0.40324963359E+02  0.00000000000E+00 0. -1.
<mgrwt>
<rscale>  0 0.12115734E+03</rscale>
<asrwt>0</asrwt>
<pdfrwt beam="2">  1        1 0.19388349E-01 0.12994480E+03</pdfrwt>
<pdfrwt beam="1">  1       -1 0.16455343E-01 0.12994480E+03</pdfrwt>
<totfact> 0.69584779E+03</totfact>
</mgrwt>
</event>
<event>
 7    1  0.6387485E-006  0.1389125E+03  0.7546771E-02  0.1226614E+00
         -3   -1    0    0    0  501 -0.00000000000E+00  0.00000000000E+00  0.24884331195E+03  0.24884331195E+03  0.00000000000E+00 0.  1.
          3   -1    0    0  501    0  0.00000000000E+00 -0.00000000000E+00 -0.63692061685E+02  0.63692061685E+02  0.00000000000E+00 0. -1.
         23    2    1    2    0    0  0.46644440340E+02  0.38680466472E+02  0.74555262120E+02  0.15765519427E+03  0.12499916347E+03 0.  0.
          5    1    3    3  502    0  0.52416674508E+02  0.25116867620E+02 -0.20148312400E+02  0.61696104399E+02  0.47000000000E+01 0.  1.
         -5    1    3    3    0  502 -0.57722341675E+01  0.13563598852E+02  0.94703574520E+02  0.95959089866E+02  0.47000000000E+01 0.  1.
        -11    1    1    2    0    0 -0.30555345062E+02 -0.21666214778E+02 -0.42257400526E+01  0.37694971199E+02  0.00000000000E+00 0. -1.
         11    1    1    2    0    0 -0.16089095278E+02 -0.17014251693E+02  0.11482172820E+03  0.11718520817E+03  0.00000000000E+00 0.  1.
<mgrwt>
<rscale>  0 0.13056904E+03</rscale>
<asrwt>0</asrwt>
<pdfrwt beam="2">  1        3 0.97987788E-02 0.13891247E+03</pdfrwt>
<pdfrwt beam="1">  1       -3 0.38283586E-01 0.13891247E+03</pdfrwt>
<totfact> 0.11925485E+03</totfact>
</mgrwt>
</event>
<event>
 7    1  0.6387485E-006  0.1314641E+03  0.7546771E-02  0.1237487E+00
          2   -1    0    0  501    0  0.00000000000E+00  0.00000000000E+00  0.24728446652E+03  0.24728446652E+03  0.00000000000E+00 0.  1.
         -2   -1    0    0    0  501 -0.00000000000E+00 -0.00000000000E+00 -0.55277312764E+02  0.55277312764E+02  0.00000000000E+00 0. -1.
         23    2    1    2    0    0 -0.27843792723E+02 -0.29695053306E+02  0.10374028869E+03  0.16746598135E+03  0.12500293767E+03 0.  0.
          5    1    3    3  502    0  0.16565520784E+02 -0.43867412755E+02  0.11049912611E+03  0.12012873616E+03  0.47000000000E+01 0. -1.
         -5    1    3    3    0  502 -0.44409313507E+02  0.14172359449E+02 -0.67588374191E+01  0.47337245186E+02  0.47000000000E+01 0. -1.
        -11    1    1    2    0    0  0.63167623101E+01 -0.24220556365E+02  0.69835574853E+02  0.74185877037E+02  0.00000000000E+00 0.  1.
         11    1    1    2    0    0  0.21527030413E+02  0.53915609672E+02  0.18431290207E+02  0.60909920894E+02  0.00000000000E+00 0. -1.
<mgrwt>
<rscale>  0 0.12346560E+03</rscale>
<asrwt>0</asrwt>
<pdfrwt beam="1">  1        2 0.38043763E-01 0.13146409E+03</pdfrwt>
<pdfrwt beam="2">  1       -2 0.85042021E-02 0.13146409E+03</pdfrwt>
<totfact> 0.10902413E+04</totfact>
</mgrwt>
</event>
<event>
 7    1  0.6387485E-006  0.1461679E+03  0.7546771E-02  0.1215042E+00
          4   -1    0    0  501    0  0.00000000000E+00  0.00000000000E+00  0.23687724000E+03  0.23687724000E+03  0.00000000000E+00 0. -1.
         -4   -1    0    0    0  501 -0.00000000000E+00 -0.00000000000E+00 -0.74037860430E+02  0.74037860430E+02  0.00000000000E+00 0.  1.
         23    2    1    2    0    0 -0.29135090993E+02 -0.69934165739E+02  0.86425587671E+02  0.16980703449E+03  0.12500162276E+03 0.  0.
          5    1    3    3  502    0 -0.69786935019E+02 -0.38200332818E+02  0.14226504256E+02  0.80956563354E+02  0.47000000000E+01 0. -1.
         -5    1    3    3    0  502  0.40651844027E+02 -0.31733832921E+02  0.72199083416E+02  0.88850471134E+02  0.47000000000E+01 0. -1.
        -11    1    1    2    0    0  0.41428579491E+02  0.68705207512E+01  0.96059890518E+00  0.42005404465E+02  0.00000000000E+00 0. -1.
         11    1    1    2    0    0 -0.12293488498E+02  0.63063644987E+02  0.75453192989E+02  0.99102661472E+02  0.00000000000E+00 0.  1.
<mgrwt>
<rscale>  0 0.13873468E+03</rscale>
<asrwt>0</asrwt>
<pdfrwt beam="1">  1        4 0.36442652E-01 0.14616787E+03</pdfrwt>
<pdfrwt beam="2">  1       -4 0.11390440E-01 0.14616787E+03</pdfrwt>
<totfact> 0.74562532E+02</totfact>
</mgrwt>
</event>
<event>
 7    1  0.6387485E-006  0.1390699E+03  0.7546771E-02  0.1226079E+00
         -2   -1    0    0    0  501 -0.00000000000E+00  0.00000000000E+00  0.22542092583E+03  0.22542092583E+03  0.00000000000E+00 0.  1.
          2   -1    0    0  501    0  0.00000000000E+00 -0.00000000000E+00 -0.94996484634E+02  0.94996484634E+02  0.00000000000E+00 0. -1.
         23    2    1    2    0    0  0.34611551078E+02 -0.50209856394E+02  0.15518495856E+03  0.20838142791E+03  0.12498583515E+03 0.  0.
          5    1    3    3  502    0  0.57775610809E+02  0.48220345697E+01  0.21712566636E+02  0.62087025792E+02  0.47000000000E+01 0.  1.
         -5    1    3    3    0  502 -0.23164059731E+02 -0.55031890964E+02  0.13347239192E+03  0.14629440212E+03  0.47000000000E+01 0.  1.
        -11    1    1    2    0    0 -0.55659547691E+02  0.26637232594E+02 -0.43314256320E+02  0.75390000730E+02  0.00000000000E+00 0. -1.
         11    1    1    2    0    0  0.21047996613E+02  0.23572623800E+02  0.18553738953E+02  0.36645981818E+02  0.00000000000E+00 0.  1.
<mgrwt>
<rscale>  0 0.13093201E+03</rscale>
<asrwt>0</asrwt>
<pdfrwt beam="2">  1        2 0.14614844E-01 0.13906994E+03</pdfrwt>
<pdfrwt beam="1">  1       -2 0.34680142E-01 0.13906994E+03</pdfrwt>
<totfact> 0.30262072E+03</totfact>
</mgrwt>
</event>
<event>
 7    1  0.6387485E-006  0.1529474E+03  0.7546771E-02  0.1203638E+00
         -4   -1    0    0    0  501 -0.00000000000E+00  0.00000000000E+00  0.28078164064E+02  0.28078164064E+02  0.00000000000E+00 0.  1.
          4   -1    0    0  501    0  0.00000000000E+00 -0.00000000000E+00 -0.72357626208E+03  0.72357626208E+03  0.00000000000E+00 0. -1.
         23    2    1    2    0    0  0.37044236823E+02  0.78670871569E+02 -0.37312425755E+03  0.40325504774E+03  0.12582344947E+03 0.  0.
          5    1    3    3  502    0 -0.30191483651E+02 -0.17464889379E+02 -0.75101082088E+02  0.82938595219E+02  0.47000000000E+01 0. -1.
         -5    1    3    3    0  502  0.67235720474E+02  0.96135760949E+02 -0.29802317546E+03  0.32031645252E+03  0.47000000000E+01 0.  1.
        -11    1    1    2    0    0  0.41359916361E+01 -0.67344268345E+02 -0.28081573253E+03  0.28880760471E+03  0.00000000000E+00 0. -1.
         11    1    1    2    0    0 -0.41180228460E+02 -0.11326603224E+02 -0.41558107937E+02  0.59591773693E+02  0.00000000000E+00 0.  1.
<mgrwt>
<rscale>  0 0.14745300E+03</rscale>
<asrwt>0</asrwt>
<pdfrwt beam="2">  1        4 0.11131942E+00 0.15294745E+03</pdfrwt>
<pdfrwt beam="1">  1       -4 0.43197179E-02 0.15294745E+03</pdfrwt>
<totfact> 0.34194852E+02</totfact>
</mgrwt>
</event>
<event>
 7    1  0.6387485E-006  0.2163955E+03  0.7546771E-02  0.1140145E+00
         -2   -1    0    0    0  501 -0.00000000000E+00  0.00000000000E+00  0.12456730371E+03  0.12456730371E+03  0.00000000000E+00 0.  1.
          2   -1    0    0  501    0  0.00000000000E+00 -0.00000000000E+00 -0.41681156254E+03  0.41681156254E+03  0.00000000000E+00 0. -1.
         23    2    1    2    0    0  0.54324618032E+02 -0.16807550725E+03 -0.39555753650E+02  0.21998111428E+03  0.12500597078E+03 0.  0.
          5    1    3    3  502    0  0.62438989557E+02 -0.15392380474E+03  0.11113433609E+02  0.16654357835E+03  0.47000000000E+01 0. -1.
         -5    1    3    3    0  502 -0.81143715256E+01 -0.14151702515E+02 -0.50669187258E+02  0.53437535935E+02  0.47000000000E+01 0. -1.
        -11    1    1    2    0    0 -0.31184075030E+02  0.14861345025E+03 -0.24800511961E+03  0.29080052181E+03  0.00000000000E+00 0. -1.
         11    1    1    2    0    0 -0.23140543001E+02  0.19462057001E+02 -0.46833855594E+01  0.30597230159E+02  0.00000000000E+00 0.  1.
<mgrwt>
<rscale>  0 0.21180455E+03</rscale>
<asrwt>0</asrwt>
<pdfrwt beam="2">  1        2 0.64124855E-01 0.21639555E+03</pdfrwt>
<pdfrwt beam="1">  1       -2 0.19164201E-01 0.21639555E+03</pdfrwt>
<totfact> 0.17160289E+03</totfact>
</mgrwt>
</event>
<event>
 7    1  0.6387485E-006  0.1357815E+03  0.7546771E-02  0.1231159E+00
         -3   -1    0    0    0  501 -0.00000000000E+00  0.00000000000E+00  0.75898402038E+02  0.75898402038E+02  0.00000000000E+00 0.  1.
          3   -1    0    0  501    0  0.00000000000E+00 -0.00000000000E+00 -0.19248809215E+03  0.19248809215E+03  0.00000000000E+00 0. -1.
         23    2    1    2    0    0 -0.52999313034E+02  0.19651871022E+01 -0.71893050486E+02  0.15363992227E+03  0.12499530337E+03 0.  0.
          5    1    3    3  502    0 -0.61259595712E+02 -0.13053485489E+02  0.15305188634E+02  0.64648823263E+02  0.47000000000E+01 0.  1.
         -5    1    3    3    0  502  0.82602826785E+01  0.15018672591E+02 -0.87198239119E+02  0.88991099003E+02  0.47000000000E+01 0.  1.
        -11    1    1    2    0    0  0.26954018695E+02 -0.36470028654E+02 -0.54009286795E+02  0.70523649749E+02  0.00000000000E+00 0.  1.
         11    1    1    2    0    0  0.26045294339E+02  0.34504841552E+02  0.93126471728E+01  0.44222922168E+02  0.00000000000E+00 0. -1.
<mgrwt>
<rscale>  0 0.12753582E+03</rscale>
<asrwt>0</asrwt>
<pdfrwt beam="2">  1        3 0.29613553E-01 0.13578150E+03</pdfrwt>
<pdfrwt beam="1">  1       -3 0.11676677E-01 0.13578150E+03</pdfrwt>
<totfact> 0.14388674E+03</totfact>
</mgrwt>
</event>
<event>
 7    1  0.6387485E-006  0.2926710E+03  0.7546771E-02  0.1090584E+00
          1   -1    0    0  501    0  0.00000000000E+00  0.00000000000E+00  0.27821998011E+03  0.27821998011E+03  0.00000000000E+00 0. -1.
         -1   -1    0    0    0  501 -0.00000000000E+00 -0.00000000000E+00 -0.29510629521E+03  0.29510629521E+03  0.00000000000E+00 0.  1.
         23    2    1    2    0    0 -0.26438429389E+03  0.11448065727E+02 -0.63473292581E+01  0.29273982744E+03  0.12500481959E+03 0.  0.
          5    1    3    3  502    0 -0.25970685811E+03 -0.19770763510E+02 -0.94653071412E+01  0.26067262472E+03  0.47000000000E+01 0.  1.
         -5    1    3    3    0  502 -0.46774357734E+01  0.31218829236E+02  0.31179778830E+01  0.32067202722E+02  0.47000000000E+01 0.  1.
        -11    1    1    2    0    0  0.23236264429E+03 -0.35558403451E+02 -0.28260108329E+02  0.23676028434E+03  0.00000000000E+00 0.  1.
         11    1    1    2    0    0  0.32021649598E+02  0.24110337724E+02  0.17721122488E+02  0.43826163536E+02  0.00000000000E+00 0. -1.
<mgrwt>
<rscale>  0 0.28955083E+03</rscale>
<asrwt>0</asrwt>
<pdfrwt beam="1">  1        1 0.42803074E-01 0.29267101E+03</pdfrwt>
<pdfrwt beam="2">  1       -1 0.45400969E-01 0.29267101E+03</pdfrwt>
<totfact> 0.47530622E+02</totfact>
</mgrwt>
</event>
<event>
 7    1  0.6387485E-006  0.1325707E+03  0.7546771E-02  0.1237493E+00
         -2   -1    0    0    0  501 -0.00000000000E+00  0.00000000000E+00  0.24154394162E+02  0.24154394162E+02  0.00000000000E+00 0.  1.
          2   -1    0    0  501    0  0.00000000000E+00 -0.00000000000E+00 -0.55886246829E+03  0.55886246829E+03  0.00000000000E+00 0. -1.
         23    2    1    2    0    0 -0.69905057138E+01  0.43541456788E+02 -0.29768021388E+03  0.32586574998E+03  0.12502100482E+03 0.  0.
          5    1    3    3  502    0  0.48688982955E+02  0.91611675625E+01 -0.21304197285E+03  0.21877732114E+03  0.47000000000E+01 0. -1.
         -5    1    3    3    0  502 -0.55679488668E+02  0.34380289226E+02 -0.84638241029E+02  0.10708842883E+03  0.47000000000E+01 0. -1.
        -11    1    1    2    0    0 -0.36949859724E+02 -0.39500460488E+02 -0.10801354455E+03  0.12079943840E+03  0.00000000000E+00 0.  1.
         11    1    1    2    0    0  0.43940365437E+02 -0.40409963000E+01 -0.12901431571E+03  0.13635167407E+03  0.00000000000E+00 0. -1.
<mgrwt>
<rscale>  0 0.12346201E+03</rscale>
<asrwt>0</asrwt>
<pdfrwt beam="2">  1        2 0.85978832E-01 0.13257065E+03</pdfrwt>
<pdfrwt beam="1">  1       -2 0.37160610E-02 0.13257065E+03</pdfrwt>
<totfact> 0.15900196E+04</totfact>
</mgrwt>
</event>
<event>
 7    1  0.6387485E-006  0.1256104E+03  0.7546771E-02  0.1250271E+00
         -1   -1    0    0    0  501 -0.00000000000E+00  0.00000000000E+00  0.32280371000E+03  0.32280371000E+03  0.00000000000E+00 0.  1.
          1   -1    0    0  501    0  0.00000000000E+00 -0.00000000000E+00 -0.36417944695E+02  0.36417944695E+02  0.00000000000E+00 0. -1.
         23    2    1    2    0    0  0.10027157192E+02 -0.72246249608E+01  0.17997471663E+03  0.21947409953E+03  0.12500097060E+03 0.  0.
          5    1    3    3  502    0  0.49502357716E+02 -0.38522459689E+02  0.51161508490E+02  0.81080535709E+02  0.47000000000E+01 0.  1.
         -5    1    3    3    0  502 -0.39475200524E+02  0.31297834728E+02  0.12881320814E+03  0.13839356382E+03  0.47000000000E+01 0.  1.
        -11    1    1    2    0    0  0.55832548401E+01 -0.39023548247E+02  0.32090584943E+02  0.50831247225E+02  0.00000000000E+00 0.  1.
         11    1    1    2    0    0 -0.15610412032E+02  0.46248173208E+02  0.74320463728E+02  0.88916307940E+02  0.00000000000E+00 0. -1.
<mgrwt>
<rscale>  0 0.11575405E+03</rscale>
<asrwt>0</asrwt>
<pdfrwt beam="2">  1        1 0.56027609E-02 0.12561044E+03</pdfrwt>
<pdfrwt beam="1">  1       -1 0.49662107E-01 0.12561044E+03</pdfrwt>
<totfact> 0.55952686E+03</totfact>
</mgrwt>
</event>
<event>
 7    1  0.6387485E-006  0.1438722E+03  0.7546771E-02  0.1219156E+00
         -2   -1    0    0    0  501 -0.00000000000E+00  0.00000000000E+00  0.21021659051E+03  0.21021659051E+03  0.00000000000E+00 0. -1.
          2   -1    0    0  501    0  0.00000000000E+00 -0.00000000000E+00 -0.10682025436E+03  0.10682025436E+03  0.00000000000E+00 0.  1.
         23    2    1    2    0    0 -0.70358878376E+02  0.11119770530E+02  0.13645345636E+03  0.19828958488E+03  0.12500077063E+03 0.  0.
          5    1    3    3  502    0 -0.10091024268E+03 -0.64610612625E+01  0.12517567404E+03  0.16098342077E+03  0.47000000000E+01 0. -1.
         -5    1    3    3    0  502  0.30551364299E+02  0.17580831792E+02  0.11277782313E+02  0.37306164114E+02  0.47000000000E+01 0. -1.
        -11    1    1    2    0    0  0.75993449451E+02  0.16633837690E+02 -0.35866090486E+01  0.77875237915E+02  0.00000000000E+00 0.  1.
         11    1    1    2    0    0 -0.56345710752E+01 -0.27753608219E+02 -0.29470511163E+02  0.40872022076E+02  0.00000000000E+00 0. -1.
<mgrwt>
<rscale>  0 0.13575617E+03</rscale>
<asrwt>0</asrwt>
<pdfrwt beam="2">  1        2 0.16433885E-01 0.14387221E+03</pdfrwt>
<pdfrwt beam="1">  1       -2 0.32341014E-01 0.14387221E+03</pdfrwt>
<totfact> 0.30048771E+03</totfact>
</mgrwt>
</event>
<event>
 7    1  0.6387485E-006  0.1795303E+03  0.7546771E-02  0.1173993E+00
          1   -1    0    0  501    0  0.00000000000E+00  0.00000000000E+00  0.56103471397E+03  0.56103471397E+03  0.00000000000E+00 0. -1.
         -1   -1    0    0    0  501 -0.00000000000E+00 -0.00000000000E+00 -0.50741363658E+02  0.50741363658E+02  0.00000000000E+00 0.  1.
         23    2    1    2    0    0 -0.90091672286E+02  0.92146166386E+02  0.25662697388E+03  0.31319088276E+03  0.12499479959E+03 0.  0.
          5    1    3    3  502    0 -0.68527253483E+02  0.30802269477E+02  0.23131504119E+03  0.24325604321E+03  0.47000000000E+01 0. -1.
         -5    1    3    3    0  502 -0.21564418803E+02  0.61343896909E+02  0.25311932684E+02  0.69934839547E+02  0.47000000000E+01 0. -1.
        -11    1    1    2    0    0 -0.87177969540E+01 -0.38809632466E+02  0.10498417705E+03  0.11226693630E+03  0.00000000000E+00 0. -1.
         11    1    1    2    0    0  0.98809469240E+02 -0.53336533920E+02  0.14868219938E+03  0.18631825856E+03  0.00000000000E+00 0.  1.
<mgrwt>
<rscale>  0 0.17374966E+03</rscale>
<asrwt>0</asrwt>
<pdfrwt beam="1">  1        1 0.86313029E-01 0.17953029E+03</pdfrwt>
<pdfrwt beam="2">  1       -1 0.78063640E-02 0.17953029E+03</pdfrwt>
<totfact> 0.33952200E+03</totfact>
</mgrwt>
</event>
<event>
 7    1  0.6387485E-006  0.1264990E+03  0.7546771E-02  0.1247934E+00
         -1   -1    0    0    0  501 -0.00000000000E+00  0.00000000000E+00  0.21453650106E+02  0.21453650106E+02  0.00000000000E+00 0.  1.
          1   -1    0    0  501    0  0.00000000000E+00 -0.00000000000E+00 -0.56122881439E+03  0.56122881439E+03  0.00000000000E+00 0. -1.
         23    2    1    2    0    0  0.16591826349E+00 -0.19430535624E+02 -0.31526037423E+03  0.33969266600E+03  0.12499772210E+03 0.  0.
          5    1    3    3  502    0 -0.27976421300E+02  0.35669334641E+02 -0.51669344647E+02  0.68896972058E+02  0.47000000000E+01 0.  1.
         -5    1    3    3    0  502  0.28142339563E+02 -0.55099870265E+02 -0.26359102958E+03  0.27079569394E+03  0.47000000000E+01 0.  1.
        -11    1    1    2    0    0 -0.19432412426E+02  0.31157566739E+02 -0.21565219158E+03  0.21875621214E+03  0.00000000000E+00 0. -1.
         11    1    1    2    0    0  0.19266494163E+02 -0.11727031115E+02 -0.88625984791E+01  0.24233586361E+02  0.00000000000E+00 0.  1.
<mgrwt>
<rscale>  0 0.11711478E+03</rscale>
<asrwt>0</asrwt>
<pdfrwt beam="2">  1        1 0.86342878E-01 0.12649903E+03</pdfrwt>
<pdfrwt beam="1">  1       -1 0.33005622E-02 0.12649903E+03</pdfrwt>
<totfact> 0.11956181E+04</totfact>
</mgrwt>
</event>
<event>
 7    1  0.6387485E-006  0.2000008E+03  0.7546771E-02  0.1154625E+00
         -2   -1    0    0    0  501 -0.00000000000E+00  0.00000000000E+00  0.58771221944E+02  0.58771221944E+02  0.00000000000E+00 0. -1.
          2   -1    0    0  501    0  0.00000000000E+00 -0.00000000000E+00 -0.61645172946E+03  0.61645172946E+03  0.00000000000E+00 0.  1.
         23    2    1    2    0    0 -0.68061993003E+02  0.14051064966E+03 -0.25639273444E+03  0.32517311212E+03  0.12499856403E+03 0.  0.
          5    1    3    3  502    0 -0.11069226426E+02  0.30974103240E+02  0.72512937942E+01  0.34008735744E+02  0.47000000000E+01 0.  1.
         -5    1    3    3    0  502 -0.56992766577E+02  0.10953654642E+03 -0.26364402823E+03  0.29116437637E+03  0.47000000000E+01 0.  1.
        -11    1    1    2    0    0  0.55694675079E+02 -0.10078963778E+03 -0.28117393085E+03  0.30384079269E+03  0.00000000000E+00 0.  1.
         11    1    1    2    0    0  0.12367317923E+02 -0.39721011886E+02 -0.20113842225E+02  0.46209046592E+02  0.00000000000E+00 0. -1.
<mgrwt>
<rscale>  0 0.19431657E+03</rscale>
<asrwt>0</asrwt>
<pdfrwt beam="2">  1        2 0.94838730E-01 0.20000080E+03</pdfrwt>
<pdfrwt beam="1">  1       -2 0.90417263E-02 0.20000080E+03</pdfrwt>
<totfact> 0.37583579E+03</totfact>
</mgrwt>
</event>
<event>
 7    1  0.6387485E-006  0.1833360E+03  0.7546771E-02  0.1169799E+00
         -3   -1    0    0    0  501 -0.00000000000E+00  0.00000000000E+00  0.50123823083E+02  0.50123823083E+02  0.00000000000E+00 0.  1.
          3   -1    0    0  501    0  0.00000000000E+00 -0.00000000000E+00 -0.64619188771E+03  0.64619188771E+03  0.00000000000E+00 0. -1.
         23    2    1    2    0    0  0.61729569876E+01 -0.13397076939E+03 -0.21886418156E+03  0.28550589815E+03  0.12500326180E+03 0.  0.
          5    1    3    3  502    0  0.11652735039E+01 -0.15259795633E+03 -0.21732527413E+03  0.26559340902E+03  0.47000000000E+01 0.  1.
         -5    1    3    3    0  502  0.50076834838E+01  0.18627186945E+02 -0.15389074322E+01  0.19912489132E+02  0.47000000000E+01 0.  1.
        -11    1    1    2    0    0 -0.23057864966E+02  0.23978553110E+01 -0.11089087395E+03  0.11328813165E+03  0.00000000000E+00 0.  1.
         11    1    1    2    0    0  0.16884907979E+02  0.13157291408E+03 -0.26631300912E+03  0.29752168099E+03  0.00000000000E+00 0. -1.
<mgrwt>
<rscale>  0 0.17795267E+03</rscale>
<asrwt>0</asrwt>
<pdfrwt beam="2">  1        3 0.99414135E-01 0.18333600E+03</pdfrwt>
<pdfrwt beam="1">  1       -3 0.77113575E-02 0.18333600E+03</pdfrwt>
<totfact> 0.25191546E+02</totfact>
</mgrwt>
</event>
<event>
 7    1  0.6387485E-006  0.1476891E+03  0.7546771E-02  0.1212167E+00
          1   -1    0    0  501    0  0.00000000000E+00  0.00000000000E+00  0.48387836538E+03  0.48387836538E+03  0.00000000000E+00 0. -1.
         -1   -1    0    0    0  501 -0.00000000000E+00 -0.00000000000E+00 -0.52955589470E+02  0.52955589470E+02  0.00000000000E+00 0.  1.
         23    2    1    2    0    0  0.44055151211E+00  0.78664023176E+02  0.86025062389E+02  0.17091631224E+03  0.12499540712E+03 0.  0.
          5    1    3    3  502    0 -0.48627951933E+02  0.80329292202E+02  0.36026536764E+02  0.10068502493E+03  0.47000000000E+01 0.  1.
         -5    1    3    3    0  502  0.49068503445E+02 -0.16652690262E+01  0.49998525625E+02  0.70231287301E+02  0.47000000000E+01 0.  1.
        -11    1    1    2    0    0 -0.34935858535E+02 -0.53552042046E+02  0.11048118676E+03  0.12764963003E+03  0.00000000000E+00 0.  1.
         11    1    1    2    0    0  0.34495307023E+02 -0.25111981130E+02  0.23441652675E+03  0.23826801258E+03  0.00000000000E+00 0. -1.
<mgrwt>
<rscale>  0 0.14086720E+03</rscale>
<asrwt>0</asrwt>
<pdfrwt beam="1">  1        1 0.74442823E-01 0.14768911E+03</pdfrwt>
<pdfrwt beam="2">  1       -1 0.81470141E-02 0.14768911E+03</pdfrwt>
<totfact> 0.38414655E+03</totfact>
</mgrwt>
</event>
<event>
 7    1  0.6387485E-006  0.2173563E+03  0.7546771E-02  0.1139606E+00
         -2   -1    0    0    0  501 -0.00000000000E+00  0.00000000000E+00  0.54606179518E+02  0.54606179518E+02  0.00000000000E+00 0.  1.
          2   -1    0    0  501    0  0.00000000000E+00 -0.00000000000E+00 -0.83362821110E+03  0.83362821110E+03  0.00000000000E+00 0. -1.
         23    2    1    2    0    0  0.13127437706E+03 -0.11994243864E+03 -0.30701220041E+03  0.37616520887E+03  0.12499848999E+03 0.  0.
          5    1    3    3  502    0  0.69694216255E+01  0.18505022662E+02 -0.80336997765E+02  0.82868159817E+02  0.47000000000E+01 0. -1.
         -5    1    3    3    0  502  0.12430495544E+03 -0.13844746130E+03 -0.22667520265E+03  0.29329704905E+03  0.47000000000E+01 0. -1.
        -11    1    1    2    0    0 -0.91272906085E+02  0.24697695245E+02 -0.24693991516E+03  0.26442398007E+03  0.00000000000E+00 0.  1.
         11    1    1    2    0    0 -0.40001470979E+02  0.95244743391E+02 -0.22506991600E+03  0.24764520168E+03  0.00000000000E+00 0. -1.
<mgrwt>
<rscale>  0 0.21249365E+03</rscale>
<asrwt>0</asrwt>
<pdfrwt beam="2">  1        2 0.12825050E+00 0.21735633E+03</pdfrwt>
<pdfrwt beam="1">  1       -2 0.84009504E-02 0.21735633E+03</pdfrwt>
<totfact> 0.29253924E+03</totfact>
</mgrwt>
</event>
<event>
 7    1  0.6387485E-006  0.1281293E+03  0.7546771E-02  0.1244771E+00
          2   -1    0    0  501    0  0.00000000000E+00  0.00000000000E+00  0.60711872308E+02  0.60711872308E+02  0.00000000000E+00 0. -1.
         -2   -1    0    0    0  501 -0.00000000000E+00 -0.00000000000E+00 -0.28068473517E+03  0.28068473517E+03  0.00000000000E+00 0.  1.
         23    2    1    2    0    0  0.24589367084E+02  0.13722936565E+02 -0.20942403476E+03  0.24551079137E+03  0.12499666549E+03 0.  0.
          5    1    3    3  502    0 -0.45936637119E+02  0.29864086627E+02 -0.10256688970E+03  0.11637910105E+03  0.47000000000E+01 0. -1.
         -5    1    3    3    0  502  0.70526004203E+02 -0.16141150062E+02 -0.10685714506E+03  0.12913169032E+03  0.47000000000E+01 0. -1.
        -11    1    1    2    0    0 -0.49961952012E+02  0.19052112159E+02 -0.16716583403E+01  0.53497421136E+02  0.00000000000E+00 0. -1.
         11    1    1    2    0    0  0.25372584928E+02 -0.32775048724E+02 -0.88771697605E+01  0.42388394965E+02  0.00000000000E+00 0.  1.
<mgrwt>
<rscale>  0 0.11899095E+03</rscale>
<asrwt>0</asrwt>
<pdfrwt beam="1">  1        2 0.93402879E-02 0.12812932E+03</pdfrwt>
<pdfrwt beam="2">  1       -2 0.43182268E-01 0.12812932E+03</pdfrwt>
<totfact> 0.34196549E+03</totfact>
</mgrwt>
</event>
<event>
 7    1  0.6387485E-006  0.1353053E+03  0.7546771E-02  0.1232504E+00
         -3   -1    0    0    0  501 -0.00000000000E+00  0.00000000000E+00  0.13122357669E+03  0.13122357669E+03  0.00000000000E+00 0.  1.
          3   -1    0    0  501    0  0.00000000000E+00 -0.00000000000E+00 -0.11175849860E+03  0.11175849860E+03  0.00000000000E+00 0. -1.
         23    2    1    2    0    0  0.30450032909E+02  0.41916519360E+02  0.29915403148E+02  0.13857291305E+03  0.12499328696E+03 0.  0.
          5    1    3    3  502    0  0.58874181923E+01  0.65191602524E+02 -0.27986374092E+02  0.71343772450E+02  0.47000000000E+01 0.  1.
         -5    1    3    3    0  502  0.24562614717E+02 -0.23275083164E+02  0.57901777239E+02  0.67229140598E+02  0.47000000000E+01 0.  1.
        -11    1    1    2    0    0 -0.49185737703E+02 -0.24395277331E+02 -0.37996182827E+02  0.66768826999E+02  0.00000000000E+00 0. -1.
         11    1    1    2    0    0  0.18735704794E+02 -0.17521242029E+02  0.27545857770E+02  0.37640335236E+02  0.00000000000E+00 0.  1.
<mgrwt>
<rscale>  0 0.12665553E+03</rscale>
<asrwt>0</asrwt>
<pdfrwt beam="2">  1        3 0.17193615E-01 0.13530529E+03</pdfrwt>
<pdfrwt beam="1">  1       -3 0.20188243E-01 0.13530529E+03</pdfrwt>
<totfact> 0.14848737E+03</totfact>
</mgrwt>
</event>
<event>
 7    1  0.6387485E-006  0.1550876E+03  0.7546771E-02  0.1202584E+00
         -1   -1    0    0    0  501 -0.00000000000E+00  0.00000000000E+00  0.89576490339E+02  0.89576490339E+02  0.00000000000E+00 0.  1.
          1   -1    0    0  501    0  0.00000000000E+00 -0.00000000000E+00 -0.23604804580E+03  0.23604804580E+03  0.00000000000E+00 0. -1.
         23    2    1    2    0    0 -0.91674725815E+02  0.59819946399E+01 -0.46505854321E+02  0.16191037951E+03  0.12494853698E+03 0.  0.
          5    1    3    3  502    0 -0.10677135217E+03  0.66967768736E+01 -0.74014271151E+02  0.13017361790E+03  0.47000000000E+01 0.  1.
         -5    1    3    3    0  502  0.15096626351E+02 -0.71478223370E+00  0.27508416830E+02  0.31736761607E+02  0.47000000000E+01 0.  1.
        -11    1    1    2    0    0  0.85862554035E+02  0.74811709013E+01 -0.28527419523E+02  0.90786341308E+02  0.00000000000E+00 0.  1.
         11    1    1    2    0    0  0.58121717797E+01 -0.13463165541E+02 -0.71438281617E+02  0.72927815321E+02  0.00000000000E+00 0. -1.
<mgrwt>
<rscale>  0 0.14829490E+03</rscale>
<asrwt>0</asrwt>
<pdfrwt beam="2">  1        1 0.36315083E-01 0.15508764E+03</pdfrwt>
<pdfrwt beam="1">  1       -1 0.13780999E-01 0.15508764E+03</pdfrwt>
<totfact> 0.42301059E+03</totfact>
</mgrwt>
</event>
<event>
 7    1  0.6387485E-006  0.1880635E+03  0.7546771E-02  0.1164460E+00
          2   -1    0    0  501    0  0.00000000000E+00  0.00000000000E+00  0.76363347219E+02  0.76363347219E+02  0.00000000000E+00 0. -1.
         -2   -1    0    0    0  501 -0.00000000000E+00 -0.00000000000E+00 -0.44355765146E+03  0.44355765146E+03  0.00000000000E+00 0.  1.
         23    2    1    2    0    0 -0.30147214637E+02  0.13723635137E+03 -0.25095938336E+03  0.31360563611E+03  0.12500084888E+03 0.  0.
          5    1    3    3  502    0 -0.56488773417E+02  0.81258098547E+02 -0.22593713948E+03  0.24670537306E+03  0.47000000000E+01 0. -1.
         -5    1    3    3    0  502  0.26341558780E+02  0.55978252820E+02 -0.25022243875E+02  0.66900263051E+02  0.47000000000E+01 0. -1.
        -11    1    1    2    0    0  0.34998690886E+02 -0.37381634466E+02  0.22886214010E+01  0.51259464950E+02  0.00000000000E+00 0.  1.
         11    1    1    2    0    0 -0.48514762487E+01 -0.99854716901E+02 -0.11852354229E+03  0.15505589762E+03  0.00000000000E+00 0. -1.
<mgrwt>
<rscale>  0 0.18349823E+03</rscale>
<asrwt>0</asrwt>
<pdfrwt beam="1">  1        2 0.11748207E-01 0.18806351E+03</pdfrwt>
<pdfrwt beam="2">  1       -2 0.68239638E-01 0.18806351E+03</pdfrwt>
<totfact> 0.10445195E+03</totfact>
</mgrwt>
</event>
<event>
 7    1  0.6387485E-006  0.1410587E+03  0.7546771E-02  0.1223364E+00
         -1   -1    0    0    0  501 -0.00000000000E+00  0.00000000000E+00  0.24427329215E+03  0.24427329215E+03  0.00000000000E+00 0.  1.
          1   -1    0    0  501    0  0.00000000000E+00 -0.00000000000E+00 -0.69850701330E+02  0.69850701330E+02  0.00000000000E+00 0. -1.
         23    2    1    2    0    0 -0.40837723441E+02 -0.51060902528E+02  0.13839312801E+03  0.19761129273E+03  0.12499051848E+03 0.  0.
          5    1    3    3  502    0  0.22367852120E+02 -0.20662541624E+02 -0.10831152439E+02  0.32659842283E+02  0.47000000000E+01 0.  1.
         -5    1    3    3    0  502 -0.63205575561E+02 -0.30398360904E+02  0.14922428045E+03  0.16495145045E+03  0.47000000000E+01 0.  1.
        -11    1    1    2    0    0  0.16968655596E+02  0.12514839644E+02  0.61148342848E+02  0.64681344429E+02  0.00000000000E+00 0.  1.
         11    1    1    2    0    0  0.23869067844E+02  0.38546062883E+02 -0.25118880042E+02  0.51831356321E+02  0.00000000000E+00 0. -1.
<mgrwt>
<rscale>  0 0.13279658E+03</rscale>
<asrwt>0</asrwt>
<pdfrwt beam="2">  1        1 0.10746262E-01 0.14105873E+03</pdfrwt>
<pdfrwt beam="1">  1       -1 0.37580506E-01 0.14105873E+03</pdfrwt>
<totfact> 0.38610866E+03</totfact>
</mgrwt>
</event>
<event>
 7    1  0.6387485E-006  0.1691328E+03  0.7546771E-02  0.1185333E+00
          2   -1    0    0  501    0  0.00000000000E+00  0.00000000000E+00  0.67743153194E+03  0.67743153194E+03  0.00000000000E+00 0. -1.
         -2   -1    0    0    0  501 -0.00000000000E+00 -0.00000000000E+00 -0.36689117701E+02  0.36689117701E+02  0.00000000000E+00 0.  1.
         23    2    1    2    0    0  0.10416439757E+03 -0.46169856316E+02  0.33084921110E+03  0.37157383109E+03  0.12499613638E+03 0.  0.
          5    1    3    3  502    0  0.11563339937E+03 -0.44924598718E+02  0.33591928911E+03  0.35812450547E+03  0.47000000000E+01 0. -1.
         -5    1    3    3    0  502 -0.11469001799E+02 -0.12452575982E+01 -0.50700780052E+01  0.13449325623E+02  0.47000000000E+01 0. -1.
        -11    1    1    2    0    0 -0.36461615610E+02  0.65940966057E+02  0.15439831434E+03  0.17180366669E+03  0.00000000000E+00 0.  1.
         11    1    1    2    0    0 -0.67702781963E+02 -0.19771109741E+02  0.15549488879E+03  0.17074315185E+03  0.00000000000E+00 0. -1.
<mgrwt>
<rscale>  0 0.16301588E+03</rscale>
<asrwt>0</asrwt>
<pdfrwt beam="1">  1        2 0.10422023E+00 0.16913282E+03</pdfrwt>
<pdfrwt beam="2">  1       -2 0.56444801E-02 0.16913282E+03</pdfrwt>
<totfact> 0.69169546E+03</totfact>
</mgrwt>
</event>
<event>
 6    1  0.6387485E-006  0.1448645E+03  0.7546771E-02  0.1222280E+00
         -2   -1    0    0    0  501 -0.00000000000E+00  0.00000000000E+00  0.63038489683E+02  0.63038489683E+02  0.00000000000E+00 0.  1.
          2   -1    0    0  501    0  0.00000000000E+00 -0.00000000000E+00 -0.36318560846E+03  0.36318560846E+03  0.00000000000E+00 0. -1.
          5    1    1    2  502    0 -0.30500585246E+02  0.10833102739E+02 -0.85274336999E+02  0.91331508068E+02  0.47000000000E+01 0. -1.
         -5    1    1    2    0  502  0.21285782127E+02  0.42142726660E+02  0.38281581213E+02  0.60964443664E+02  0.47000000000E+01 0.  1.
        -11    1    1    2    0    0  0.21123764540E+02  0.68455961351E+01 -0.12123511392E+02  0.25299311123E+02  0.00000000000E+00 0.  1.
         11    1    1    2    0    0 -0.11908961421E+02 -0.59821425534E+02 -0.24103085160E+03  0.24862883529E+03  0.00000000000E+00 0. -1.
<mgrwt>
<rscale>  0 0.13355061E+03</rscale>
<asrwt>0</asrwt>
<pdfrwt beam="2">  1        2 0.55874710E-01 0.14486455E+03</pdfrwt>
<pdfrwt beam="1">  1       -2 0.96982290E-02 0.14486455E+03</pdfrwt>
<totfact> 0.59449210E+03</totfact>
</mgrwt>
</event>
<event>
 7    1  0.6387485E-006  0.1908204E+03  0.7546771E-02  0.1161970E+00
          1   -1    0    0  501    0  0.00000000000E+00  0.00000000000E+00  0.15875172770E+03  0.15875172770E+03  0.00000000000E+00 0. -1.
         -1   -1    0    0    0  501 -0.00000000000E+00 -0.00000000000E+00 -0.58057896633E+03  0.58057896633E+03  0.00000000000E+00 0.  1.
         23    2    1    2    0    0  0.15763968600E+01 -0.14303717622E+03 -0.51054278251E+03  0.54503792503E+03  0.12629445015E+03 0.  0.
          5    1    3    3  502    0  0.30318439770E+02 -0.30868277166E+01 -0.27600516055E+02  0.41383750216E+02  0.47000000000E+01 0. -1.
         -5    1    3    3    0  502 -0.28742042910E+02 -0.13995034850E+03 -0.48294226645E+03  0.50365417481E+03  0.47000000000E+01 0.  1.
        -11    1    1    2    0    0 -0.24396371443E+02  0.14666518353E+03  0.68969201216E+02  0.16389816874E+03  0.00000000000E+00 0. -1.
         11    1    1    2    0    0  0.22819974583E+02 -0.36280073128E+01  0.19746342660E+02  0.30394600269E+02  0.00000000000E+00 0.  1.
<mgrwt>
<rscale>  0 0.18616143E+03</rscale>
<asrwt>0</asrwt>
<pdfrwt beam="1">  1        1 0.24423343E-01 0.19082035E+03</pdfrwt>
<pdfrwt beam="2">  1       -1 0.89319840E-01 0.19082035E+03</pdfrwt>
<totfact> 0.25750422E+02</totfact>
</mgrwt>
</event>
<event>
 7    1  0.6387485E-006  0.1402171E+03  0.7546771E-02  0.1221418E+00
          1   -1    0    0  501    0  0.00000000000E+00  0.00000000000E+00  0.44178122687E+02  0.44178122687E+02  0.00000000000E+00 0. -1.
         -1   -1    0    0    0  501 -0.00000000000E+00 -0.00000000000E+00 -0.39436724609E+03  0.39436724609E+03  0.00000000000E+00 0.  1.
         23    2    1    2    0    0 -0.34312818994E+02 -0.53464314822E+02 -0.23715909385E+03  0.27550909584E+03  0.12500009435E+03 0.  0.
          5    1    3    3  502    0 -0.58173910441E+02 -0.82428968258E+02 -0.18879509120E+03  0.21411308957E+03  0.47000000000E+01 0. -1.
         -5    1    3    3    0  502  0.23861091447E+02  0.28964653435E+02 -0.48364002649E+02  0.61396006270E+02  0.47000000000E+01 0. -1.
        -11    1    1    2    0    0  0.32377165331E+02  0.49388882175E+01  0.70550278757E+01  0.33502938230E+02  0.00000000000E+00 0. -1.
         11    1    1    2    0    0  0.19356536626E+01  0.48525426605E+02 -0.12008505743E+03  0.12953333471E+03  0.00000000000E+00 0.  1.
<mgrwt>
<rscale>  0 0.13415454E+03</rscale>
<asrwt>0</asrwt>
<pdfrwt beam="1">  1        1 0.67966345E-02 0.14021707E+03</pdfrwt>
<pdfrwt beam="2">  1       -1 0.60671882E-01 0.14021707E+03</pdfrwt>
<totfact> 0.29876457E+03</totfact>
</mgrwt>
</event>
<event>
 7    1  0.6387485E-006  0.1576384E+03  0.7546771E-02  0.1205743E+00
          2   -1    0    0  501    0  0.00000000000E+00  0.00000000000E+00  0.17784201353E+03  0.17784201353E+03  0.00000000000E+00 0. -1.
         -2   -1    0    0    0  501 -0.00000000000E+00 -0.00000000000E+00 -0.11172311482E+03  0.11172311482E+03  0.00000000000E+00 0.  1.
         23    2    1    2    0    0 -0.76625150129E+02  0.57908182939E+02  0.20841370683E+01  0.15765215333E+03  0.12500034616E+03 0.  0.
          5    1    3    3  502    0 -0.90535859333E+02  0.59653744005E+02 -0.37955301709E+02  0.11496958696E+03  0.47000000000E+01 0.  1.
         -5    1    3    3    0  502  0.13910709205E+02 -0.17455610663E+01  0.40039438778E+02  0.42682566367E+02  0.47000000000E+01 0.  1.
        -11    1    1    2    0    0  0.33867227841E+02 -0.62331553736E+02  0.29728667632E+02  0.76915573143E+02  0.00000000000E+00 0.  1.
         11    1    1    2    0    0  0.42757922288E+02  0.44233707968E+01  0.34306094010E+02  0.54997401882E+02  0.00000000000E+00 0. -1.
<mgrwt>
<rscale>  0 0.14579086E+03</rscale>
<asrwt>0</asrwt>
<pdfrwt beam="1">  1        2 0.27360310E-01 0.15763838E+03</pdfrwt>
<pdfrwt beam="2">  1       -2 0.17188171E-01 0.15763838E+03</pdfrwt>
<totfact> 0.51018188E+03</totfact>
</mgrwt>
</event>
<event>
 6    1  0.6387485E-006  0.2026366E+03  0.7546771E-02  0.1179032E+00
         -1   -1    0    0    0  501 -0.00000000000E+00  0.00000000000E+00  0.33847599819E+03  0.33847599819E+03  0.00000000000E+00 0.  1.
          1   -1    0    0  501    0  0.00000000000E+00 -0.00000000000E+00 -0.17252006657E+03  0.17252006657E+03  0.00000000000E+00 0. -1.
          5    1    1    2  502    0 -0.21107373117E+02 -0.81269630638E+02  0.89089600108E+02  0.12251253369E+03  0.47000000000E+01 0. -1.
         -5    1    1    2    0  502  0.43030676803E+01  0.11441086091E+03  0.20047014717E+03  0.23090849138E+03  0.47000000000E+01 0.  1.
        -11    1    1    2    0    0 -0.32897399346E+02 -0.74472566177E+01 -0.79408529524E+02  0.86275228635E+02  0.00000000000E+00 0.  1.
         11    1    1    2    0    0  0.49701704782E+02 -0.25693973657E+02 -0.44195286135E+02  0.71299811060E+02  0.00000000000E+00 0. -1.
<mgrwt>
<rscale>  0 0.16886906E+03</rscale>
<asrwt>0</asrwt>
<pdfrwt beam="2">  1        1 0.26541549E-01 0.20263656E+03</pdfrwt>
<pdfrwt beam="1">  1       -1 0.52073230E-01 0.20263656E+03</pdfrwt>
<totfact> 0.67546527E+02</totfact>
</mgrwt>
</event>
<event>
 7    1  0.6387485E-006  0.1421586E+03  0.7546771E-02  0.1215522E+00
         -2   -1    0    0    0  501 -0.00000000000E+00  0.00000000000E+00  0.38752799633E+02  0.38752799633E+02  0.00000000000E+00 0.  1.
          2   -1    0    0  501    0  0.00000000000E+00 -0.00000000000E+00 -0.49907233066E+03  0.49907233066E+03  0.00000000000E+00 0. -1.
         23    2    1    2    0    0  0.34768842993E+02  0.58110672660E+02 -0.17655805860E+03  0.22667558017E+03  0.12499339130E+03 0.  0.
          5    1    3    3  502    0 -0.25060436123E+02  0.37076666944E+02 -0.15197468856E+03  0.15849637426E+03  0.47000000000E+01 0.  1.
         -5    1    3    3    0  502  0.59829279116E+02  0.21034005716E+02 -0.24583370038E+02  0.68179205909E+02  0.47000000000E+01 0.  1.
        -11    1    1    2    0    0  0.33352687613E+02 -0.15984872322E+02 -0.39595322391E+02  0.54182169294E+02  0.00000000000E+00 0.  1.
         11    1    1    2    0    0 -0.68121530607E+02 -0.42125800338E+02 -0.24416615004E+03  0.25696738083E+03  0.00000000000E+00 0. -1.
<mgrwt>
<rscale>  0 0.13838263E+03</rscale>
<asrwt>0</asrwt>
<pdfrwt beam="2">  1        2 0.76780355E-01 0.14215861E+03</pdfrwt>
<pdfrwt beam="1">  1       -2 0.59619694E-02 0.14215861E+03</pdfrwt>
<totfact> 0.89231396E+03</totfact>
</mgrwt>
</event>
<event>
 6    1  0.6387485E-006  0.2198273E+03  0.7546771E-02  0.1175767E+00
          2   -1    0    0  501    0  0.00000000000E+00  0.00000000000E+00  0.59428347764E+02  0.59428347764E+02  0.00000000000E+00 0. -1.
         -2   -1    0    0    0  501 -0.00000000000E+00 -0.00000000000E+00 -0.49492855948E+03  0.49492855948E+03  0.00000000000E+00 0.  1.
          5    1    1    2  502    0 -0.83919321284E+01  0.82067474383E+02 -0.66824832693E+02  0.10626920128E+03  0.47000000000E+01 0. -1.
         -5    1    1    2    0  502  0.23922324048E+02 -0.10111573008E+03 -0.34787605496E+03  0.36309297442E+03  0.47000000000E+01 0.  1.
        -11    1    1    2    0    0  0.25704562048E+02  0.23217813505E+02 -0.25881080652E+02  0.43239122444E+02  0.00000000000E+00 0.  1.
         11    1    1    2    0    0 -0.41234953968E+02 -0.41695578120E+01  0.50817565918E+01  0.41755609098E+02  0.00000000000E+00 0. -1.
<mgrwt>
<rscale>  0 0.17201124E+03</rscale>
<asrwt>0</asrwt>
<pdfrwt beam="1">  1        2 0.91428225E-02 0.21982726E+03</pdfrwt>
<pdfrwt beam="2">  1       -2 0.76142858E-01 0.21982726E+03</pdfrwt>
<totfact> 0.11303425E+03</totfact>
</mgrwt>
</event>
<event>
 7    1  0.6387485E-006  0.1556040E+03  0.7546771E-02  0.1202772E+00
         -1   -1    0    0    0  501 -0.00000000000E+00  0.00000000000E+00  0.22275277203E+03  0.22275277203E+03  0.00000000000E+00 0.  1.
          1   -1    0    0  501    0  0.00000000000E+00 -0.00000000000E+00 -0.15556271179E+03  0.15556271179E+03  0.00000000000E+00 0. -1.
         23    2    1    2    0    0 -0.79901584692E+02  0.46879795821E+02  0.15780160954E+03  0.22161664510E+03  0.12502244166E+03 0.  0.
          5    1    3    3  502    0 -0.86366801408E+02  0.80785128309E+02  0.10418214408E+03  0.15767520568E+03  0.47000000000E+01 0.  1.
         -5    1    3    3    0  502  0.64652167160E+01 -0.33905332488E+02  0.53619465467E+02  0.63941439421E+02  0.47000000000E+01 0.  1.
        -11    1    1    2    0    0  0.11374261548E+02 -0.51165998408E+01  0.17850500523E+02  0.21775991105E+02  0.00000000000E+00 0.  1.
         11    1    1    2    0    0  0.68527323144E+02 -0.41763195980E+02 -0.10846204983E+03  0.13492284761E+03  0.00000000000E+00 0. -1.
<mgrwt>
<rscale>  0 0.14814449E+03</rscale>
<asrwt>0</asrwt>
<pdfrwt beam="2">  1        1 0.23932725E-01 0.15560395E+03</pdfrwt>
<pdfrwt beam="1">  1       -1 0.34269657E-01 0.15560395E+03</pdfrwt>
<totfact> 0.16157804E+03</totfact>
</mgrwt>
</event>
<event>
 7    1  0.6387485E-006  0.1431399E+03  0.7546771E-02  0.1219858E+00
         -2   -1    0    0    0  501 -0.00000000000E+00  0.00000000000E+00  0.20953915305E+02  0.20953915305E+02  0.00000000000E+00 0.  1.
          2   -1    0    0  501    0  0.00000000000E+00 -0.00000000000E+00 -0.92724349067E+03  0.92724349067E+03  0.00000000000E+00 0. -1.
         23    2    1    2    0    0  0.33825639553E+02  0.60989334562E+02 -0.31500890677E+03  0.34600525621E+03  0.12500061263E+03 0.  0.
          5    1    3    3  502    0  0.66281156619E+02 -0.59614733873E+01 -0.17685773284E+03  0.18902242870E+03  0.47000000000E+01 0.  1.
         -5    1    3    3    0  502 -0.32455517067E+02  0.66950807950E+02 -0.13815117393E+03  0.15698282751E+03  0.47000000000E+01 0.  1.
        -11    1    1    2    0    0  0.29229124732E+02 -0.56679997291E+01 -0.17979874781E+03  0.18224724324E+03  0.00000000000E+00 0.  1.
         11    1    1    2    0    0 -0.63054764285E+02 -0.55321334833E+02 -0.41148192077E+03  0.41994490652E+03  0.00000000000E+00 0. -1.
<mgrwt>
<rscale>  0 0.13525631E+03</rscale>
<asrwt>0</asrwt>
<pdfrwt beam="2">  1        2 0.14265283E+00 0.14313988E+03</pdfrwt>
<pdfrwt beam="1">  1       -2 0.32236796E-02 0.14313988E+03</pdfrwt>
<totfact> 0.10704129E+04</totfact>
</mgrwt>
</event>
<event>
 7    1  0.6387485E-006  0.1933773E+03  0.7546771E-02  0.1160189E+00
         -1   -1    0    0    0  501 -0.00000000000E+00  0.00000000000E+00  0.10673632138E+03  0.10673632138E+03  0.00000000000E+00 0.  1.
          1   -1    0    0  501    0  0.00000000000E+00 -0.00000000000E+00 -0.40602417090E+03  0.40602417090E+03  0.00000000000E+00 0. -1.
         23    2    1    2    0    0 -0.11407306616E+03 -0.91820595577E+02 -0.34533362533E+02  0.19643661046E+03  0.12629767459E+03 0.  0.
          5    1    3    3  502    0  0.78054198874E+00 -0.63269107670E+02 -0.44617703227E+02  0.77565576594E+02  0.47000000000E+01 0. -1.
         -5    1    3    3    0  502 -0.11485360815E+03 -0.28551487907E+02  0.10084340694E+02  0.11887103387E+03  0.47000000000E+01 0.  1.
        -11    1    1    2    0    0  0.94854836315E+02  0.18472902841E+02 -0.16178593152E+03  0.18844992902E+03  0.00000000000E+00 0. -1.
         11    1    1    2    0    0  0.19218229843E+02  0.73347692736E+02 -0.10296855547E+03  0.12787395280E+03  0.00000000000E+00 0.  1.
<mgrwt>
<rscale>  0 0.18809727E+03</rscale>
<asrwt>0</asrwt>
<pdfrwt beam="2">  1        1 0.62465256E-01 0.19337732E+03</pdfrwt>
<pdfrwt beam="1">  1       -1 0.16420973E-01 0.19337732E+03</pdfrwt>
<totfact> 0.16395956E+03</totfact>
</mgrwt>
</event>
<event>
 7    1  0.6387485E-006  0.1531048E+03  0.7546771E-02  0.1201067E+00
         -1   -1    0    0    0  501 -0.00000000000E+00  0.00000000000E+00  0.12260807212E+03  0.12260807212E+03  0.00000000000E+00 0.  1.
          1   -1    0    0  501    0  0.00000000000E+00 -0.00000000000E+00 -0.32397971459E+03  0.32397971459E+03  0.00000000000E+00 0. -1.
         23    2    1    2    0    0 -0.10462078442E+03  0.38901653399E+01  0.48441020602E+02  0.16058523107E+03  0.11171589879E+03 0.  0.
          5    1    3    3  502    0 -0.65190063862E+02 -0.15257059802E+02 -0.27695777946E+02  0.72606256040E+02  0.47000000000E+01 0. -1.
         -5    1    3    3    0  502 -0.39430720560E+02  0.19147225142E+02  0.76136798548E+02  0.87978975032E+02  0.47000000000E+01 0.  1.
        -11    1    1    2    0    0 -0.14253568605E+02 -0.79821784352E+01 -0.12571150750E+02  0.20613423339E+02  0.00000000000E+00 0. -1.
         11    1    1    2    0    0  0.11887435303E+03  0.40920130953E+01 -0.23724151232E+03  0.26538913230E+03  0.00000000000E+00 0.  1.
<mgrwt>
<rscale>  0 0.14951747E+03</rscale>
<asrwt>0</asrwt>
<pdfrwt beam="2">  1        1 0.49843034E-01 0.15310481E+03</pdfrwt>
<pdfrwt beam="1">  1       -1 0.18862780E-01 0.15310481E+03</pdfrwt>
<totfact> 0.17368106E+03</totfact>
</mgrwt>
</event>
<event>
 7    1  0.6387485E-006  0.1260668E+03  0.7546771E-02  0.1248404E+00
          1   -1    0    0  501    0  0.00000000000E+00  0.00000000000E+00  0.31584403718E+03  0.31584403718E+03  0.00000000000E+00 0. -1.
         -1   -1    0    0    0  501 -0.00000000000E+00 -0.00000000000E+00 -0.58088718430E+02  0.58088718430E+02  0.00000000000E+00 0.  1.
         23    2    1    2    0    0  0.29330522991E+01 -0.16099090960E+02  0.32441507973E+02  0.13017411551E+03  0.12500026154E+03 0.  0.
          5    1    3    3  502    0  0.41244781806E+02 -0.11716657869E+02  0.65996355163E+02  0.78841746509E+02  0.47000000000E+01 0. -1.
         -5    1    3    3    0  502 -0.38311729507E+02 -0.43824330909E+01 -0.33554847190E+02  0.51332369004E+02  0.47000000000E+01 0. -1.
        -11    1    1    2    0    0 -0.39154369011E+02 -0.12971274560E+02  0.14730382913E+03  0.15296972462E+03  0.00000000000E+00 0.  1.
         11    1    1    2    0    0  0.36221316712E+02  0.29070365520E+02  0.78009981654E+02  0.90788915477E+02  0.00000000000E+00 0. -1.
<mgrwt>
<rscale>  0 0.11683958E+03</rscale>
<asrwt>0</asrwt>
<pdfrwt beam="1">  1        1 0.48591389E-01 0.12606684E+03</pdfrwt>
<pdfrwt beam="2">  1       -1 0.89367262E-02 0.12606684E+03</pdfrwt>
<totfact> 0.56728447E+03</totfact>
</mgrwt>
</event>
<event>
 7    1  0.6387485E-006  0.1370750E+03  0.7546771E-02  0.1228800E+00
         -2   -1    0    0    0  501 -0.00000000000E+00  0.00000000000E+00  0.35932008580E+03  0.35932008580E+03  0.00000000000E+00 0.  1.
          2   -1    0    0  501    0  0.00000000000E+00 -0.00000000000E+00 -0.46608930773E+02  0.46608930773E+02  0.00000000000E+00 0. -1.
         23    2    1    2    0    0 -0.18959983944E+02 -0.52962381293E+02  0.23826713695E+03  0.27488320973E+03  0.12500022246E+03 0.  0.
          5    1    3    3  502    0  0.23291741274E+02 -0.63044164899E+02  0.21515175138E+03  0.22545384908E+03  0.47000000000E+01 0.  1.
         -5    1    3    3    0  502 -0.42251725218E+02  0.10081783605E+02  0.23115385568E+02  0.49429360653E+02  0.47000000000E+01 0.  1.
        -11    1    1    2    0    0  0.19710452368E+02 -0.29590805566E+01  0.72387680292E+02  0.75081518021E+02  0.00000000000E+00 0.  1.
         11    1    1    2    0    0 -0.75046842375E+00  0.55921461850E+02  0.20563377806E+01  0.55964288822E+02  0.00000000000E+00 0. -1.
<mgrwt>
<rscale>  0 0.12909850E+03</rscale>
<asrwt>0</asrwt>
<pdfrwt beam="2">  1        2 0.71706049E-02 0.13707498E+03</pdfrwt>
<pdfrwt beam="1">  1       -2 0.55280012E-01 0.13707498E+03</pdfrwt>
<totfact> 0.29406789E+03</totfact>
</mgrwt>
</event>
<event>
 7    1  0.6387485E-006  0.1618123E+03  0.7546771E-02  0.1194118E+00
         -1   -1    0    0    0  501 -0.00000000000E+00  0.00000000000E+00  0.41304718208E+02  0.41304718208E+02  0.00000000000E+00 0.  1.
          1   -1    0    0  501    0  0.00000000000E+00 -0.00000000000E+00 -0.57012574875E+03  0.57012574875E+03  0.00000000000E+00 0. -1.
         23    2    1    2    0    0 -0.87213595877E+02 -0.54317700207E+02 -0.21658690458E+03  0.27035736514E+03  0.12500637499E+03 0.  0.
          5    1    3    3  502    0 -0.35119161647E+02 -0.49172190483E+02 -0.15560489671E+02  0.62573785810E+02  0.47000000000E+01 0.  1.
         -5    1    3    3    0  502 -0.52094434230E+02 -0.51455097233E+01 -0.20102641491E+03  0.20778357933E+03  0.47000000000E+01 0.  1.
        -11    1    1    2    0    0 -0.87775354965E+01  0.15127903827E+02 -0.72259472761E+01  0.18923871635E+02  0.00000000000E+00 0.  1.
         11    1    1    2    0    0  0.95991131374E+02  0.39189796379E+02 -0.30500817869E+03  0.32214923018E+03  0.00000000000E+00 0. -1.
<mgrwt>
<rscale>  0 0.15529082E+03</rscale>
<asrwt>0</asrwt>
<pdfrwt beam="2">  1        1 0.87711657E-01 0.16181229E+03</pdfrwt>
<pdfrwt beam="1">  1       -1 0.63545718E-02 0.16181229E+03</pdfrwt>
<totfact> 0.45130137E+03</totfact>
</mgrwt>
</event>
<event>
 7    1  0.6387485E-006  0.1567552E+03  0.7546771E-02  0.1200060E+00
          1   -1    0    0  501    0  0.00000000000E+00  0.00000000000E+00  0.48644954589E+03  0.48644954589E+03  0.00000000000E+00 0. -1.
         -1   -1    0    0    0  501 -0.00000000000E+00 -0.00000000000E+00 -0.90577207482E+02  0.90577207482E+02  0.00000000000E+00 0.  1.
         23    2    1    2    0    0  0.91844951748E+02 -0.22770441801E+02 -0.28989237122E+01  0.15678199726E+03  0.12497280794E+03 0.  0.
          5    1    3    3  502    0  0.41040046753E+02 -0.68507835260E+02  0.23458077730E+02  0.83366542091E+02  0.47000000000E+01 0.  1.
         -5    1    3    3    0  502  0.50804904995E+02  0.45737393459E+02 -0.26357001443E+02  0.73415455165E+02  0.47000000000E+01 0.  1.
        -11    1    1    2    0    0 -0.64825956830E+02  0.57948444508E+02  0.23490220063E+03  0.25047848363E+03  0.00000000000E+00 0.  1.
         11    1    1    2    0    0 -0.27018994918E+02 -0.35178002707E+02  0.16386906149E+03  0.16976627249E+03  0.00000000000E+00 0. -1.
<mgrwt>
<rscale>  0 0.15033699E+03</rscale>
<asrwt>0</asrwt>
<pdfrwt beam="1">  1        1 0.74838390E-01 0.15675519E+03</pdfrwt>
<pdfrwt beam="2">  1       -1 0.13934955E-01 0.15675519E+03</pdfrwt>
<totfact> 0.16752470E+03</totfact>
</mgrwt>
</event>
<event>
 7    1  0.6387485E-006  0.1344903E+03  0.7546771E-02  0.1226995E+00
         -1   -1    0    0    0  501 -0.00000000000E+00  0.00000000000E+00  0.14681119151E+03  0.14681119151E+03  0.00000000000E+00 0.  1.
          1   -1    0    0  501    0  0.00000000000E+00 -0.00000000000E+00 -0.10910892201E+03  0.10910892201E+03  0.00000000000E+00 0. -1.
         23    2    1    2    0    0 -0.20265365165E+02 -0.72800955486E+02  0.23656262301E+02  0.13655492765E+03  0.11125181065E+03 0.  0.
          5    1    3    3  502    0 -0.62215328042E+02 -0.55262234838E+02 -0.34368447512E+01  0.83418004918E+02  0.47000000000E+01 0. -1.
         -5    1    3    3    0  502  0.41949962877E+02 -0.17538720647E+02  0.27093107052E+02  0.53136922728E+02  0.47000000000E+01 0.  1.
        -11    1    1    2    0    0  0.40377073811E+02 -0.16735787573E+01 -0.24236199941E+01  0.40484353636E+02  0.00000000000E+00 0. -1.
         11    1    1    2    0    0 -0.20111708647E+02  0.74474534243E+02  0.16469627198E+02  0.78880832243E+02  0.00000000000E+00 0.  1.
<mgrwt>
<rscale>  0 0.13031085E+03</rscale>
<asrwt>0</asrwt>
<pdfrwt beam="2">  1        1 0.16785988E-01 0.13449026E+03</pdfrwt>
<pdfrwt beam="1">  1       -1 0.22586337E-01 0.13449026E+03</pdfrwt>
<totfact> 0.50532416E+03</totfact>
</mgrwt>
</event>
<event>
 6    1  0.6387485E-006  0.2433225E+03  0.7546771E-02  0.1154259E+00
         -2   -1    0    0    0  501 -0.00000000000E+00  0.00000000000E+00  0.77829305073E+03  0.77829305073E+03  0.00000000000E+00 0.  1.
          2   -1    0    0  501    0  0.00000000000E+00 -0.00000000000E+00 -0.43196903683E+02  0.43196903683E+02  0.00000000000E+00 0. -1.
          5    1    1    2  502    0 -0.20579529054E+02  0.12336202370E+03  0.21560869355E+03  0.24930083161E+03  0.47000000000E+01 0. -1.
         -5    1    1    2    0  502 -0.69795354946E+01 -0.97702298492E+02  0.41984737766E+03  0.43114772825E+03  0.47000000000E+01 0.  1.
        -11    1    1    2    0    0  0.51775908596E+02 -0.94588788629E+01  0.20112824826E+02  0.56344838475E+02  0.00000000000E+00 0.  1.
         11    1    1    2    0    0 -0.24216844048E+02 -0.16200846346E+02  0.79527251016E+02  0.84696556082E+02  0.00000000000E+00 0. -1.
<mgrwt>
<rscale>  0 0.19473489E+03</rscale>
<asrwt>0</asrwt>
<pdfrwt beam="2">  1        2 0.66456781E-02 0.24332247E+03</pdfrwt>
<pdfrwt beam="1">  1       -2 0.11973738E+00 0.24332247E+03</pdfrwt>
<totfact> 0.60148051E+02</totfact>
</mgrwt>
</event>
<event>
 7    1  0.6387485E-006  0.1316210E+03  0.7546771E-02  0.1237719E+00
          2   -1    0    0  501    0  0.00000000000E+00  0.00000000000E+00  0.29781879725E+03  0.29781879725E+03  0.00000000000E+00 0. -1.
         -2   -1    0    0    0  501 -0.00000000000E+00 -0.00000000000E+00 -0.65368869779E+02  0.65368869779E+02  0.00000000000E+00 0.  1.
         23    2    1    2    0    0 -0.37646485863E+02 -0.16800637900E+02  0.27427842658E+02  0.13444845172E+03  0.12499832113E+03 0.  0.
          5    1    3    3  502    0 -0.26487798926E+02 -0.34638378137E+02 -0.42621606849E+02  0.61156455933E+02  0.47000000000E+01 0. -1.
         -5    1    3    3    0  502 -0.11158686937E+02  0.17837740236E+02  0.70049449507E+02  0.73291995791E+02  0.47000000000E+01 0. -1.
        -11    1    1    2    0    0 -0.17721745338E+02  0.16516279171E+02  0.14527537986E+03  0.14728130814E+03  0.00000000000E+00 0. -1.
         11    1    1    2    0    0  0.55368231202E+02  0.28435872935E+00  0.59746704961E+02  0.81457907167E+02  0.00000000000E+00 0.  1.
<mgrwt>
<rscale>  0 0.12331989E+03</rscale>
<asrwt>0</asrwt>
<pdfrwt beam="1">  1        2 0.45818276E-01 0.13162105E+03</pdfrwt>
<pdfrwt beam="2">  1       -2 0.10056749E-01 0.13162105E+03</pdfrwt>
<totfact> 0.68913481E+03</totfact>
</mgrwt>
</event>
<event>
 7    1  0.6387485E-006  0.1418315E+03  0.7546771E-02  0.1221800E+00
         -2   -1    0    0    0  501 -0.00000000000E+00  0.00000000000E+00  0.17776925056E+03  0.17776925056E+03  0.00000000000E+00 0.  1.
          2   -1    0    0  501    0  0.00000000000E+00 -0.00000000000E+00 -0.91056563378E+02  0.91056563378E+02  0.00000000000E+00 0. -1.
         23    2    1    2    0    0  0.48731187518E+02 -0.46022513166E+02  0.48655787004E+02  0.14994514401E+03  0.12499344082E+03 0.  0.
          5    1    3    3  502    0  0.27768918738E+02 -0.22034180825E+02 -0.41164309766E+02  0.54527134263E+02  0.47000000000E+01 0. -1.
         -5    1    3    3    0  502  0.20962268780E+02 -0.23988332341E+02  0.89820096770E+02  0.95418009750E+02  0.47000000000E+01 0. -1.
        -11    1    1    2    0    0 -0.61424653691E+01  0.34392018951E+02 -0.24243206623E+02  0.42523804107E+02  0.00000000000E+00 0. -1.
         11    1    1    2    0    0 -0.42588722149E+02  0.11630494215E+02  0.62300106799E+02  0.76356865815E+02  0.00000000000E+00 0.  1.
<mgrwt>
<rscale>  0 0.13388677E+03</rscale>
<asrwt>0</asrwt>
<pdfrwt beam="2">  1        2 0.14008702E-01 0.14183145E+03</pdfrwt>
<pdfrwt beam="1">  1       -2 0.27349115E-01 0.14183145E+03</pdfrwt>
<totfact> 0.48925955E+03</totfact>
</mgrwt>
</event>
<event>
 7    1  0.6387485E-006  0.1918404E+03  0.7546771E-02  0.1162936E+00
          4   -1    0    0  501    0  0.00000000000E+00  0.00000000000E+00  0.20368040382E+03  0.20368040382E+03  0.00000000000E+00 0.  1.
         -4   -1    0    0    0  501 -0.00000000000E+00 -0.00000000000E+00 -0.15748975544E+03  0.15748975544E+03  0.00000000000E+00 0. -1.
         23    2    1    2    0    0 -0.14331056995E+03 -0.25295681719E+02  0.26567549316E+02  0.19367125810E+03  0.12499972225E+03 0.  0.
          5    1    3    3  502    0 -0.15903074336E+03 -0.33177658590E+02  0.12975810396E+01  0.16252786862E+03  0.47000000000E+01 0. -1.
         -5    1    3    3    0  502  0.15720173403E+02  0.78819768704E+01  0.25269968277E+02  0.31143389474E+02  0.47000000000E+01 0. -1.
        -11    1    1    2    0    0  0.88935852310E+02  0.50141912085E+02 -0.64014872468E+01  0.10229748879E+03  0.00000000000E+00 0. -1.
         11    1    1    2    0    0  0.54374717644E+02 -0.24846230366E+02  0.26024586308E+02  0.65201412368E+02  0.00000000000E+00 0.  1.
<mgrwt>
<rscale>  0 0.18512187E+03</rscale>
<asrwt>0</asrwt>
<pdfrwt beam="1">  1        4 0.31335447E-01 0.19184035E+03</pdfrwt>
<pdfrwt beam="2">  1       -4 0.24229193E-01 0.19184035E+03</pdfrwt>
<totfact> 0.27450150E+02</totfact>
</mgrwt>
</event>
<event>
 7    1  0.6387485E-006  0.1355007E+03  0.7546771E-02  0.1231793E+00
          1   -1    0    0  501    0  0.00000000000E+00  0.00000000000E+00  0.72432946498E+03  0.72432946498E+03  0.00000000000E+00 0. -1.
         -1   -1    0    0    0  501 -0.00000000000E+00 -0.00000000000E+00 -0.31318083971E+02  0.31318083971E+02  0.00000000000E+00 0.  1.
         23    2    1    2    0    0  0.15710469451E+01  0.52279072515E+02  0.14815919845E+03  0.20077748379E+03  0.12499952119E+03 0.  0.
          5    1    3    3  502    0  0.11431567615E+02  0.34984315846E+01  0.15019887860E+03  0.15074718204E+03  0.47000000000E+01 0. -1.
         -5    1    3    3    0  502 -0.98605206700E+01  0.48780640930E+02 -0.20396801479E+01  0.50030301744E+02  0.47000000000E+01 0. -1.
        -11    1    1    2    0    0 -0.55344611528E+01 -0.78372547110E+02  0.40685755164E+03  0.41437417117E+03  0.00000000000E+00 0. -1.
         11    1    1    2    0    0  0.39634142077E+01  0.26093474595E+02  0.13799463092E+03  0.14049589400E+03  0.00000000000E+00 0.  1.
<mgrwt>
<rscale>  0 0.12711992E+03</rscale>
<asrwt>0</asrwt>
<pdfrwt beam="1">  1        1 0.11143529E+00 0.13550074E+03</pdfrwt>
<pdfrwt beam="2">  1       -1 0.48181673E-02 0.13550074E+03</pdfrwt>
<totfact> 0.48397808E+03</totfact>
</mgrwt>
</event>
<event>
 7    1  0.6387485E-006  0.1357119E+03  0.7546771E-02  0.1231160E+00
          4   -1    0    0  501    0  0.00000000000E+00  0.00000000000E+00  0.18003698122E+03  0.18003698122E+03  0.00000000000E+00 0. -1.
         -4   -1    0    0    0  501 -0.00000000000E+00 -0.00000000000E+00 -0.81037236965E+02  0.81037236965E+02  0.00000000000E+00 0.  1.
         23    2    1    2    0    0 -0.52136045032E+02  0.86651449872E+01  0.53909380616E+02  0.14602718947E+03  0.12499786725E+03 0.  0.
          5    1    3    3  502    0  0.25052596025E+02 -0.17329586714E+02  0.56545883027E+02  0.64400885324E+02  0.47000000000E+01 0. -1.
         -5    1    3    3    0  502 -0.77188641056E+02  0.25994731701E+02 -0.26365024103E+01  0.81626304151E+02  0.47000000000E+01 0. -1.
        -11    1    1    2    0    0 -0.24376917732E+02 -0.15699537996E+02  0.13130778907E+02  0.31829655451E+02  0.00000000000E+00 0. -1.
         11    1    1    2    0    0  0.76512962764E+02  0.70343930087E+01  0.31959584731E+02  0.83217373259E+02  0.00000000000E+00 0.  1.
<mgrwt>
<rscale>  0 0.12753479E+03</rscale>
<asrwt>0</asrwt>
<pdfrwt beam="1">  1        4 0.27697997E-01 0.13571190E+03</pdfrwt>
<pdfrwt beam="2">  1       -4 0.12467267E-01 0.13571190E+03</pdfrwt>
<totfact> 0.10618303E+03</totfact>
</mgrwt>
</event>
<event>
 7    1  0.6387485E-006  0.1389648E+03  0.7546771E-02  0.1225111E+00
         -2   -1    0    0    0  501 -0.00000000000E+00  0.00000000000E+00  0.12622408210E+03  0.12622408210E+03  0.00000000000E+00 0. -1.
          2   -1    0    0  501    0  0.00000000000E+00 -0.00000000000E+00 -0.12460131734E+03  0.12460131734E+03  0.00000000000E+00 0.  1.
         23    2    1    2    0    0 -0.33149046724E+02 -0.50867198762E+02 -0.28476208122E+01  0.13899394380E+03  0.12499950504E+03 0.  0.
          5    1    3    3  502    0  0.45598399299E+02 -0.39920669833E+01  0.76027875330E+01  0.46637356226E+02  0.47000000000E+01 0.  1.
         -5    1    3    3    0  502 -0.78747446023E+02 -0.46875131779E+02 -0.10450408345E+02  0.92356587578E+02  0.47000000000E+01 0.  1.
        -11    1    1    2    0    0  0.89597378758E+01  0.28516352190E+02 -0.44022926134E+02  0.53211627211E+02  0.00000000000E+00 0.  1.
         11    1    1    2    0    0  0.24189308848E+02  0.22350846573E+02  0.48493311703E+02  0.58619828428E+02  0.00000000000E+00 0. -1.
<mgrwt>
<rscale>  0 0.13159298E+03</rscale>
<asrwt>0</asrwt>
<pdfrwt beam="2">  1        2 0.19169434E-01 0.13896477E+03</pdfrwt>
<pdfrwt beam="1">  1       -2 0.19419089E-01 0.13896477E+03</pdfrwt>
<totfact> 0.61369311E+03</totfact>
</mgrwt>
</event>
<event>
 7    1  0.6387485E-006  0.1326861E+03  0.7546771E-02  0.1237195E+00
         -1   -1    0    0    0  501 -0.00000000000E+00  0.00000000000E+00  0.69045719614E+02  0.69045719614E+02  0.00000000000E+00 0.  1.
          1   -1    0    0  501    0  0.00000000000E+00 -0.00000000000E+00 -0.20549135449E+03  0.20549135449E+03  0.00000000000E+00 0. -1.
         23    2    1    2    0    0 -0.32036265291E+02  0.30905992071E+02 -0.48361695587E+02  0.14122481353E+03  0.12499636681E+03 0.  0.
          5    1    3    3  502    0  0.28893779745E+02  0.35105667029E+02  0.19597644798E+02  0.49733449982E+02  0.47000000000E+01 0.  1.
         -5    1    3    3    0  502 -0.60930045036E+02 -0.41996749581E+01 -0.67959340385E+02  0.91491363545E+02  0.47000000000E+01 0.  1.
        -11    1    1    2    0    0 -0.22788136728E+02 -0.30510614078E+02 -0.61610125670E+02  0.72429305754E+02  0.00000000000E+00 0. -1.
         11    1    1    2    0    0  0.54824402018E+02 -0.39537799320E+00 -0.26473813621E+02  0.60882954824E+02  0.00000000000E+00 0.  1.
<mgrwt>
<rscale>  0 0.12364928E+03</rscale>
<asrwt>0</asrwt>
<pdfrwt beam="2">  1        1 0.31614054E-01 0.13268607E+03</pdfrwt>
<pdfrwt beam="1">  1       -1 0.10622418E-01 0.13268607E+03</pdfrwt>
<totfact> 0.74431395E+03</totfact>
</mgrwt>
</event>
<event>
 7    1  0.6387485E-006  0.1259254E+03  0.7546771E-02  0.1248816E+00
          1   -1    0    0  501    0  0.00000000000E+00  0.00000000000E+00  0.45793403236E+03  0.45793403236E+03  0.00000000000E+00 0. -1.
         -1   -1    0    0    0  501 -0.00000000000E+00 -0.00000000000E+00 -0.30187280902E+02  0.30187280902E+02  0.00000000000E+00 0.  1.
         23    2    1    2    0    0  0.62865736514E+01 -0.14064426758E+02  0.15274880953E+03  0.19796315019E+03  0.12497952197E+03 0.  0.
          5    1    3    3  502    0  0.55664026952E+02 -0.35614129201E+02  0.54382970541E+02  0.85711420360E+02  0.47000000000E+01 0. -1.
         -5    1    3    3    0  502 -0.49377453301E+02  0.21549702443E+02  0.98365838985E+02  0.11225172983E+03  0.47000000000E+01 0. -1.
        -11    1    1    2    0    0 -0.18173941553E+02  0.47105169765E+02  0.21304510889E+03  0.21894612943E+03  0.00000000000E+00 0. -1.
         11    1    1    2    0    0  0.11887367902E+02 -0.33040743006E+02  0.61952833038E+02  0.71212033643E+02  0.00000000000E+00 0.  1.
<mgrwt>
<rscale>  0 0.11659886E+03</rscale>
<asrwt>0</asrwt>
<pdfrwt beam="1">  1        1 0.70451385E-01 0.12592541E+03</pdfrwt>
<pdfrwt beam="2">  1       -1 0.46441974E-02 0.12592541E+03</pdfrwt>
<totfact> 0.94517099E+03</totfact>
</mgrwt>
</event>
<event>
 7    1  0.6387485E-006  0.1415734E+03  0.7546771E-02  0.1223857E+00
         -1   -1    0    0    0  501 -0.00000000000E+00  0.00000000000E+00  0.18436386300E+03  0.18436386300E+03  0.00000000000E+00 0.  1.
          1   -1    0    0  501    0  0.00000000000E+00 -0.00000000000E+00 -0.86975308629E+02  0.86975308629E+02  0.00000000000E+00 0. -1.
         23    2    1    2    0    0  0.41632905008E+02  0.51872203787E+02  0.76325537839E+02  0.16083720052E+03  0.12497596984E+03 0.  0.
          5    1    3    3  502    0 -0.42705348091E+02  0.14075516098E+01  0.19399696188E+02  0.47161066244E+02  0.47000000000E+01 0. -1.
         -5    1    3    3    0  502  0.84338253099E+02  0.50464652177E+02  0.56925841651E+02  0.11367613427E+03  0.47000000000E+01 0. -1.
        -11    1    1    2    0    0 -0.21874394469E+02  0.16213312271E+02  0.28260454834E+02  0.39243011296E+02  0.00000000000E+00 0.  1.
         11    1    1    2    0    0 -0.19758510539E+02 -0.68085516058E+02 -0.71974383065E+01  0.71258959814E+02  0.00000000000E+00 0. -1.
<mgrwt>
<rscale>  0 0.13245536E+03</rscale>
<asrwt>0</asrwt>
<pdfrwt beam="2">  1        1 0.13380817E-01 0.14157336E+03</pdfrwt>
<pdfrwt beam="1">  1       -1 0.28363671E-01 0.14157336E+03</pdfrwt>
<totfact> 0.46733534E+03</totfact>
</mgrwt>
</event>
<event>
 7    1  0.6387485E-006  0.1274238E+03  0.7546771E-02  0.1246972E+00
         -1   -1    0    0    0  501 -0.00000000000E+00  0.00000000000E+00  0.12724228367E+03  0.12724228367E+03  0.00000000000E+00 0.  1.
          1   -1    0    0  501    0  0.00000000000E+00 -0.00000000000E+00 -0.95784269814E+02  0.95784269814E+02  0.00000000000E+00 0. -1.
         23    2    1    2    0    0  0.10604655424E+02 -0.22320950649E+02  0.26790956049E+02  0.13020977706E+03  0.12500458856E+03 0.  0.
          5    1    3    3  502    0 -0.36362434964E+02  0.35796589985E+02  0.17826562725E+01  0.51272706136E+02  0.47000000000E+01 0.  1.
         -5    1    3    3    0  502  0.46967090388E+02 -0.58117540634E+02  0.25008299776E+02  0.78937070927E+02  0.47000000000E+01 0.  1.
        -11    1    1    2    0    0 -0.17067677375E+02 -0.38824943272E+01  0.42718758383E+02  0.46165698208E+02  0.00000000000E+00 0.  1.
         11    1    1    2    0    0  0.64630219517E+01  0.26203444977E+02 -0.38051700578E+02  0.46651078211E+02  0.00000000000E+00 0. -1.
<mgrwt>
<rscale>  0 0.11768122E+03</rscale>
<asrwt>0</asrwt>
<pdfrwt beam="2">  1        1 0.14736042E-01 0.12742382E+03</pdfrwt>
<pdfrwt beam="1">  1       -1 0.19575736E-01 0.12742382E+03</pdfrwt>
<totfact> 0.74986660E+03</totfact>
</mgrwt>
</event>
<event>
 7    1  0.6387485E-006  0.2520910E+03  0.7546771E-02  0.1114540E+00
         -2   -1    0    0    0  501 -0.00000000000E+00  0.00000000000E+00  0.81701394990E+02  0.81701394990E+02  0.00000000000E+00 0.  1.
          2   -1    0    0  501    0  0.00000000000E+00 -0.00000000000E+00 -0.99680991349E+03  0.99680991349E+03  0.00000000000E+00 0. -1.
         23    2    1    2    0    0 -0.88502143759E+02 -0.20022928680E+03 -0.18946306370E+03  0.31535078680E+03  0.12500187791E+03 0.  0.
          5    1    3    3  502    0 -0.10778066624E+03 -0.14283522728E+03 -0.93922478517E+02  0.20214375117E+03  0.47000000000E+01 0.  1.
         -5    1    3    3    0  502  0.19278522476E+02 -0.57394059518E+02 -0.95540585186E+02  0.11320703562E+03  0.47000000000E+01 0.  1.
        -11    1    1    2    0    0  0.15628935163E+02  0.54084865146E+02 -0.84444867819E+02  0.10149074812E+03  0.00000000000E+00 0.  1.
         11    1    1    2    0    0  0.72873208597E+02  0.14614442166E+03 -0.64120058698E+03  0.66166977357E+03  0.00000000000E+00 0. -1.
<mgrwt>
<rscale>  0 0.24805528E+03</rscale>
<asrwt>0</asrwt>
<pdfrwt beam="2">  1        2 0.15335536E+00 0.25209099E+03</pdfrwt>
<pdfrwt beam="1">  1       -2 0.12569446E-01 0.25209099E+03</pdfrwt>
<totfact> 0.12105865E+03</totfact>
</mgrwt>
</event>
<event>
 7    1  0.6387485E-006  0.1699966E+03  0.7546771E-02  0.1184453E+00
          3   -1    0    0  501    0  0.00000000000E+00  0.00000000000E+00  0.63702350594E+02  0.63702350594E+02  0.00000000000E+00 0. -1.
         -3   -1    0    0    0  501 -0.00000000000E+00 -0.00000000000E+00 -0.41180345727E+03  0.41180345727E+03  0.00000000000E+00 0.  1.
         23    2    1    2    0    0  0.11515103898E+03  0.37834706562E+01 -0.23652927709E+03  0.29128152944E+03  0.12499901618E+03 0.  0.
          5    1    3    3  502    0  0.69340269988E+02 -0.58211678313E+02 -0.10467967424E+03  0.13847958959E+03  0.47000000000E+01 0.  1.
         -5    1    3    3    0  502  0.45810768989E+02  0.61995148969E+02 -0.13184960286E+03  0.15280193986E+03  0.47000000000E+01 0.  1.
        -11    1    1    2    0    0 -0.15398440463E+02 -0.19888120110E+02  0.91777290533E+01  0.26774614858E+02  0.00000000000E+00 0.  1.
         11    1    1    2    0    0 -0.99752598513E+02  0.16104649454E+02 -0.12074955864E+03  0.15744966356E+03  0.00000000000E+00 0. -1.
<mgrwt>
<rscale>  0 0.16381755E+03</rscale>
<asrwt>0</asrwt>
<pdfrwt beam="1">  1        3 0.98003612E-02 0.16999656E+03</pdfrwt>
<pdfrwt beam="2">  1       -3 0.63354381E-01 0.16999656E+03</pdfrwt>
<totfact> 0.44865245E+02</totfact>
</mgrwt>
</event>
<event>
 7    1  0.6387485E-006  0.1397076E+03  0.7546771E-02  0.1224300E+00
         -2   -1    0    0    0  501 -0.00000000000E+00  0.00000000000E+00  0.30312866797E+02  0.30312866797E+02  0.00000000000E+00 0. -1.
          2   -1    0    0  501    0  0.00000000000E+00 -0.00000000000E+00 -0.52433395097E+03  0.52433395097E+03  0.00000000000E+00 0.  1.
         23    2    1    2    0    0 -0.88828876764E+01  0.61756293878E+02 -0.25537006433E+03  0.29108773596E+03  0.12500181896E+03 0.  0.
          5    1    3    3  502    0  0.43034818363E+02 -0.11515811853E+02 -0.51438297002E+02  0.68209954645E+02  0.47000000000E+01 0. -1.
         -5    1    3    3    0  502 -0.51917706040E+02  0.73272105731E+02 -0.20393176732E+03  0.22287778131E+03  0.47000000000E+01 0. -1.
        -11    1    1    2    0    0 -0.52743248903E+01 -0.82158546703E+02 -0.14573065590E+03  0.16737762505E+03  0.00000000000E+00 0. -1.
         11    1    1    2    0    0  0.14157212567E+02  0.20402252825E+02 -0.92920363942E+02  0.96181456753E+02  0.00000000000E+00 0.  1.
<mgrwt>
<rscale>  0 0.13215028E+03</rscale>
<asrwt>0</asrwt>
<pdfrwt beam="2">  1        2 0.80666756E-01 0.13970755E+03</pdfrwt>
<pdfrwt beam="1">  1       -2 0.46635183E-02 0.13970755E+03</pdfrwt>
<totfact> 0.12220862E+04</totfact>
</mgrwt>
</event>
<event>
 7    1  0.6387485E-006  0.1468778E+03  0.7546771E-02  0.1214157E+00
          2   -1    0    0  501    0  0.00000000000E+00  0.00000000000E+00  0.58473235405E+03  0.58473235405E+03  0.00000000000E+00 0. -1.
         -2   -1    0    0    0  501 -0.00000000000E+00 -0.00000000000E+00 -0.30556711499E+02  0.30556711499E+02  0.00000000000E+00 0.  1.
         23    2    1    2    0    0 -0.29818781216E+02 -0.71137596785E+02  0.27517868403E+03  0.31192372354E+03  0.12499353493E+03 0.  0.
          5    1    3    3  502    0 -0.28925099796E+02  0.22239695997E+02  0.15688463613E+03  0.16114013942E+03  0.47000000000E+01 0.  1.
         -5    1    3    3    0  502 -0.89368141990E+00 -0.93377292782E+02  0.11829404789E+03  0.15078358412E+03  0.47000000000E+01 0.  1.
        -11    1    1    2    0    0  0.17088576429E+02  0.91693285246E+02  0.19861208040E+03  0.21942296252E+03  0.00000000000E+00 0.  1.
         11    1    1    2    0    0  0.12730204787E+02 -0.20555688461E+02  0.80384878124E+02  0.83942379482E+02  0.00000000000E+00 0. -1.
<mgrwt>
<rscale>  0 0.13938618E+03</rscale>
<asrwt>0</asrwt>
<pdfrwt beam="1">  1        2 0.89958816E-01 0.14687784E+03</pdfrwt>
<pdfrwt beam="2">  1       -2 0.47010330E-02 0.14687784E+03</pdfrwt>
<totfact> 0.10723329E+04</totfact>
</mgrwt>
</event>
<event>
 7    1  0.6387485E-006  0.1673932E+03  0.7546771E-02  0.1186909E+00
         -1   -1    0    0    0  501 -0.00000000000E+00  0.00000000000E+00  0.20064241768E+03  0.20064241768E+03  0.00000000000E+00 0.  1.
          1   -1    0    0  501    0  0.00000000000E+00 -0.00000000000E+00 -0.13294933309E+03  0.13294933309E+03  0.00000000000E+00 0. -1.
         23    2    1    2    0    0 -0.24918020592E+02  0.10851054916E+03  0.84036814905E+02  0.18730369886E+03  0.12500016928E+03 0.  0.
          5    1    3    3  502    0 -0.71081737946E+02  0.94561258706E+02  0.52636807759E+02  0.12956530650E+03  0.47000000000E+01 0.  1.
         -5    1    3    3    0  502  0.46163717354E+02  0.13949290451E+02  0.31400007146E+02  0.57738392364E+02  0.47000000000E+01 0.  1.
        -11    1    1    2    0    0  0.42357662889E+02 -0.50767271195E+02  0.27612756366E+02  0.71651599732E+02  0.00000000000E+00 0.  1.
         11    1    1    2    0    0 -0.17439642297E+02 -0.57743277962E+02 -0.43956486681E+02  0.74636452184E+02  0.00000000000E+00 0. -1.
<mgrwt>
<rscale>  0 0.16159344E+03</rscale>
<asrwt>0</asrwt>
<pdfrwt beam="2">  1        1 0.20453744E-01 0.16739322E+03</pdfrwt>
<pdfrwt beam="1">  1       -1 0.30868064E-01 0.16739322E+03</pdfrwt>
<totfact> 0.23634442E+03</totfact>
</mgrwt>
</event>
<event>
 7    1  0.6387485E-006  0.1444722E+03  0.7546771E-02  0.1216255E+00
          3   -1    0    0  501    0  0.00000000000E+00  0.00000000000E+00  0.60783619544E+02  0.60783619544E+02  0.00000000000E+00 0. -1.
         -3   -1    0    0    0  501 -0.00000000000E+00 -0.00000000000E+00 -0.29007323492E+03  0.29007323492E+03  0.00000000000E+00 0.  1.
         23    2    1    2    0    0 -0.55013959010E+02 -0.47154064811E+02 -0.14288554051E+03  0.20319573614E+03  0.12498875144E+03 0.  0.
          5    1    3    3  502    0 -0.77502986200E+02  0.14202111439E+02 -0.79845714260E+02  0.11227573614E+03  0.47000000000E+01 0.  1.
         -5    1    3    3    0  502  0.22489027190E+02 -0.61356176250E+02 -0.63039826245E+02  0.90920000006E+02  0.47000000000E+01 0.  1.
        -11    1    1    2    0    0  0.72718565542E+02  0.32398141182E+02 -0.94197025516E+02  0.12333170291E+03  0.00000000000E+00 0.  1.
         11    1    1    2    0    0 -0.17704606532E+02  0.14755923629E+02  0.77929506439E+01  0.24329415413E+02  0.00000000000E+00 0. -1.
<mgrwt>
<rscale>  0 0.13784783E+03</rscale>
<asrwt>0</asrwt>
<pdfrwt beam="1">  1        3 0.93513262E-02 0.14447224E+03</pdfrwt>
<pdfrwt beam="2">  1       -3 0.44626651E-01 0.14447224E+03</pdfrwt>
<totfact> 0.96285939E+02</totfact>
</mgrwt>
</event>
<event>
 7    1  0.6387485E-006  0.1379393E+03  0.7546771E-02  0.1228260E+00
         -2   -1    0    0    0  501 -0.00000000000E+00  0.00000000000E+00  0.23844961811E+03  0.23844961811E+03  0.00000000000E+00 0.  1.
          2   -1    0    0  501    0  0.00000000000E+00 -0.00000000000E+00 -0.63642738796E+02  0.63642738796E+02  0.00000000000E+00 0. -1.
         23    2    1    2    0    0 -0.15639527547E+02 -0.56194968794E+02  0.11436442854E+03  0.17918282986E+03  0.12499917865E+03 0.  0.
          5    1    3    3  502    0 -0.26142569273E+02  0.91190708023E+00  0.11786387273E+03  0.12082320968E+03  0.47000000000E+01 0. -1.
         -5    1    3    3    0  502  0.10503041726E+02 -0.57106875874E+02 -0.34994441952E+01  0.58359620178E+02  0.47000000000E+01 0. -1.
        -11    1    1    2    0    0 -0.96608903218E+01 -0.17494334335E+02  0.36136689673E+02  0.41294610740E+02  0.00000000000E+00 0.  1.
         11    1    1    2    0    0  0.25300417869E+02  0.73689303129E+02  0.24305761100E+02  0.81614916300E+02  0.00000000000E+00 0. -1.
<mgrwt>
<rscale>  0 0.12945929E+03</rscale>
<asrwt>0</asrwt>
<pdfrwt beam="2">  1        2 0.97911907E-02 0.13793935E+03</pdfrwt>
<pdfrwt beam="1">  1       -2 0.36684556E-01 0.13793935E+03</pdfrwt>
<totfact> 0.44129264E+03</totfact>
</mgrwt>
</event>
<event>
 7    1  0.6387485E-006  0.1460550E+03  0.7546771E-02  0.1215355E+00
          1   -1    0    0  501    0  0.00000000000E+00  0.00000000000E+00  0.70419069123E+02  0.70419069123E+02  0.00000000000E+00 0. -1.
         -1   -1    0    0    0  501 -0.00000000000E+00 -0.00000000000E+00 -0.25069940507E+03  0.25069940507E+03  0.00000000000E+00 0.  1.
         23    2    1    2    0    0  0.14907759782E+02  0.74063318534E+02 -0.11687005829E+03  0.18705795426E+03  0.12499780506E+03 0.  0.
          5    1    3    3  502    0  0.39286594225E+02  0.79169348914E+02 -0.13095614462E+03  0.15805955873E+03  0.47000000000E+01 0. -1.
         -5    1    3    3    0  502 -0.24378834442E+02 -0.51060303804E+01  0.14086086325E+02  0.28998395524E+02  0.47000000000E+01 0. -1.
        -11    1    1    2    0    0 -0.11271086098E+02 -0.87292475154E+02 -0.75356177746E+02  0.11586874956E+03  0.00000000000E+00 0.  1.
         11    1    1    2    0    0 -0.36366736848E+01  0.13229156620E+02  0.11945900093E+02  0.18191770376E+02  0.00000000000E+00 0. -1.
<mgrwt>
<rscale>  0 0.13850467E+03</rscale>
<asrwt>0</asrwt>
<pdfrwt beam="1">  1        1 0.10833703E-01 0.14605502E+03</pdfrwt>
<pdfrwt beam="2">  1       -1 0.38569139E-01 0.14605502E+03</pdfrwt>
<totfact> 0.36583242E+03</totfact>
</mgrwt>
</event>
<event>
 7    1  0.6387485E-006  0.1309187E+03  0.7546771E-02  0.1268983E+00
          1   -1    0    0  501    0  0.00000000000E+00  0.00000000000E+00  0.24835033937E+03  0.24835033937E+03  0.00000000000E+00 0. -1.
         -1   -1    0    0    0  501 -0.00000000000E+00 -0.00000000000E+00 -0.47097746261E+02  0.47097746261E+02  0.00000000000E+00 0.  1.
         23    2    1    2    0    0  0.30228303364E+02 -0.24505294226E+02  0.60553053352E+02  0.14424418738E+03  0.12500181420E+03 0.  0.
          5    1    3    3  502    0  0.24680448589E+02 -0.28538495069E+02 -0.32986044589E+02  0.50336263081E+02  0.47000000000E+01 0.  1.
         -5    1    3    3    0  502  0.55478547752E+01  0.40332008430E+01  0.93539097942E+02  0.93907924295E+02  0.47000000000E+01 0.  1.
        -11    1    1    2    0    0 -0.21719430934E+02 -0.66887429989E+01  0.50294405948E+02  0.55190581014E+02  0.00000000000E+00 0.  1.
         11    1    1    2    0    0 -0.85088724300E+01  0.31194037225E+02  0.90405133807E+02  0.96013317238E+02  0.00000000000E+00 0. -1.
<mgrwt>
<rscale>  0 0.10557897E+03</rscale>
<asrwt>0</asrwt>
<pdfrwt beam="1">  1        1 0.38207744E-01 0.13091873E+03</pdfrwt>
<pdfrwt beam="2">  1       -1 0.72458073E-02 0.13091873E+03</pdfrwt>
<totfact> 0.10498625E+04</totfact>
</mgrwt>
</event>
<event>
 7    1  0.6387485E-006  0.2072286E+03  0.7546771E-02  0.1147721E+00
         -2   -1    0    0    0  501 -0.00000000000E+00  0.00000000000E+00  0.64435149875E+02  0.64435149875E+02  0.00000000000E+00 0.  1.
          2   -1    0    0  501    0  0.00000000000E+00 -0.00000000000E+00 -0.83985798035E+03  0.83985798035E+03  0.00000000000E+00 0. -1.
         23    2    1    2    0    0 -0.15489739647E+03  0.57686738881E+02 -0.16350718236E+03  0.26396645565E+03  0.12499091068E+03 0.  0.
          5    1    3    3  502    0 -0.20595452798E+02 -0.35187589739E+02 -0.51713552486E+02  0.66020607831E+02  0.47000000000E+01 0. -1.
         -5    1    3    3    0  502 -0.13430194367E+03  0.92874328619E+02 -0.11179362987E+03  0.19794584782E+03  0.47000000000E+01 0. -1.
        -11    1    1    2    0    0  0.11462630243E+03 -0.18239838831E+02 -0.27141881076E+03  0.29519493858E+03  0.00000000000E+00 0.  1.
         11    1    1    2    0    0  0.40271094039E+02 -0.39446900049E+02 -0.34049683736E+03  0.34513173599E+03  0.00000000000E+00 0. -1.
<mgrwt>
<rscale>  0 0.20241103E+03</rscale>
<asrwt>0</asrwt>
<pdfrwt beam="2">  1        2 0.12920892E+00 0.20722860E+03</pdfrwt>
<pdfrwt beam="1">  1       -2 0.99130999E-02 0.20722860E+03</pdfrwt>
<totfact> 0.22301515E+03</totfact>
</mgrwt>
</event>
<event>
 7    1  0.6387485E-006  0.1472535E+03  0.7546771E-02  0.1213525E+00
         -2   -1    0    0    0  501 -0.00000000000E+00  0.00000000000E+00  0.23755719102E+03  0.23755719102E+03  0.00000000000E+00 0.  1.
          2   -1    0    0  501    0  0.00000000000E+00 -0.00000000000E+00 -0.75135083178E+02  0.75135083178E+02  0.00000000000E+00 0. -1.
         23    2    1    2    0    0 -0.64360032406E+02 -0.43775179969E+02  0.84640952717E+02  0.16984609931E+03  0.12500050569E+03 0.  0.
          5    1    3    3  502    0 -0.45344809439E+02  0.34754482382E+02  0.71037665311E+01  0.57763130868E+02  0.47000000000E+01 0.  1.
         -5    1    3    3    0  502 -0.19015222967E+02 -0.78529662352E+02  0.77537186186E+02  0.11208296844E+03  0.47000000000E+01 0.  1.
        -11    1    1    2    0    0 -0.10301810431E+02 -0.18188334969E+02  0.24314648208E+02  0.32064699352E+02  0.00000000000E+00 0. -1.
         11    1    1    2    0    0  0.74661842836E+02  0.61963514939E+02  0.53466506917E+02  0.11078147553E+03  0.00000000000E+00 0.  1.
<mgrwt>
<rscale>  0 0.13985409E+03</rscale>
<asrwt>0</asrwt>
<pdfrwt beam="2">  1        2 0.11559244E-01 0.14725355E+03</pdfrwt>
<pdfrwt beam="1">  1       -2 0.36547260E-01 0.14725355E+03</pdfrwt>
<totfact> 0.36441038E+03</totfact>
</mgrwt>
</event>
<event>
 7    1  0.6387485E-006  0.1698737E+03  0.7546771E-02  0.1184286E+00
          2   -1    0    0  501    0  0.00000000000E+00  0.00000000000E+00  0.43161906323E+03  0.43161906323E+03  0.00000000000E+00 0. -1.
         -2   -1    0    0    0  501 -0.00000000000E+00 -0.00000000000E+00 -0.59523002972E+02  0.59523002972E+02  0.00000000000E+00 0.  1.
         23    2    1    2    0    0 -0.81357123552E+02 -0.81316599821E+02  0.16422097433E+03  0.23627439682E+03  0.12500276486E+03 0.  0.
          5    1    3    3  502    0  0.14435981889E+02  0.24868371534E+01  0.84785046284E+02  0.86169460980E+02  0.47000000000E+01 0. -1.
         -5    1    3    3    0  502 -0.95793105441E+02 -0.83803436975E+02  0.79435928043E+02  0.15010493584E+03  0.47000000000E+01 0. -1.
        -11    1    1    2    0    0 -0.18381401762E+01  0.52424094780E+02  0.42532957008E+02  0.67533080077E+02  0.00000000000E+00 0.  1.
         11    1    1    2    0    0  0.83195263728E+02  0.28892505041E+02  0.16534212892E+03  0.18733458931E+03  0.00000000000E+00 0. -1.
<mgrwt>
<rscale>  0 0.16397048E+03</rscale>
<asrwt>0</asrwt>
<pdfrwt beam="1">  1        2 0.66402931E-01 0.16987367E+03</pdfrwt>
<pdfrwt beam="2">  1       -2 0.91573854E-02 0.16987367E+03</pdfrwt>
<totfact> 0.54512974E+03</totfact>
</mgrwt>
</event>
<event>
 7    1  0.6387485E-006  0.1887033E+03  0.7546771E-02  0.1164742E+00
         -2   -1    0    0    0  501 -0.00000000000E+00  0.00000000000E+00  0.23194518619E+02  0.23194518619E+02  0.00000000000E+00 0.  1.
          2   -1    0    0  501    0  0.00000000000E+00 -0.00000000000E+00 -0.13705826864E+04  0.13705826864E+04  0.00000000000E+00 0. -1.
         23    2    1    2    0    0  0.11845003722E+03 -0.77163683300E+02 -0.68686466696E+03  0.71231454058E+03  0.12499715460E+03 0.  0.
          5    1    3    3  502    0  0.88921449623E+02 -0.85774141070E+02 -0.65915227524E+03  0.67064747776E+03  0.47000000000E+01 0. -1.
         -5    1    3    3    0  502  0.29528587595E+02  0.86104577701E+01 -0.27712391725E+02  0.41667062813E+02  0.47000000000E+01 0. -1.
        -11    1    1    2    0    0 -0.94486570023E+02  0.96057061469E+02 -0.57746076093E+03  0.59297183861E+03  0.00000000000E+00 0. -1.
         11    1    1    2    0    0 -0.23963467195E+02 -0.18893378169E+02 -0.83062739917E+02  0.88490825859E+02  0.00000000000E+00 0.  1.
<mgrwt>
<rscale>  0 0.18319897E+03</rscale>
<asrwt>0</asrwt>
<pdfrwt beam="2">  1        2 0.21085890E+00 0.18870330E+03</pdfrwt>
<pdfrwt beam="1">  1       -2 0.35683871E-02 0.18870330E+03</pdfrwt>
<totfact> 0.51937649E+03</totfact>
</mgrwt>
</event>
<event>
 7    1  0.6387485E-006  0.1725363E+03  0.7546771E-02  0.1181544E+00
         -1   -1    0    0    0  501 -0.00000000000E+00  0.00000000000E+00  0.59734949967E+02  0.59734949967E+02  0.00000000000E+00 0.  1.
          1   -1    0    0  501    0  0.00000000000E+00 -0.00000000000E+00 -0.46305198918E+03  0.46305198918E+03  0.00000000000E+00 0. -1.
         23    2    1    2    0    0  0.11890706330E+03  0.23025998691E+01 -0.15025028992E+03  0.22878795060E+03  0.12499834018E+03 0.  0.
          5    1    3    3  502    0 -0.20995781355E+02 -0.17577603639E+02 -0.43551875420E+02  0.51658986024E+02  0.47000000000E+01 0.  1.
         -5    1    3    3    0  502  0.13990284466E+03  0.19880203508E+02 -0.10669841450E+03  0.17712896458E+03  0.47000000000E+01 0.  1.
        -11    1    1    2    0    0 -0.35293614902E+02 -0.44995173427E+01 -0.10021184495E+02  0.36963617894E+02  0.00000000000E+00 0.  1.
         11    1    1    2    0    0 -0.83613448400E+02  0.21969174736E+01 -0.24304556480E+03  0.25703537066E+03  0.00000000000E+00 0. -1.
<mgrwt>
<rscale>  0 0.16650355E+03</rscale>
<asrwt>0</asrwt>
<pdfrwt beam="2">  1        1 0.71238765E-01 0.17253631E+03</pdfrwt>
<pdfrwt beam="1">  1       -1 0.91899926E-02 0.17253631E+03</pdfrwt>
<totfact> 0.34082411E+03</totfact>
</mgrwt>
</event>
<event>
 7    1  0.6387485E-006  0.1979168E+03  0.7546771E-02  0.1160011E+00
         -2   -1    0    0    0  501 -0.00000000000E+00  0.00000000000E+00  0.13299470887E+03  0.13299470887E+03  0.00000000000E+00 0. -1.
          2   -1    0    0  501    0  0.00000000000E+00 -0.00000000000E+00 -0.47959644290E+03  0.47959644290E+03  0.00000000000E+00 0.  1.
         23    2    1    2    0    0 -0.14393258192E+03  0.53162026233E+02  0.32227477130E+02  0.20052349108E+03  0.12501308340E+03 0.  0.
          5    1    3    3  502    0 -0.14335085138E+03  0.21225410944E+01  0.75718522363E+01  0.14364328985E+03  0.47000000000E+01 0. -1.
         -5    1    3    3    0  502 -0.58173054334E+00  0.51039485139E+02  0.24655624894E+02  0.56880201235E+02  0.47000000000E+01 0. -1.
        -11    1    1    2    0    0  0.74047757090E+02  0.41163282175E+00 -0.17703224115E+03  0.19189490400E+03  0.00000000000E+00 0.  1.
         11    1    1    2    0    0  0.69884824835E+02 -0.53573659055E+02 -0.20179697000E+03  0.22017275669E+03  0.00000000000E+00 0. -1.
<mgrwt>
<rscale>  0 0.18829209E+03</rscale>
<asrwt>0</asrwt>
<pdfrwt beam="2">  1        2 0.73784069E-01 0.19791680E+03</pdfrwt>
<pdfrwt beam="1">  1       -2 0.20460724E-01 0.19791680E+03</pdfrwt>
<totfact> 0.13136105E+03</totfact>
</mgrwt>
</event>
<event>
 7    1  0.6387485E-006  0.1666923E+03  0.7546771E-02  0.1187939E+00
          1   -1    0    0  501    0  0.00000000000E+00  0.00000000000E+00  0.51769433899E+03  0.51769433899E+03  0.00000000000E+00 0. -1.
         -1   -1    0    0    0  501 -0.00000000000E+00 -0.00000000000E+00 -0.46752598091E+02  0.46752598091E+02  0.00000000000E+00 0.  1.
         23    2    1    2    0    0 -0.10209273376E+03  0.41664629865E+02  0.23569938949E+03  0.28868760429E+03  0.12500985161E+03 0.  0.
          5    1    3    3  502    0 -0.12652893673E+00  0.60256187643E+02  0.63639967666E+02  0.87766506387E+02  0.47000000000E+01 0. -1.
         -5    1    3    3    0  502 -0.10196620482E+03 -0.18591557778E+02  0.17205942182E+03  0.20092109790E+03  0.47000000000E+01 0. -1.
        -11    1    1    2    0    0  0.60041094921E+02 -0.63632607105E+02  0.10231795244E+03  0.13462171132E+03  0.00000000000E+00 0.  1.
         11    1    1    2    0    0  0.42051638835E+02  0.21967977240E+02  0.13292439897E+03  0.14113762147E+03  0.00000000000E+00 0. -1.
<mgrwt>
<rscale>  0 0.16067345E+03</rscale>
<asrwt>0</asrwt>
<pdfrwt beam="1">  1        1 0.79645279E-01 0.16669232E+03</pdfrwt>
<pdfrwt beam="2">  1       -1 0.71927078E-02 0.16669232E+03</pdfrwt>
<totfact> 0.42666108E+03</totfact>
</mgrwt>
</event>
<event>
 7    1  0.6387485E-006  0.1865510E+03  0.7546771E-02  0.1166135E+00
         -2   -1    0    0    0  501 -0.00000000000E+00  0.00000000000E+00  0.64531637595E+02  0.64531637595E+02  0.00000000000E+00 0.  1.
          2   -1    0    0  501    0  0.00000000000E+00 -0.00000000000E+00 -0.57762897904E+03  0.57762897904E+03  0.00000000000E+00 0. -1.
         23    2    1    2    0    0  0.84143477589E+02 -0.10997801213E+03 -0.14085300638E+03  0.23375381055E+03  0.12500394621E+03 0.  0.
          5    1    3    3  502    0  0.10955304739E+03 -0.53972111240E+02 -0.11153812593E+03  0.16546208787E+03  0.47000000000E+01 0. -1.
         -5    1    3    3    0  502 -0.25409569800E+02 -0.56005900892E+02 -0.29314880444E+02  0.68291722688E+02  0.47000000000E+01 0. -1.
        -11    1    1    2    0    0 -0.68316255863E+02  0.10404710451E+03 -0.37115447156E+03  0.39146973387E+03  0.00000000000E+00 0. -1.
         11    1    1    2    0    0 -0.15827221726E+02  0.59309076223E+01 -0.10898635045E+01  0.16937072216E+02  0.00000000000E+00 0.  1.
<mgrwt>
<rscale>  0 0.18173458E+03</rscale>
<asrwt>0</asrwt>
<pdfrwt beam="2">  1        2 0.88865998E-01 0.18655100E+03</pdfrwt>
<pdfrwt beam="1">  1       -2 0.99279441E-02 0.18655100E+03</pdfrwt>
<totfact> 0.34869995E+03</totfact>
</mgrwt>
</event>
<event>
 7    1  0.6387485E-006  0.1279378E+03  0.7546771E-02  0.1245591E+00
          2   -1    0    0  501    0  0.00000000000E+00  0.00000000000E+00  0.56767336075E+03  0.56767336075E+03  0.00000000000E+00 0.  1.
         -2   -1    0    0    0  501 -0.00000000000E+00 -0.00000000000E+00 -0.24172824901E+02  0.24172824901E+02  0.00000000000E+00 0. -1.
         23    2    1    2    0    0 -0.24870659609E+02 -0.11164371073E+02  0.21569262097E+03  0.25078154296E+03  0.12499953063E+03 0.  0.
          5    1    3    3  502    0 -0.48329821189E+02  0.45342836737E+02  0.10631038612E+03  0.12536240528E+03  0.47000000000E+01 0. -1.
         -5    1    3    3    0  502  0.23459161580E+02 -0.56507207810E+02  0.10938223485E+03  0.12541913768E+03  0.47000000000E+01 0. -1.
        -11    1    1    2    0    0  0.15825190830E+02  0.48033067736E+02  0.12698253017E+03  0.13668275396E+03  0.00000000000E+00 0.  1.
         11    1    1    2    0    0  0.90454687790E+01 -0.36868696663E+02  0.20082538471E+03  0.20438188874E+03  0.00000000000E+00 0. -1.
<mgrwt>
<rscale>  0 0.11850088E+03</rscale>
<asrwt>0</asrwt>
<pdfrwt beam="1">  1        2 0.87334354E-01 0.12793778E+03</pdfrwt>
<pdfrwt beam="2">  1       -2 0.37188965E-02 0.12793778E+03</pdfrwt>
<totfact> 0.15561589E+04</totfact>
</mgrwt>
</event>
<event>
 7    1  0.6387485E-006  0.1449707E+03  0.7546771E-02  0.1217149E+00
          2   -1    0    0  501    0  0.00000000000E+00  0.00000000000E+00  0.49538795381E+03  0.49538795381E+03  0.00000000000E+00 0. -1.
         -2   -1    0    0    0  501 -0.00000000000E+00 -0.00000000000E+00 -0.39994463109E+02  0.39994463109E+02  0.00000000000E+00 0.  1.
         23    2    1    2    0    0 -0.23311433673E+02  0.69626915304E+02  0.15004845079E+03  0.20864092485E+03  0.12500067066E+03 0.  0.
          5    1    3    3  502    0  0.44707972138E+02  0.40658479525E+02  0.10695988513E+03  0.12294072457E+03  0.47000000000E+01 0. -1.
         -5    1    3    3    0  502 -0.68019405811E+02  0.28968435779E+02  0.43088565657E+02  0.85700200285E+02  0.47000000000E+01 0. -1.
        -11    1    1    2    0    0  0.44316962356E+02 -0.68062351032E+02  0.28866495842E+03  0.29987319820E+03  0.00000000000E+00 0. -1.
         11    1    1    2    0    0 -0.21005528682E+02 -0.15645642719E+01  0.16680081496E+02  0.26868293866E+02  0.00000000000E+00 0.  1.
<mgrwt>
<rscale>  0 0.13719868E+03</rscale>
<asrwt>0</asrwt>
<pdfrwt beam="1">  1        2 0.76213527E-01 0.14497068E+03</pdfrwt>
<pdfrwt beam="2">  1       -2 0.61529947E-02 0.14497068E+03</pdfrwt>
<totfact> 0.85860545E+03</totfact>
</mgrwt>
</event>
<event>
 6    1  0.6387485E-006  0.2573404E+03  0.7546771E-02  0.1115526E+00
         -1   -1    0    0    0  501 -0.00000000000E+00  0.00000000000E+00  0.10958657590E+03  0.10958657590E+03  0.00000000000E+00 0.  1.
          1   -1    0    0  501    0  0.00000000000E+00 -0.00000000000E+00 -0.58437622069E+03  0.58437622069E+03  0.00000000000E+00 0. -1.
          5    1    1    2  502    0 -0.21897999160E+03 -0.32287381125E+02 -0.11321137375E+03  0.24866366210E+03  0.47000000000E+01 0. -1.
         -5    1    1    2    0  502  0.29271169929E+02 -0.20218926854E+02 -0.20866757573E+02  0.41510456077E+02  0.47000000000E+01 0.  1.
        -11    1    1    2    0    0  0.67270988809E+02  0.52901764152E+02 -0.86779325513E+02  0.12187958780E+03  0.00000000000E+00 0.  1.
         11    1    1    2    0    0  0.12243783286E+03 -0.39545617323E+00 -0.25393218795E+03  0.28190909063E+03  0.00000000000E+00 0. -1.
<mgrwt>
<rscale>  0 0.24651769E+03</rscale>
<asrwt>0</asrwt>
<pdfrwt beam="2">  1        1 0.89904036E-01 0.25734038E+03</pdfrwt>
<pdfrwt beam="1">  1       -1 0.16859473E-01 0.25734038E+03</pdfrwt>
<totfact> 0.97371791E+02</totfact>
</mgrwt>
</event>
<event>
 7    1  0.6387485E-006  0.1341190E+03  0.7546771E-02  0.1233529E+00
         -2   -1    0    0    0  501 -0.00000000000E+00  0.00000000000E+00  0.30067152865E+02  0.30067152865E+02  0.00000000000E+00 0.  1.
          2   -1    0    0  501    0  0.00000000000E+00 -0.00000000000E+00 -0.49942108604E+03  0.49942108604E+03  0.00000000000E+00 0. -1.
         23    2    1    2    0    0 -0.45047534950E+02 -0.18271946339E+02 -0.20213147962E+03  0.24257995014E+03  0.12499901091E+03 0.  0.
          5    1    3    3  502    0  0.19176150516E+02  0.23298564798E+02 -0.48369223113E+01  0.30919794431E+02  0.47000000000E+01 0.  1.
         -5    1    3    3    0  502 -0.64223685466E+02 -0.41570511137E+02 -0.19729455731E+03  0.21166015571E+03  0.47000000000E+01 0.  1.
        -11    1    1    2    0    0 -0.60055258772E+01 -0.28926434785E+02 -0.12705039940E+03  0.13044005887E+03  0.00000000000E+00 0.  1.
         11    1    1    2    0    0  0.51053060827E+02  0.47198381124E+02 -0.14017205415E+03  0.15646822989E+03  0.00000000000E+00 0. -1.
<mgrwt>
<rscale>  0 0.12599068E+03</rscale>
<asrwt>0</asrwt>
<pdfrwt beam="2">  1        2 0.76834006E-01 0.13411897E+03</pdfrwt>
<pdfrwt beam="1">  1       -2 0.46257163E-02 0.13411897E+03</pdfrwt>
<totfact> 0.13013899E+04</totfact>
</mgrwt>
</event>
<event>
 7    1  0.6387485E-006  0.1252958E+03  0.7546771E-02  0.1250136E+00
         -1   -1    0    0    0  501 -0.00000000000E+00  0.00000000000E+00  0.14554141542E+02  0.14554141542E+02  0.00000000000E+00 0.  1.
          1   -1    0    0  501    0  0.00000000000E+00 -0.00000000000E+00 -0.82236152897E+03  0.82236152897E+03  0.00000000000E+00 0. -1.
         23    2    1    2    0    0 -0.32977583403E+01  0.79462624120E+01 -0.41004411568E+03  0.42876010397E+03  0.12500012662E+03 0.  0.
          5    1    3    3  502    0  0.46593285508E+02  0.20275902004E+00 -0.65581515161E+02  0.80585361552E+02  0.47000000000E+01 0.  1.
         -5    1    3    3    0  502 -0.49891043848E+02  0.77435033920E+01 -0.34446260052E+03  0.34817474242E+03  0.47000000000E+01 0.  1.
        -11    1    1    2    0    0 -0.40548205007E+02  0.85334641354E+01 -0.13382718140E+03  0.14009529407E+03  0.00000000000E+00 0.  1.
         11    1    1    2    0    0  0.43845963348E+02 -0.16479726547E+02 -0.26393609035E+03  0.26806027247E+03  0.00000000000E+00 0. -1.
<mgrwt>
<rscale>  0 0.11583181E+03</rscale>
<asrwt>0</asrwt>
<pdfrwt beam="2">  1        1 0.12651717E+00 0.12529585E+03</pdfrwt>
<pdfrwt beam="1">  1       -1 0.22390985E-02 0.12529585E+03</pdfrwt>
<totfact> 0.12208630E+04</totfact>
</mgrwt>
</event>
<event>
 7    1  0.6387485E-006  0.1284301E+03  0.7546771E-02  0.1244641E+00
          3   -1    0    0  501    0  0.00000000000E+00  0.00000000000E+00  0.27239555382E+03  0.27239555382E+03  0.00000000000E+00 0. -1.
         -3   -1    0    0    0  501 -0.00000000000E+00 -0.00000000000E+00 -0.46057322584E+02  0.46057322584E+02  0.00000000000E+00 0.  1.
         23    2    1    2    0    0  0.14909484512E+02  0.25434684661E+02  0.11760940813E+03  0.17414440814E+03  0.12500034438E+03 0.  0.
          5    1    3    3  502    0 -0.10175093871E+02 -0.68791464888E+01  0.13037333427E+03  0.13103492466E+03  0.47000000000E+01 0.  1.
         -5    1    3    3    0  502  0.25084578383E+02  0.32313831150E+02 -0.12763926136E+02  0.43109483488E+02  0.47000000000E+01 0.  1.
        -11    1    1    2    0    0 -0.10124011343E+02  0.33854215293E+02  0.37923124455E+02  0.51834031940E+02  0.00000000000E+00 0.  1.
         11    1    1    2    0    0 -0.47854731691E+01 -0.59288899954E+02  0.70805698646E+02  0.92474436316E+02  0.00000000000E+00 0. -1.
<mgrwt>
<rscale>  0 0.11906894E+03</rscale>
<asrwt>0</asrwt>
<pdfrwt beam="1">  1        3 0.41907007E-01 0.12843014E+03</pdfrwt>
<pdfrwt beam="2">  1       -3 0.70857421E-02 0.12843014E+03</pdfrwt>
<totfact> 0.16783580E+03</totfact>
</mgrwt>
</event>
<event>
 7    1  0.6387485E-006  0.1314595E+03  0.7546771E-02  0.1237159E+00
         -2   -1    0    0    0  501 -0.00000000000E+00  0.00000000000E+00  0.25281516401E+03  0.25281516401E+03  0.00000000000E+00 0.  1.
          2   -1    0    0  501    0  0.00000000000E+00 -0.00000000000E+00 -0.29249802371E+03  0.29249802371E+03  0.00000000000E+00 0. -1.
         23    2    1    2    0    0 -0.40271221279E+02  0.17974244245E+02  0.22539962443E+03  0.26093408470E+03  0.12384167773E+03 0.  0.
          5    1    3    3  502    0 -0.12177764896E+02  0.64064045260E+02  0.17547227526E+03  0.18725680024E+03  0.47000000000E+01 0. -1.
         -5    1    3    3    0  502 -0.28093456384E+02 -0.46089801015E+02  0.49927349175E+02  0.73677284456E+02  0.47000000000E+01 0.  1.
        -11    1    1    2    0    0 -0.28858344234E+02 -0.16301051563E+02 -0.71262179992E+02  0.78592789817E+02  0.00000000000E+00 0.  1.
         11    1    1    2    0    0  0.69129565514E+02 -0.16731926812E+01 -0.19382030415E+03  0.20578631320E+03  0.00000000000E+00 0. -1.
<mgrwt>
<rscale>  0 0.12367199E+03</rscale>
<asrwt>0</asrwt>
<pdfrwt beam="2">  1        2 0.44999696E-01 0.13145952E+03</pdfrwt>
<pdfrwt beam="1">  1       -2 0.38894641E-01 0.13145952E+03</pdfrwt>
<totfact> 0.70376188E+02</totfact>
</mgrwt>
</event>
<event>
 7    1  0.6387485E-006  0.1518258E+03  0.7546771E-02  0.1205332E+00
         -2   -1    0    0    0  501 -0.00000000000E+00  0.00000000000E+00  0.64802471348E+02  0.64802471348E+02  0.00000000000E+00 0.  1.
          2   -1    0    0  501    0  0.00000000000E+00 -0.00000000000E+00 -0.30758498452E+03  0.30758498452E+03  0.00000000000E+00 0. -1.
         23    2    1    2    0    0  0.12038167138E+02 -0.85326623968E+02 -0.13928918640E+03  0.20604019155E+03  0.12500213141E+03 0.  0.
          5    1    3    3  502    0  0.20150579216E+02 -0.11006150192E+03 -0.14036504431E+03  0.17956618755E+03  0.47000000000E+01 0. -1.
         -5    1    3    3    0  502 -0.81124120777E+01  0.24734877953E+02  0.10758579127E+01  0.26474003991E+02  0.47000000000E+01 0. -1.
        -11    1    1    2    0    0  0.46275577166E+01  0.95115621914E+02 -0.11042380244E+03  0.14581430646E+03  0.00000000000E+00 0. -1.
         11    1    1    2    0    0 -0.16665724855E+02 -0.97889979461E+01  0.69304756678E+01  0.20532957866E+02  0.00000000000E+00 0.  1.
<mgrwt>
<rscale>  0 0.14611312E+03</rscale>
<asrwt>0</asrwt>
<pdfrwt beam="2">  1        2 0.47320767E-01 0.15182583E+03</pdfrwt>
<pdfrwt beam="1">  1       -2 0.99696108E-02 0.15182583E+03</pdfrwt>
<totfact> 0.68130061E+03</totfact>
</mgrwt>
</event>
<event>
 7    1  0.6387485E-006  0.1496202E+03  0.7546771E-02  0.1204200E+00
         -2   -1    0    0    0  501 -0.00000000000E+00  0.00000000000E+00  0.12155449542E+03  0.12155449542E+03  0.00000000000E+00 0.  1.
          2   -1    0    0  501    0  0.00000000000E+00 -0.00000000000E+00 -0.17401873236E+03  0.17401873236E+03  0.00000000000E+00 0. -1.
         23    2    1    2    0    0 -0.80114712576E+02  0.16875787799E+02 -0.43644949565E+02  0.15585600445E+03  0.12523199717E+03 0.  0.
          5    1    3    3  502    0 -0.90577741875E+02  0.28763546705E+02 -0.74506761232E+02  0.12085121601E+03  0.47000000000E+01 0. -1.
         -5    1    3    3    0  502  0.10463029299E+02 -0.11887758905E+02  0.30861811667E+02  0.35004788434E+02  0.47000000000E+01 0. -1.
        -11    1    1    2    0    0  0.42556667077E+02  0.46164375014E+02 -0.19082037210E+02  0.65622736740E+02  0.00000000000E+00 0.  1.
         11    1    1    2    0    0  0.37558045499E+02 -0.63040162813E+02  0.10262749830E+02  0.74094486592E+02  0.00000000000E+00 0. -1.
<mgrwt>
<rscale>  0 0.14700716E+03</rscale>
<asrwt>0</asrwt>
<pdfrwt beam="2">  1        2 0.26772113E-01 0.14962023E+03</pdfrwt>
<pdfrwt beam="1">  1       -2 0.18700692E-01 0.14962023E+03</pdfrwt>
<totfact> 0.45235170E+03</totfact>
</mgrwt>
</event>
<event>
 7    1  0.6387485E-006  0.1400735E+03  0.7546771E-02  0.1220420E+00
          1   -1    0    0  501    0  0.00000000000E+00  0.00000000000E+00  0.16230073853E+03  0.16230073853E+03  0.00000000000E+00 0. -1.
         -1   -1    0    0    0  501 -0.00000000000E+00 -0.00000000000E+00 -0.11049486102E+03  0.11049486102E+03  0.00000000000E+00 0.  1.
         23    2    1    2    0    0 -0.75210123823E+02  0.25261828486E+02 -0.40166165493E+01  0.14013109728E+03  0.11543772569E+03 0.  0.
          5    1    3    3  502    0  0.45811696117E+01  0.79128708089E+01  0.44069141079E+02  0.45252401427E+02  0.47000000000E+01 0. -1.
         -5    1    3    3    0  502 -0.79791293435E+02  0.17348957677E+02 -0.48085757628E+02  0.94878695855E+02  0.47000000000E+01 0.  1.
        -11    1    1    2    0    0 -0.11273744072E+02  0.64056921908E+01 -0.12484014181E+02  0.17999466878E+02  0.00000000000E+00 0.  1.
         11    1    1    2    0    0  0.86483867895E+02 -0.31667520676E+02  0.68306508239E+02  0.11466503538E+03  0.00000000000E+00 0. -1.
<mgrwt>
<rscale>  0 0.13485810E+03</rscale>
<asrwt>0</asrwt>
<pdfrwt beam="1">  1        1 0.24969344E-01 0.14007352E+03</pdfrwt>
<pdfrwt beam="2">  1       -1 0.16999209E-01 0.14007352E+03</pdfrwt>
<totfact> 0.48248484E+03</totfact>
</mgrwt>
</event>
<event>
 7    1  0.6387485E-006  0.2257474E+03  0.7546771E-02  0.1132121E+00
          2   -1    0    0  501    0  0.00000000000E+00  0.00000000000E+00  0.68500708339E+03  0.68500708339E+03  0.00000000000E+00 0.  1.
         -2   -1    0    0    0  501 -0.00000000000E+00 -0.00000000000E+00 -0.71150768515E+02  0.71150768515E+02  0.00000000000E+00 0. -1.
         23    2    1    2    0    0  0.14136557850E+03  0.12390490318E+03  0.36153632440E+03  0.42622813090E+03  0.12500101556E+03 0.  0.
          5    1    3    3  502    0  0.44250410037E+02  0.99254299271E+02  0.26736377766E+03  0.28864336874E+03  0.47000000000E+01 0.  1.
         -5    1    3    3    0  502  0.97115168466E+02  0.24650603910E+02  0.94172546740E+02  0.13758476216E+03  0.47000000000E+01 0.  1.
        -11    1    1    2    0    0 -0.56324450538E+02 -0.48938476557E+02  0.18155518581E+03  0.19628984617E+03  0.00000000000E+00 0.  1.
         11    1    1    2    0    0 -0.85041127965E+02 -0.74966426623E+02  0.70764804666E+02  0.13363987483E+03  0.00000000000E+00 0. -1.
<mgrwt>
<rscale>  0 0.22237978E+03</rscale>
<asrwt>0</asrwt>
<pdfrwt beam="1">  1        2 0.10538570E+00 0.22574744E+03</pdfrwt>
<pdfrwt beam="2">  1       -2 0.10946273E-01 0.22574744E+03</pdfrwt>
<totfact> 0.24575145E+03</totfact>
</mgrwt>
</event>
<event>
 7    1  0.6387485E-006  0.1395926E+03  0.7546771E-02  0.1225545E+00
         -2   -1    0    0    0  501 -0.00000000000E+00  0.00000000000E+00  0.24833516135E+03  0.24833516135E+03  0.00000000000E+00 0.  1.
          2   -1    0    0  501    0  0.00000000000E+00 -0.00000000000E+00 -0.71974275568E+02  0.71974275568E+02  0.00000000000E+00 0. -1.
         23    2    1    2    0    0  0.98977048033E+01  0.61341380650E+02  0.15571650804E+03  0.20912611976E+03  0.12500149419E+03 0.  0.
          5    1    3    3  502    0 -0.47498367223E+02  0.14638068099E+02  0.11304429796E+03  0.12357779424E+03  0.47000000000E+01 0. -1.
         -5    1    3    3    0  502  0.57396072026E+02  0.46703312550E+02  0.42672210080E+02  0.85548325526E+02  0.47000000000E+01 0. -1.
        -11    1    1    2    0    0  0.16841110609E+02 -0.73510007807E+02  0.23990620757E+00  0.75414864645E+02  0.00000000000E+00 0. -1.
         11    1    1    2    0    0 -0.26738815412E+02  0.12168627158E+02  0.20404471533E+02  0.35768452512E+02  0.00000000000E+00 0.  1.
<mgrwt>
<rscale>  0 0.13129619E+03</rscale>
<asrwt>0</asrwt>
<pdfrwt beam="2">  1        2 0.11072966E-01 0.13959263E+03</pdfrwt>
<pdfrwt beam="1">  1       -2 0.38205409E-01 0.13959263E+03</pdfrwt>
<totfact> 0.35218415E+03</totfact>
</mgrwt>
</event>
<event>
 7    1  0.6387485E-006  0.1274600E+03  0.7546771E-02  0.1244814E+00
         -1   -1    0    0    0  501 -0.00000000000E+00  0.00000000000E+00  0.26178965350E+02  0.26178965350E+02  0.00000000000E+00 0.  1.
          1   -1    0    0  501    0  0.00000000000E+00 -0.00000000000E+00 -0.50513455181E+03  0.50513455181E+03  0.00000000000E+00 0. -1.
         23    2    1    2    0    0  0.22634700333E+02  0.10574759563E+02 -0.21190793492E+03  0.24728731983E+03  0.12498756127E+03 0.  0.
          5    1    3    3  502    0  0.17955829592E+02 -0.40922320420E+02 -0.21287967674E+02  0.49722386232E+02  0.47000000000E+01 0.  1.
         -5    1    3    3    0  502  0.46788707414E+01  0.51497079982E+02 -0.19061996724E+03  0.19756493360E+03  0.47000000000E+01 0.  1.
        -11    1    1    2    0    0 -0.21460256127E+02 -0.49521536903E+02 -0.19232702263E+03  0.19975637372E+03  0.00000000000E+00 0. -1.
         11    1    1    2    0    0 -0.11744442065E+01  0.38946777341E+02 -0.74720628916E+02  0.84269823603E+02  0.00000000000E+00 0.  1.
<mgrwt>
<rscale>  0 0.11896499E+03</rscale>
<asrwt>0</asrwt>
<pdfrwt beam="2">  1        1 0.77713008E-01 0.12745998E+03</pdfrwt>
<pdfrwt beam="1">  1       -1 0.40275331E-02 0.12745998E+03</pdfrwt>
<totfact> 0.10274829E+04</totfact>
</mgrwt>
</event>
<event>
 7    1  0.6387485E-006  0.3233563E+03  0.7546771E-02  0.1075649E+00
          2   -1    0    0  501    0  0.00000000000E+00  0.00000000000E+00  0.17001731792E+04  0.17001731792E+04  0.00000000000E+00 0. -1.
         -2   -1    0    0    0  501 -0.00000000000E+00 -0.00000000000E+00 -0.72537430504E+02  0.72537430504E+02  0.00000000000E+00 0.  1.
         23    2    1    2    0    0 -0.25184778841E+03 -0.15969513812E+03  0.44494583095E+03  0.55003279101E+03  0.12501773092E+03 0.  0.
          5    1    3    3  502    0 -0.63489077604E+02  0.16093193240E+02  0.91433848845E+02  0.11257038935E+03  0.47000000000E+01 0.  1.
         -5    1    3    3    0  502 -0.18835871080E+03 -0.17578833136E+03  0.35351198210E+03  0.43746240166E+03  0.47000000000E+01 0.  1.
        -11    1    1    2    0    0  0.19618035014E+03  0.80944225129E+02  0.75580816965E+03  0.78503801607E+03  0.00000000000E+00 0. -1.
         11    1    1    2    0    0  0.55667438265E+02  0.78750912990E+02  0.42688174810E+03  0.43763980262E+03  0.00000000000E+00 0.  1.
<mgrwt>
<rscale>  0 0.31999982E+03</rscale>
<asrwt>0</asrwt>
<pdfrwt beam="1">  1        2 0.26156507E+00 0.32335627E+03</pdfrwt>
<pdfrwt beam="2">  1       -2 0.11159606E-01 0.32335627E+03</pdfrwt>
<totfact> 0.59160835E+02</totfact>
</mgrwt>
</event>
<event>
 7    1  0.6387485E-006  0.1758569E+03  0.7546771E-02  0.1178613E+00
          1   -1    0    0  501    0  0.00000000000E+00  0.00000000000E+00  0.33697404682E+03  0.33697404682E+03  0.00000000000E+00 0. -1.
         -1   -1    0    0    0  501 -0.00000000000E+00 -0.00000000000E+00 -0.96123635968E+02  0.96123635968E+02  0.00000000000E+00 0.  1.
         23    2    1    2    0    0  0.83136446088E+02  0.91595797482E+02  0.37440338886E+02  0.17979826430E+03  0.12499671230E+03 0.  0.
          5    1    3    3  502    0  0.32664762263E+01  0.83468221917E+02  0.51376657776E+02  0.98179758103E+02  0.47000000000E+01 0. -1.
         -5    1    3    3    0  502  0.79869969862E+02  0.81275755644E+01 -0.13936318890E+02  0.81618506201E+02  0.47000000000E+01 0. -1.
        -11    1    1    2    0    0 -0.63985996654E+02 -0.75273640918E+02  0.20553638170E+03  0.22804721657E+03  0.00000000000E+00 0. -1.
         11    1    1    2    0    0 -0.19150449434E+02 -0.16322156563E+02 -0.21263097310E+01  0.25252201914E+02  0.00000000000E+00 0.  1.
<mgrwt>
<rscale>  0 0.16926824E+03</rscale>
<asrwt>0</asrwt>
<pdfrwt beam="1">  1        1 0.51842160E-01 0.17585686E+03</pdfrwt>
<pdfrwt beam="2">  1       -1 0.14788252E-01 0.17585686E+03</pdfrwt>
<totfact> 0.24437414E+03</totfact>
</mgrwt>
</event>
<event>
 7    1  0.6387485E-006  0.1372338E+03  0.7546771E-02  0.1227677E+00
         -4   -1    0    0    0  501 -0.00000000000E+00  0.00000000000E+00  0.10371105492E+03  0.10371105492E+03  0.00000000000E+00 0.  1.
          4   -1    0    0  501    0  0.00000000000E+00 -0.00000000000E+00 -0.18618782432E+03  0.18618782432E+03  0.00000000000E+00 0. -1.
         23    2    1    2    0    0 -0.82061010746E+01 -0.56042068406E+02  0.21054482482E+02  0.13883947025E+03  0.12500021497E+03 0.  0.
          5    1    3    3  502    0  0.20608359819E+02 -0.62504017929E+02  0.60378722057E+02  0.89437893697E+02  0.47000000000E+01 0. -1.
         -5    1    3    3    0  502 -0.28814460893E+02  0.64619495234E+01 -0.39324239574E+02  0.49401576557E+02  0.47000000000E+01 0. -1.
        -11    1    1    2    0    0 -0.32366953025E+02  0.17985731738E+02 -0.42705667269E+01  0.37273904202E+02  0.00000000000E+00 0.  1.
         11    1    1    2    0    0  0.40573054100E+02  0.38056336668E+02 -0.99260685164E+02  0.11378550478E+03  0.00000000000E+00 0. -1.
<mgrwt>
<rscale>  0 0.12985089E+03</rscale>
<asrwt>0</asrwt>
<pdfrwt beam="2">  1        4 0.28644280E-01 0.13723377E+03</pdfrwt>
<pdfrwt beam="1">  1       -4 0.15955547E-01 0.13723377E+03</pdfrwt>
<totfact> 0.65111316E+02</totfact>
</mgrwt>
</event>
<event>
 7    1  0.6387485E-006  0.3830108E+03  0.7546771E-02  0.1050705E+00
          2   -1    0    0  501    0  0.00000000000E+00  0.00000000000E+00  0.85299173381E+03  0.85299173381E+03  0.00000000000E+00 0. -1.
         -2   -1    0    0    0  501 -0.00000000000E+00 -0.00000000000E+00 -0.18094788288E+03  0.18094788288E+03  0.00000000000E+00 0.  1.
         23    2    1    2    0    0 -0.35150869340E+03 -0.86683198457E+02  0.20032130740E+03  0.43223362397E+03  0.12499976424E+03 0.  0.
          5    1    3    3  502    0 -0.19090646331E+03  0.97634457171E+01  0.68479628866E+02  0.20310625834E+03  0.47000000000E+01 0. -1.
         -5    1    3    3    0  502 -0.16060223009E+03 -0.96446644174E+02  0.13184167854E+03  0.22912736563E+03  0.47000000000E+01 0. -1.
        -11    1    1    2    0    0  0.21876912961E+03  0.18989995178E+02  0.23196114592E+03  0.31941591257E+03  0.00000000000E+00 0.  1.
         11    1    1    2    0    0  0.13273956379E+03  0.67693203279E+02  0.23976139762E+03  0.28229008015E+03  0.00000000000E+00 0. -1.
<mgrwt>
<rscale>  0 0.38061940E+03</rscale>
<asrwt>0</asrwt>
<pdfrwt beam="1">  1        2 0.13122949E+00 0.38301081E+03</pdfrwt>
<pdfrwt beam="2">  1       -2 0.27838136E-01 0.38301081E+03</pdfrwt>
<totfact> 0.38162054E+02</totfact>
</mgrwt>
</event>
<event>
 7    1  0.6387485E-006  0.1414273E+03  0.7546771E-02  0.1220926E+00
          2   -1    0    0  501    0  0.00000000000E+00  0.00000000000E+00  0.79394412507E+03  0.79394412507E+03  0.00000000000E+00 0. -1.
         -2   -1    0    0    0  501 -0.00000000000E+00 -0.00000000000E+00 -0.26661002162E+02  0.26661002162E+02  0.00000000000E+00 0.  1.
         23    2    1    2    0    0  0.49419515824E+02 -0.43987205295E+02  0.22227806358E+03  0.26345626826E+03  0.12499801983E+03 0.  0.
          5    1    3    3  502    0 -0.12106249326E+02  0.33368724584E+02  0.28089420003E+02  0.45509763449E+02  0.47000000000E+01 0. -1.
         -5    1    3    3    0  502  0.61525765150E+02 -0.77355929879E+02  0.19418864358E+03  0.21794650481E+03  0.47000000000E+01 0. -1.
        -11    1    1    2    0    0  0.14062461234E+02 -0.12452625231E+02  0.31575671708E+02  0.36740219582E+02  0.00000000000E+00 0.  1.
         11    1    1    2    0    0 -0.63481977058E+02  0.56439830526E+02  0.51342938762E+03  0.52040863939E+03  0.00000000000E+00 0. -1.
<mgrwt>
<rscale>  0 0.13450067E+03</rscale>
<asrwt>0</asrwt>
<pdfrwt beam="1">  1        2 0.12214523E+00 0.14142725E+03</pdfrwt>
<pdfrwt beam="2">  1       -2 0.41016932E-02 0.14142725E+03</pdfrwt>
<totfact> 0.91346654E+03</totfact>
</mgrwt>
</event>
<event>
 7    1  0.6387485E-006  0.1604308E+03  0.7546771E-02  0.1195950E+00
          1   -1    0    0  501    0  0.00000000000E+00  0.00000000000E+00  0.51100797272E+03  0.51100797272E+03  0.00000000000E+00 0. -1.
         -1   -1    0    0    0  501 -0.00000000000E+00 -0.00000000000E+00 -0.48988199361E+02  0.48988199361E+02  0.00000000000E+00 0.  1.
         23    2    1    2    0    0 -0.96834127523E+02 -0.27109787231E+02  0.14884405869E+03  0.21884374276E+03  0.12500496439E+03 0.  0.
          5    1    3    3  502    0 -0.10814259869E+03  0.20525372686E+02  0.11421129239E+03  0.15868970315E+03  0.47000000000E+01 0. -1.
         -5    1    3    3    0  502  0.11308471168E+02 -0.47635159917E+02  0.34632766295E+02  0.60154039612E+02  0.47000000000E+01 0. -1.
        -11    1    1    2    0    0  0.89067947161E+02 -0.59567932459E+01  0.15061696778E+03  0.17508299055E+03  0.00000000000E+00 0.  1.
         11    1    1    2    0    0  0.77661803619E+01  0.33066580476E+02  0.16255874690E+03  0.16606943878E+03  0.00000000000E+00 0. -1.
<mgrwt>
<rscale>  0 0.15374103E+03</rscale>
<asrwt>0</asrwt>
<pdfrwt beam="1">  1        1 0.78616608E-01 0.16043076E+03</pdfrwt>
<pdfrwt beam="2">  1       -1 0.75366464E-02 0.16043076E+03</pdfrwt>
<totfact> 0.40383982E+03</totfact>
</mgrwt>
</event>
<event>
 7    1  0.6387485E-006  0.1707287E+03  0.7546771E-02  0.1183644E+00
          2   -1    0    0  501    0  0.00000000000E+00  0.00000000000E+00  0.53741279562E+03  0.53741279562E+03  0.00000000000E+00 0. -1.
         -2   -1    0    0    0  501 -0.00000000000E+00 -0.00000000000E+00 -0.47408394773E+02  0.47408394773E+02  0.00000000000E+00 0.  1.
         23    2    1    2    0    0 -0.11243297223E+03  0.29718641284E+02  0.23813399821E+03  0.29301209369E+03  0.12499566015E+03 0.  0.
          5    1    3    3  502    0  0.64052477108E+01  0.45091947305E+02  0.37113562041E+02  0.58939099055E+02  0.47000000000E+01 0. -1.
         -5    1    3    3    0  502 -0.11883821994E+03 -0.15373306022E+02  0.20102043617E+03  0.23407299463E+03  0.47000000000E+01 0. -1.
        -11    1    1    2    0    0  0.10710283470E+03  0.81330656899E+01  0.20399812179E+03  0.23054803763E+03  0.00000000000E+00 0. -1.
         11    1    1    2    0    0  0.53301375368E+01 -0.37851706974E+02  0.47872280845E+02  0.61261059085E+02  0.00000000000E+00 0.  1.
<mgrwt>
<rscale>  0 0.16455913E+03</rscale>
<asrwt>0</asrwt>
<pdfrwt beam="1">  1        2 0.82678888E-01 0.17072869E+03</pdfrwt>
<pdfrwt beam="2">  1       -2 0.72935996E-02 0.17072869E+03</pdfrwt>
<totfact> 0.61014365E+03</totfact>
</mgrwt>
</event>
<event>
 7    1  0.6387485E-006  0.1326575E+03  0.7546771E-02  0.1236614E+00
          1   -1    0    0  501    0  0.00000000000E+00  0.00000000000E+00  0.10093064573E+04  0.10093064573E+04  0.00000000000E+00 0. -1.
         -1   -1    0    0    0  501 -0.00000000000E+00 -0.00000000000E+00 -0.13641454759E+02  0.13641454759E+02  0.00000000000E+00 0.  1.
         23    2    1    2    0    0 -0.28778044839E+02  0.33878058627E+02  0.52515648155E+03  0.54165240969E+03  0.12498841583E+03 0.  0.
          5    1    3    3  502    0 -0.70197537412E+02  0.39993499164E+02  0.43053535502E+03  0.43807528594E+03  0.47000000000E+01 0. -1.
         -5    1    3    3    0  502  0.41419492572E+02 -0.61154405367E+01  0.94621126527E+02  0.10357712374E+03  0.47000000000E+01 0. -1.
        -11    1    1    2    0    0 -0.28566379643E+02 -0.30824480314E+02  0.15461703528E+03  0.16022675879E+03  0.00000000000E+00 0.  1.
         11    1    1    2    0    0  0.57344424482E+02 -0.30535783137E+01  0.31589148577E+03  0.32106874364E+03  0.00000000000E+00 0. -1.
<mgrwt>
<rscale>  0 0.12401657E+03</rscale>
<asrwt>0</asrwt>
<pdfrwt beam="1">  1        1 0.15527786E+00 0.13265746E+03</pdfrwt>
<pdfrwt beam="2">  1       -1 0.20986861E-02 0.13265746E+03</pdfrwt>
<totfact> 0.96909042E+03</totfact>
</mgrwt>
</event>
<event>
 7    1  0.6387485E-006  0.1314699E+03  0.7546771E-02  0.1235498E+00
          1   -1    0    0  501    0  0.00000000000E+00  0.00000000000E+00  0.14150092173E+03  0.14150092173E+03  0.00000000000E+00 0. -1.
         -1   -1    0    0    0  501 -0.00000000000E+00 -0.00000000000E+00 -0.12020912781E+03  0.12020912781E+03  0.00000000000E+00 0.  1.
         23    2    1    2    0    0  0.34795397387E+02 -0.21181953348E+02 -0.41761796087E+02  0.13794337979E+03  0.12499973435E+03 0.  0.
          5    1    3    3  502    0  0.33329007037E+02  0.12227195586E+02 -0.79565399765E+02  0.87252907468E+02  0.47000000000E+01 0. -1.
         -5    1    3    3    0  502  0.14663903500E+01 -0.33409148935E+02  0.37803603678E+02  0.50690472322E+02  0.47000000000E+01 0. -1.
        -11    1    1    2    0    0 -0.52221602784E+02  0.27723082935E+02  0.11607510843E+01  0.59135543185E+02  0.00000000000E+00 0.  1.
         11    1    1    2    0    0  0.17426205397E+02 -0.65411295861E+01  0.61892838926E+02  0.64631126566E+02  0.00000000000E+00 0. -1.
<mgrwt>
<rscale>  0 0.12472628E+03</rscale>
<asrwt>0</asrwt>
<pdfrwt beam="1">  1        1 0.21769373E-01 0.13146988E+03</pdfrwt>
<pdfrwt beam="2">  1       -1 0.18493712E-01 0.13146988E+03</pdfrwt>
<totfact> 0.49973970E+03</totfact>
</mgrwt>
</event>
<event>
 6    1  0.6387485E-006  0.3117048E+03  0.7546771E-02  0.1079532E+00
          1   -1    0    0  501    0  0.00000000000E+00  0.00000000000E+00  0.30598820892E+03  0.30598820892E+03  0.00000000000E+00 0. -1.
         -1   -1    0    0    0  501 -0.00000000000E+00 -0.00000000000E+00 -0.79382058798E+02  0.79382058798E+02  0.00000000000E+00 0.  1.
          5    1    1    2  502    0 -0.32288535916E+02  0.41850077953E+02  0.87821195805E+02  0.10260911757E+03  0.47000000000E+01 0. -1.
         -5    1    1    2    0  502  0.19215880629E+02  0.11252450018E+01 -0.50586794100E+02  0.54328905584E+02  0.47000000000E+01 0.  1.
        -11    1    1    2    0    0 -0.14199457139E+02 -0.48807335853E+02  0.19365637895E+03  0.20021631733E+03  0.00000000000E+00 0. -1.
         11    1    1    2    0    0  0.27272112425E+02  0.58320128984E+01 -0.42846305386E+01  0.28215927230E+02  0.00000000000E+00 0.  1.
<mgrwt>
<rscale>  0 0.31170482E+03</rscale>
<asrwt>0</asrwt>
<pdfrwt beam="1">  1        1 0.47075108E-01 0.31170482E+03</pdfrwt>
<pdfrwt beam="2">  1       -1 0.12212625E-01 0.31170482E+03</pdfrwt>
<totfact> 0.38046671E+03</totfact>
</mgrwt>
</event>
<event>
 7    1  0.6387485E-006  0.1510852E+03  0.7546771E-02  0.1207896E+00
          1   -1    0    0  501    0  0.00000000000E+00  0.00000000000E+00  0.35576857771E+03  0.35576857771E+03  0.00000000000E+00 0. -1.
         -1   -1    0    0    0  501 -0.00000000000E+00 -0.00000000000E+00 -0.55612823032E+02  0.55612823032E+02  0.00000000000E+00 0.  1.
         23    2    1    2    0    0 -0.52374060423E+02  0.66787726161E+02  0.12466113757E+03  0.19587533195E+03  0.12499241527E+03 0.  0.
          5    1    3    3  502    0 -0.42278004629E+02 -0.27501542721E+02  0.19718315989E+02  0.54356844214E+02  0.47000000000E+01 0.  1.
         -5    1    3    3    0  502 -0.10096055794E+02  0.94289268882E+02  0.10494282158E+03  0.14151848773E+03  0.47000000000E+01 0.  1.
        -11    1    1    2    0    0  0.55228249257E+01 -0.33163084342E+02  0.31476000005E+01  0.33766834972E+02  0.00000000000E+00 0.  1.
         11    1    1    2    0    0  0.46851235497E+02 -0.33624641819E+02  0.17234701711E+03  0.18173923383E+03  0.00000000000E+00 0. -1.
<mgrwt>
<rscale>  0 0.14411585E+03</rscale>
<asrwt>0</asrwt>
<pdfrwt beam="1">  1        1 0.54733626E-01 0.15108523E+03</pdfrwt>
<pdfrwt beam="2">  1       -1 0.85558192E-02 0.15108523E+03</pdfrwt>
<totfact> 0.52809735E+03</totfact>
</mgrwt>
</event>
<event>
 7    1  0.6387485E-006  0.1270664E+03  0.7546771E-02  0.1246453E+00
          3   -1    0    0  501    0  0.00000000000E+00  0.00000000000E+00  0.31060065406E+03  0.31060065406E+03  0.00000000000E+00 0. -1.
         -3   -1    0    0    0  501 -0.00000000000E+00 -0.00000000000E+00 -0.97254907750E+02  0.97254907750E+02  0.00000000000E+00 0.  1.
         23    2    1    2    0    0  0.17687308732E+02  0.14443222660E+02 -0.43407858061E+02  0.13427626145E+03  0.12499769869E+03 0.  0.
          5    1    3    3  502    0 -0.39853960802E+02  0.34676155218E+02 -0.49819306818E+02  0.72765563725E+02  0.47000000000E+01 0. -1.
         -5    1    3    3    0  502  0.57541269535E+02 -0.20232932558E+02  0.64114487572E+01  0.61510697726E+02  0.47000000000E+01 0. -1.
        -11    1    1    2    0    0 -0.45809557577E+02 -0.36587173392E+02  0.16333381664E+03  0.17353694846E+03  0.00000000000E+00 0.  1.
         11    1    1    2    0    0  0.28122248845E+02  0.22143950731E+02  0.93419787727E+02  0.10004235190E+03  0.00000000000E+00 0. -1.
<mgrwt>
<rscale>  0 0.11798812E+03</rscale>
<asrwt>0</asrwt>
<pdfrwt beam="1">  1        3 0.47784716E-01 0.12706641E+03</pdfrwt>
<pdfrwt beam="2">  1       -3 0.14962294E-01 0.12706641E+03</pdfrwt>
<totfact> 0.37593623E+02</totfact>
</mgrwt>
</event>
<event>
 7    1  0.6387485E-006  0.1253347E+03  0.7546771E-02  0.1250574E+00
          1   -1    0    0  501    0  0.00000000000E+00  0.00000000000E+00  0.33354950929E+02  0.33354950929E+02  0.00000000000E+00 0. -1.
         -1   -1    0    0    0  501 -0.00000000000E+00 -0.00000000000E+00 -0.35310042475E+03  0.35310042475E+03  0.00000000000E+00 0.  1.
         23    2    1    2    0    0  0.45578865987E+01  0.79618211029E+01 -0.20429681985E+03  0.23967890483E+03  0.12499848758E+03 0.  0.
          5    1    3    3  502    0  0.55068178655E+02  0.34711687826E+02 -0.83675226703E+02  0.10611804340E+03  0.47000000000E+01 0.  1.
         -5    1    3    3    0  502 -0.50510292057E+02 -0.26749866723E+02 -0.12062159314E+03  0.13356086143E+03  0.47000000000E+01 0.  1.
        -11    1    1    2    0    0 -0.21415204403E+02  0.11924214349E+02 -0.11805889079E+03  0.12057652990E+03  0.00000000000E+00 0.  1.
         11    1    1    2    0    0  0.16857317804E+02 -0.19886035452E+02  0.26102368135E+01  0.26199940950E+02  0.00000000000E+00 0. -1.
<mgrwt>
<rscale>  0 0.11557903E+03</rscale>
<asrwt>0</asrwt>
<pdfrwt beam="1">  1        1 0.51315307E-02 0.12533470E+03</pdfrwt>
<pdfrwt beam="2">  1       -1 0.54323144E-01 0.12533470E+03</pdfrwt>
<totfact> 0.53472968E+03</totfact>
</mgrwt>
</event>
<event>
 7    1  0.6387485E-006  0.2584361E+03  0.7546771E-02  0.1110321E+00
         -2   -1    0    0    0  501 -0.00000000000E+00  0.00000000000E+00  0.85732671456E+02  0.85732671456E+02  0.00000000000E+00 0.  1.
          2   -1    0    0  501    0  0.00000000000E+00 -0.00000000000E+00 -0.73655900099E+03  0.73655900099E+03  0.00000000000E+00 0. -1.
         23    2    1    2    0    0  0.80226453004E+02 -0.21149578878E+03 -0.33010170076E+03  0.41923305464E+03  0.12498987489E+03 0.  0.
          5    1    3    3  502    0  0.74915626829E+02 -0.51802435094E+02 -0.17041860701E+03  0.19328847622E+03  0.47000000000E+01 0. -1.
         -5    1    3    3    0  502  0.53108261751E+01 -0.15969335369E+03 -0.15968309374E+03  0.22594457841E+03  0.47000000000E+01 0. -1.
        -11    1    1    2    0    0 -0.38113921163E+02  0.23716583090E+02 -0.28547707137E+02  0.53198861667E+02  0.00000000000E+00 0. -1.
         11    1    1    2    0    0 -0.42112531841E+02  0.18777920569E+03 -0.29217692164E+03  0.34985975614E+03  0.00000000000E+00 0.  1.
<mgrwt>
<rscale>  0 0.25477884E+03</rscale>
<asrwt>0</asrwt>
<pdfrwt beam="2">  1        2 0.11331677E+00 0.25843611E+03</pdfrwt>
<pdfrwt beam="1">  1       -2 0.13189642E-01 0.25843611E+03</pdfrwt>
<totfact> 0.16667055E+03</totfact>
</mgrwt>
</event>
<event>
 7    1  0.6387485E-006  0.1224317E+03  0.7546771E-02  0.1247492E+00
          2   -1    0    0  501    0  0.00000000000E+00  0.00000000000E+00  0.79410642481E+03  0.79410642481E+03  0.00000000000E+00 0. -1.
         -2   -1    0    0    0  501 -0.00000000000E+00 -0.00000000000E+00 -0.16531020840E+02  0.16531020840E+02  0.00000000000E+00 0.  1.
         23    2    1    2    0    0  0.23081423965E+01  0.45825248557E+02  0.35232352972E+03  0.37298979552E+03  0.11350875316E+03 0.  0.
          5    1    3    3  502    0  0.12114967990E+02 -0.35270192627E+02  0.75686138429E+02  0.84505860670E+02  0.47000000000E+01 0. -1.
         -5    1    3    3    0  502 -0.98068255939E+01  0.81095441183E+02  0.27663739129E+03  0.28848393485E+03  0.47000000000E+01 0.  1.
        -11    1    1    2    0    0  0.17392555495E+02 -0.64192424896E+02  0.37278378233E+03  0.37866993117E+03  0.00000000000E+00 0. -1.
         11    1    1    2    0    0 -0.19700697892E+02  0.18367176339E+02  0.52468091924E+02  0.58977718964E+02  0.00000000000E+00 0.  1.
<mgrwt>
<rscale>  0 0.11737473E+03</rscale>
<asrwt>0</asrwt>
<pdfrwt beam="1">  1        2 0.12217019E+00 0.12243169E+03</pdfrwt>
<pdfrwt beam="2">  1       -2 0.25432346E-02 0.12243169E+03</pdfrwt>
<totfact> 0.18282063E+04</totfact>
</mgrwt>
</event>
<event>
 7    1  0.6387485E-006  0.1573575E+03  0.7546771E-02  0.1199789E+00
         -3   -1    0    0    0  501 -0.00000000000E+00  0.00000000000E+00  0.25425582464E+03  0.25425582464E+03  0.00000000000E+00 0.  1.
          3   -1    0    0  501    0  0.00000000000E+00 -0.00000000000E+00 -0.92462435876E+02  0.92462435876E+02  0.00000000000E+00 0. -1.
         23    2    1    2    0    0  0.90826616525E+02  0.29789270454E+02  0.14464496278E+03  0.21373709003E+03  0.12499801395E+03 0.  0.
          5    1    3    3  502    0 -0.14785871898E+02  0.44824445771E+02  0.25907398475E+02  0.54047536875E+02  0.47000000000E+01 0. -1.
         -5    1    3    3    0  502  0.10561248842E+03 -0.15035175317E+02  0.11873756431E+03  0.15968955315E+03  0.47000000000E+01 0. -1.
        -11    1    1    2    0    0 -0.73515697815E+02 -0.11066307376E+02  0.51325277040E+02  0.90339941595E+02  0.00000000000E+00 0. -1.
         11    1    1    2    0    0 -0.17310918710E+02 -0.18722963078E+02 -0.34176851061E+02  0.42641228893E+02  0.00000000000E+00 0.  1.
<mgrwt>
<rscale>  0 0.15055763E+03</rscale>
<asrwt>0</asrwt>
<pdfrwt beam="2">  1        3 0.14224990E-01 0.15735749E+03</pdfrwt>
<pdfrwt beam="1">  1       -3 0.39116281E-01 0.15735749E+03</pdfrwt>
<totfact> 0.62376509E+02</totfact>
</mgrwt>
</event>
<event>
 7    1  0.6387485E-006  0.1328189E+03  0.7546771E-02  0.1234365E+00
          1   -1    0    0  501    0  0.00000000000E+00  0.00000000000E+00  0.19978204275E+03  0.19978204275E+03  0.00000000000E+00 0. -1.
         -1   -1    0    0    0  501 -0.00000000000E+00 -0.00000000000E+00 -0.75286082827E+02  0.75286082827E+02  0.00000000000E+00 0.  1.
         23    2    1    2    0    0  0.33166505094E+02  0.30295454121E+02  0.37091850890E+02  0.13790096503E+03  0.12499215636E+03 0.  0.
          5    1    3    3  502    0  0.69315500800E+02  0.51952644668E+02  0.94027625449E+01  0.87259485918E+02  0.47000000000E+01 0.  1.
         -5    1    3    3    0  502 -0.36148995706E+02 -0.21657190547E+02  0.27689088345E+02  0.50641479109E+02  0.47000000000E+01 0.  1.
        -11    1    1    2    0    0 -0.62434657413E+02 -0.33716997157E+02  0.79698570526E+02  0.10670887727E+03  0.00000000000E+00 0.  1.
         11    1    1    2    0    0  0.29268152319E+02  0.34215430358E+01  0.77055385067E+01  0.30458283284E+02  0.00000000000E+00 0. -1.
<mgrwt>
<rscale>  0 0.12545202E+03</rscale>
<asrwt>0</asrwt>
<pdfrwt beam="1">  1        1 0.30735699E-01 0.13281894E+03</pdfrwt>
<pdfrwt beam="2">  1       -1 0.11582474E-01 0.13281894E+03</pdfrwt>
<totfact> 0.67501169E+03</totfact>
</mgrwt>
</event>
<event>
 7    1  0.6387485E-006  0.1335968E+03  0.7546771E-02  0.1234614E+00
         -1   -1    0    0    0  501 -0.00000000000E+00  0.00000000000E+00  0.75210876890E+03  0.75210876890E+03  0.00000000000E+00 0.  1.
          1   -1    0    0  501    0  0.00000000000E+00 -0.00000000000E+00 -0.44409298297E+02  0.44409298297E+02  0.00000000000E+00 0. -1.
         23    2    1    2    0    0  0.20984078664E+02  0.42218572009E+02  0.67503914637E+03  0.68813222015E+03  0.12500145555E+03 0.  0.
          5    1    3    3  502    0  0.66292676316E+02 -0.49369518056E+01  0.38973287018E+03  0.39538954529E+03  0.47000000000E+01 0.  1.
         -5    1    3    3    0  502 -0.45308597651E+02  0.47155523815E+02  0.28530627619E+03  0.29274267485E+03  0.47000000000E+01 0.  1.
        -11    1    1    2    0    0 -0.55806814190E+02 -0.11767503471E+02  0.19790047880E+02  0.60369865356E+02  0.00000000000E+00 0.  1.
         11    1    1    2    0    0  0.34822735525E+02 -0.30451068539E+02  0.12870276348E+02  0.48015981692E+02  0.00000000000E+00 0. -1.
<mgrwt>
<rscale>  0 0.12529175E+03</rscale>
<asrwt>0</asrwt>
<pdfrwt beam="2">  1        1 0.68322003E-02 0.13359679E+03</pdfrwt>
<pdfrwt beam="1">  1       -1 0.11570903E+00 0.13359679E+03</pdfrwt>
<totfact> 0.76941347E+02</totfact>
</mgrwt>
</event>
<event>
 6    1  0.6387485E-006  0.2582384E+03  0.7546771E-02  0.1144106E+00
         -2   -1    0    0    0  501 -0.00000000000E+00  0.00000000000E+00  0.31252597221E+02  0.31252597221E+02  0.00000000000E+00 0.  1.
          2   -1    0    0  501    0  0.00000000000E+00 -0.00000000000E+00 -0.11001400540E+04  0.11001400540E+04  0.00000000000E+00 0. -1.
          5    1    1    2  502    0  0.13507016087E+03 -0.43997052794E+02 -0.41692979069E+03  0.44049089590E+03  0.47000000000E+01 0. -1.
         -5    1    1    2    0  502 -0.11280333804E+03 -0.65492856158E+01 -0.23765051817E+03  0.26318690128E+03  0.47000000000E+01 0.  1.
        -11    1    1    2    0    0  0.30516411150E+02 -0.10284187535E+01 -0.87351780931E+02  0.92534548286E+02  0.00000000000E+00 0.  1.
         11    1    1    2    0    0 -0.52783233982E+02  0.51574757163E+02 -0.32695536702E+03  0.33518030579E+03  0.00000000000E+00 0. -1.
<mgrwt>
<rscale>  0 0.20682371E+03</rscale>
<asrwt>0</asrwt>
<pdfrwt beam="2">  1        2 0.16925234E+00 0.25823838E+03</pdfrwt>
<pdfrwt beam="1">  1       -2 0.48080912E-02 0.25823838E+03</pdfrwt>
<totfact> 0.47338246E+03</totfact>
</mgrwt>
</event>
<event>
 7    1  0.6387485E-006  0.1392501E+03  0.7546771E-02  0.1225717E+00
         -2   -1    0    0    0  501 -0.00000000000E+00  0.00000000000E+00  0.43229018048E+03  0.43229018048E+03  0.00000000000E+00 0.  1.
          2   -1    0    0  501    0  0.00000000000E+00 -0.00000000000E+00 -0.38528422446E+02  0.38528422446E+02  0.00000000000E+00 0. -1.
         23    2    1    2    0    0 -0.12555042482E+02 -0.60104205056E+02  0.28051017188E+03  0.31317173163E+03  0.12498172828E+03 0.  0.
          5    1    3    3  502    0 -0.13701316549E+02  0.29565138615E+02  0.15730601334E+03  0.16071432833E+03  0.47000000000E+01 0.  1.
         -5    1    3    3    0  502  0.11462740667E+01 -0.89669343671E+02  0.12320415854E+03  0.15245740330E+03  0.47000000000E+01 0.  1.
        -11    1    1    2    0    0 -0.30206061632E+02  0.48033925348E+02  0.92710774241E+02  0.10869660438E+03  0.00000000000E+00 0. -1.
         11    1    1    2    0    0  0.42761104114E+02  0.12070279708E+02  0.20540811907E+02  0.48950266916E+02  0.00000000000E+00 0.  1.
<mgrwt>
<rscale>  0 0.13117904E+03</rscale>
<asrwt>0</asrwt>
<pdfrwt beam="2">  1        2 0.59274499E-02 0.13925005E+03</pdfrwt>
<pdfrwt beam="1">  1       -2 0.66506178E-01 0.13925005E+03</pdfrwt>
<totfact> 0.25662686E+03</totfact>
</mgrwt>
</event>
<event>
 7    1  0.6387485E-006  0.1919841E+03  0.7546771E-02  0.1161274E+00
          1   -1    0    0  501    0  0.00000000000E+00  0.00000000000E+00  0.38776327251E+03  0.38776327251E+03  0.00000000000E+00 0. -1.
         -1   -1    0    0    0  501 -0.00000000000E+00 -0.00000000000E+00 -0.86519770631E+02  0.86519770631E+02  0.00000000000E+00 0.  1.
         23    2    1    2    0    0 -0.12451912897E+03  0.75679726205E+02  0.13482422044E+03  0.23459641728E+03  0.12500189656E+03 0.  0.
          5    1    3    3  502    0 -0.47172097796E+01  0.53149351540E+02  0.89796489436E+02  0.10455909885E+03  0.47000000000E+01 0. -1.
         -5    1    3    3    0  502 -0.11980191919E+03  0.22530374665E+02  0.45027731005E+02  0.13003731843E+03  0.47000000000E+01 0. -1.
        -11    1    1    2    0    0  0.53825434756E+02 -0.20639423791E+02  0.13140546088E+03  0.14349410577E+03  0.00000000000E+00 0.  1.
         11    1    1    2    0    0  0.70693694218E+02 -0.55040302414E+02  0.35013820559E+02  0.96192520094E+02  0.00000000000E+00 0. -1.
<mgrwt>
<rscale>  0 0.18691439E+03</rscale>
<asrwt>0</asrwt>
<pdfrwt beam="1">  1        1 0.59655887E-01 0.19198414E+03</pdfrwt>
<pdfrwt beam="2">  1       -1 0.13310734E-01 0.19198414E+03</pdfrwt>
<totfact> 0.24218112E+03</totfact>
</mgrwt>
</event>
<event>
 7    1  0.6387485E-006  0.1298032E+03  0.7546771E-02  0.1241145E+00
          2   -1    0    0  501    0  0.00000000000E+00  0.00000000000E+00  0.33261004132E+03  0.33261004132E+03  0.00000000000E+00 0. -1.
         -2   -1    0    0    0  501 -0.00000000000E+00 -0.00000000000E+00 -0.40875165165E+02  0.40875165165E+02  0.00000000000E+00 0.  1.
         23    2    1    2    0    0  0.10191308864E+02  0.33414021198E+02  0.12775340762E+03  0.18212575979E+03  0.12501399774E+03 0.  0.
          5    1    3    3  502    0  0.61093185557E+02  0.22322762350E+02  0.10810066954E+03  0.12624788234E+03  0.47000000000E+01 0.  1.
         -5    1    3    3    0  502 -0.50901876692E+02  0.11091258847E+02  0.19652738076E+02  0.55877877443E+02  0.47000000000E+01 0.  1.
        -11    1    1    2    0    0  0.34252409718E+00 -0.36561630145E+02  0.17319672999E+03  0.17701405989E+03  0.00000000000E+00 0. -1.
         11    1    1    2    0    0 -0.10533832961E+02  0.31476089468E+01 -0.92152614526E+01  0.14345386805E+02  0.00000000000E+00 0.  1.
<mgrwt>
<rscale>  0 0.12119083E+03</rscale>
<asrwt>0</asrwt>
<pdfrwt beam="1">  1        2 0.51170774E-01 0.12980316E+03</pdfrwt>
<pdfrwt beam="2">  1       -2 0.62884872E-02 0.12980316E+03</pdfrwt>
<totfact> 0.12639209E+04</totfact>
</mgrwt>
</event>
<event>
 7    1  0.6387485E-006  0.1380012E+03  0.7546771E-02  0.1228237E+00
          1   -1    0    0  501    0  0.00000000000E+00  0.00000000000E+00  0.62504549964E+02  0.62504549964E+02  0.00000000000E+00 0. -1.
         -1   -1    0    0    0  501 -0.00000000000E+00 -0.00000000000E+00 -0.25309011084E+03  0.25309011084E+03  0.00000000000E+00 0.  1.
         23    2    1    2    0    0  0.57524919545E+02  0.10485093549E+02 -0.71067921760E+02  0.15522560565E+03  0.12500114236E+03 0.  0.
          5    1    3    3  502    0 -0.35216729634E+02  0.16028615368E+02 -0.13970384303E+01  0.39002259846E+02  0.47000000000E+01 0. -1.
         -5    1    3    3    0  502  0.92741649179E+02 -0.55435218192E+01 -0.69670883330E+02  0.11622334581E+03  0.47000000000E+01 0. -1.
        -11    1    1    2    0    0  0.13891604258E+02  0.12091221290E+02  0.10321875061E+01  0.18445587879E+02  0.00000000000E+00 0. -1.
         11    1    1    2    0    0 -0.71416523803E+02 -0.22576314839E+02 -0.12054982662E+03  0.14192346727E+03  0.00000000000E+00 0.  1.
<mgrwt>
<rscale>  0 0.12947499E+03</rscale>
<asrwt>0</asrwt>
<pdfrwt beam="1">  1        1 0.96160846E-02 0.13800123E+03</pdfrwt>
<pdfrwt beam="2">  1       -1 0.38936940E-01 0.13800123E+03</pdfrwt>
<totfact> 0.42006789E+03</totfact>
</mgrwt>
</event>
<event>
 7    1  0.6387485E-006  0.1280978E+03  0.7546771E-02  0.1245615E+00
         -4   -1    0    0    0  501 -0.00000000000E+00  0.00000000000E+00  0.21047187165E+02  0.21047187165E+02  0.00000000000E+00 0.  1.
          4   -1    0    0  501    0  0.00000000000E+00 -0.00000000000E+00 -0.59754795001E+03  0.59754795001E+03  0.00000000000E+00 0. -1.
         23    2    1    2    0    0 -0.15604640486E+02  0.23295430819E+02 -0.28704784431E+03  0.31433344914E+03  0.12499148141E+03 0.  0.
          5    1    3    3  502    0 -0.39869826744E+02  0.30351862759E+01 -0.19233076148E+02  0.44618568539E+02  0.47000000000E+01 0. -1.
         -5    1    3    3    0  502  0.24265186258E+02  0.20260244543E+02 -0.26781476816E+03  0.26971488060E+03  0.47000000000E+01 0. -1.
        -11    1    1    2    0    0  0.26282754308E+02 -0.51652626016E+02 -0.23400018923E+03  0.24107025015E+03  0.00000000000E+00 0. -1.
         11    1    1    2    0    0 -0.10678113822E+02  0.28357195198E+02 -0.55452729308E+02  0.63191437885E+02  0.00000000000E+00 0.  1.
<mgrwt>
<rscale>  0 0.11848637E+03</rscale>
<asrwt>0</asrwt>
<pdfrwt beam="2">  1        4 0.91930450E-01 0.12809782E+03</pdfrwt>
<pdfrwt beam="1">  1       -4 0.32380289E-02 0.12809782E+03</pdfrwt>
<totfact> 0.81338104E+02</totfact>
</mgrwt>
</event>
<event>
 7    1  0.6387485E-006  0.1563590E+03  0.7546771E-02  0.1201015E+00
          2   -1    0    0  501    0  0.00000000000E+00  0.00000000000E+00  0.51219493576E+03  0.51219493576E+03  0.00000000000E+00 0. -1.
         -2   -1    0    0    0  501 -0.00000000000E+00 -0.00000000000E+00 -0.42992798364E+02  0.42992798364E+02  0.00000000000E+00 0.  1.
         23    2    1    2    0    0  0.67579225894E+01  0.93686769923E+02  0.18451744332E+03  0.24185702902E+03  0.12500102088E+03 0.  0.
          5    1    3    3  502    0  0.11968292277E+02  0.85669151984E+02  0.20289467267E+03  0.22061455486E+03  0.47000000000E+01 0.  1.
         -5    1    3    3    0  502 -0.52103696878E+01  0.80176179387E+01 -0.18377229348E+02  0.21242474154E+02  0.47000000000E+01 0.  1.
        -11    1    1    2    0    0  0.14419937757E+02 -0.53291141291E+02  0.50745016495E+02  0.74986245700E+02  0.00000000000E+00 0.  1.
         11    1    1    2    0    0 -0.21177860347E+02 -0.40395628632E+02  0.23393967758E+03  0.23834445940E+03  0.00000000000E+00 0. -1.
<mgrwt>
<rscale>  0 0.14955957E+03</rscale>
<asrwt>0</asrwt>
<pdfrwt beam="1">  1        2 0.78799217E-01 0.15635900E+03</pdfrwt>
<pdfrwt beam="2">  1       -2 0.66142770E-02 0.15635900E+03</pdfrwt>
<totfact> 0.74457036E+03</totfact>
</mgrwt>
</event>
<event>
 7    1  0.6387485E-006  0.4896026E+03  0.7546771E-02  0.1016529E+00
          3   -1    0    0  501    0  0.00000000000E+00  0.00000000000E+00  0.13174455093E+03  0.13174455093E+03  0.00000000000E+00 0. -1.
         -3   -1    0    0    0  501 -0.00000000000E+00 -0.00000000000E+00 -0.45487774539E+03  0.45487774539E+03  0.00000000000E+00 0.  1.
         23    2    1    2    0    0  0.11316170838E+03 -0.10902667736E+03 -0.15681753937E+03  0.25477336758E+03  0.12500135821E+03 0.  0.
          5    1    3    3  502    0  0.11574685393E+03 -0.10777878393E+03 -0.79165290279E+02  0.17692606830E+03  0.47000000000E+01 0. -1.
         -5    1    3    3    0  502 -0.25851455464E+01 -0.12478934290E+01 -0.77652249095E+02  0.77847299279E+02  0.47000000000E+01 0. -1.
        -11    1    1    2    0    0 -0.14553145329E+03 -0.10723655416E+02 -0.14549428883E+03  0.20606549630E+03  0.00000000000E+00 0.  1.
         11    1    1    2    0    0  0.32369744905E+02  0.11975033278E+03 -0.20821366262E+02  0.12578343245E+03  0.00000000000E+00 0. -1.
<mgrwt>
<rscale>  0 0.48960255E+03</rscale>
<asrwt>0</asrwt>
<pdfrwt beam="1">  1        3 0.20268392E-01 0.48960255E+03</pdfrwt>
<pdfrwt beam="2">  1       -3 0.69981192E-01 0.48960255E+03</pdfrwt>
<totfact> 0.11387896E+02</totfact>
</mgrwt>
</event>
<event>
 7    1  0.6387485E-006  0.1328733E+03  0.7546771E-02  0.1236381E+00
         -1   -1    0    0    0  501 -0.00000000000E+00  0.00000000000E+00  0.52276395183E+02  0.52276395183E+02  0.00000000000E+00 0.  1.
          1   -1    0    0  501    0  0.00000000000E+00 -0.00000000000E+00 -0.34131468639E+03  0.34131468639E+03  0.00000000000E+00 0. -1.
         23    2    1    2    0    0 -0.76091078524E+01  0.44415197651E+02 -0.65448518046E+02  0.14811763316E+03  0.12499886573E+03 0.  0.
          5    1    3    3  502    0  0.51175674981E+02  0.47895025997E+01 -0.14135169750E+00  0.51613942159E+02  0.47000000000E+01 0. -1.
         -5    1    3    3    0  502 -0.58784782833E+02  0.39625695051E+02 -0.65307166348E+02  0.96503691004E+02  0.47000000000E+01 0. -1.
        -11    1    1    2    0    0 -0.69074300735E+01 -0.70751574732E+02 -0.15077075043E+03  0.16668928311E+03  0.00000000000E+00 0.  1.
         11    1    1    2    0    0  0.14516537926E+02  0.26336377081E+02 -0.72819022735E+02  0.78784165307E+02  0.00000000000E+00 0. -1.
<mgrwt>
<rscale>  0 0.12416447E+03</rscale>
<asrwt>0</asrwt>
<pdfrwt beam="2">  1        1 0.52509951E-01 0.13287334E+03</pdfrwt>
<pdfrwt beam="1">  1       -1 0.80425225E-02 0.13287334E+03</pdfrwt>
<totfact> 0.60622184E+03</totfact>
</mgrwt>
</event>
<event>
 7    1  0.6387485E-006  0.1561926E+03  0.7546771E-02  0.1201101E+00
         -1   -1    0    0    0  501 -0.00000000000E+00  0.00000000000E+00  0.87707874873E+02  0.87707874873E+02  0.00000000000E+00 0.  1.
          1   -1    0    0  501    0  0.00000000000E+00 -0.00000000000E+00 -0.62936894593E+03  0.62936894593E+03  0.00000000000E+00 0. -1.
         23    2    1    2    0    0  0.83964787534E+01  0.93278697739E+02  0.36520663686E+01  0.15623533797E+03  0.12499890774E+03 0.  0.
          5    1    3    3  502    0 -0.50567877557E+02  0.34667910610E+02 -0.27457992684E+02  0.67342450423E+02  0.47000000000E+01 0. -1.
         -5    1    3    3    0  502  0.58964356310E+02  0.58610787129E+02  0.31110059053E+02  0.88892887552E+02  0.47000000000E+01 0. -1.
        -11    1    1    2    0    0 -0.49250649458E+02 -0.42021429543E+02 -0.30138533826E+03  0.30826052152E+03  0.00000000000E+00 0. -1.
         11    1    1    2    0    0  0.40854170705E+02 -0.51257268195E+02 -0.24392779916E+03  0.25258096130E+03  0.00000000000E+00 0.  1.
<mgrwt>
<rscale>  0 0.14949032E+03</rscale>
<asrwt>0</asrwt>
<pdfrwt beam="2">  1        1 0.96825995E-01 0.15619265E+03</pdfrwt>
<pdfrwt beam="1">  1       -1 0.13493519E-01 0.15619265E+03</pdfrwt>
<totfact> 0.12467658E+03</totfact>
</mgrwt>
</event>
<event>
 7    1  0.6387485E-006  0.1732542E+03  0.7546771E-02  0.1180400E+00
          2   -1    0    0  501    0  0.00000000000E+00  0.00000000000E+00  0.14717154221E+03  0.14717154221E+03  0.00000000000E+00 0. -1.
         -2   -1    0    0    0  501 -0.00000000000E+00 -0.00000000000E+00 -0.18183054641E+03  0.18183054641E+03  0.00000000000E+00 0.  1.
         23    2    1    2    0    0 -0.60215986250E+02 -0.10375518807E+03 -0.37836290293E+02  0.17733750575E+03  0.12500360807E+03 0.  0.
          5    1    3    3  502    0 -0.79246738899E+02 -0.48469048178E+02 -0.64209235261E+02  0.11302305141E+03  0.47000000000E+01 0.  1.
         -5    1    3    3    0  502  0.19030752649E+02 -0.55286139890E+02  0.26372944968E+02  0.64314454336E+02  0.47000000000E+01 0.  1.
        -11    1    1    2    0    0  0.29766956506E+02  0.87281639295E+02  0.40533728970E+02  0.10073301069E+03  0.00000000000E+00 0. -1.
         11    1    1    2    0    0  0.30449029744E+02  0.16473548772E+02 -0.37356442871E+02  0.50931572187E+02  0.00000000000E+00 0.  1.
<mgrwt>
<rscale>  0 0.16757529E+03</rscale>
<asrwt>0</asrwt>
<pdfrwt beam="1">  1        2 0.22641776E-01 0.17325417E+03</pdfrwt>
<pdfrwt beam="2">  1       -2 0.27973930E-01 0.17325417E+03</pdfrwt>
<totfact> 0.27335774E+03</totfact>
</mgrwt>
</event>
<event>
 7    1  0.6387485E-006  0.2056361E+03  0.7546771E-02  0.1149042E+00
          1   -1    0    0  501    0  0.00000000000E+00  0.00000000000E+00  0.10963929155E+04  0.10963929155E+04  0.00000000000E+00 0. -1.
         -1   -1    0    0    0  501 -0.00000000000E+00 -0.00000000000E+00 -0.42079358126E+02  0.42079358126E+02  0.00000000000E+00 0.  1.
         23    2    1    2    0    0  0.14631319008E+03  0.72487705651E+02  0.31744720601E+03  0.37823132897E+03  0.12499677017E+03 0.  0.
          5    1    3    3  502    0  0.13309493745E+03  0.10451237754E+03  0.27828901711E+03  0.32573603804E+03  0.47000000000E+01 0. -1.
         -5    1    3    3    0  502  0.13218252631E+02 -0.32024671891E+02  0.39158188900E+02  0.52495290934E+02  0.47000000000E+01 0. -1.
        -11    1    1    2    0    0 -0.11445809480E+03 -0.85323357093E+02  0.67033404415E+03  0.68536739161E+03  0.00000000000E+00 0. -1.
         11    1    1    2    0    0 -0.31855095278E+02  0.12835651442E+02  0.66532307248E+02  0.74873553080E+02  0.00000000000E+00 0.  1.
<mgrwt>
<rscale>  0 0.20082795E+03</rscale>
<asrwt>0</asrwt>
<pdfrwt beam="1">  1        1 0.16867581E+00 0.20563611E+03</pdfrwt>
<pdfrwt beam="2">  1       -1 0.64737483E-02 0.20563611E+03</pdfrwt>
<totfact> 0.16153852E+03</totfact>
</mgrwt>
</event>
<event>
 7    1  0.6387485E-006  0.1318733E+03  0.7546771E-02  0.1238367E+00
         -3   -1    0    0    0  501 -0.00000000000E+00  0.00000000000E+00  0.43771624137E+03  0.43771624137E+03  0.00000000000E+00 0.  1.
          3   -1    0    0  501    0  0.00000000000E+00 -0.00000000000E+00 -0.31830184884E+02  0.31830184884E+02  0.00000000000E+00 0. -1.
         23    2    1    2    0    0  0.39494994335E+02  0.14257544899E+02  0.27626166788E+03  0.30612264071E+03  0.12500971903E+03 0.  0.
          5    1    3    3  502    0  0.52183466277E+02  0.42453921973E+02  0.26408798553E+03  0.27256192644E+03  0.47000000000E+01 0. -1.
         -5    1    3    3    0  502 -0.12688471943E+02 -0.28196377074E+02  0.12173682351E+02  0.33560714270E+02  0.47000000000E+01 0. -1.
        -11    1    1    2    0    0 -0.57384920443E+02 -0.37155258904E+02  0.10521560713E+03  0.12547456453E+03  0.00000000000E+00 0.  1.
         11    1    1    2    0    0  0.17889926108E+02  0.22897714005E+02  0.24408781466E+02  0.37949221013E+02  0.00000000000E+00 0. -1.
<mgrwt>
<rscale>  0 0.12291322E+03</rscale>
<asrwt>0</asrwt>
<pdfrwt beam="2">  1        3 0.48969518E-02 0.13187328E+03</pdfrwt>
<pdfrwt beam="1">  1       -3 0.67340956E-01 0.13187328E+03</pdfrwt>
<totfact> 0.11677351E+03</totfact>
</mgrwt>
</event>
<event>
 7    1  0.6387485E-006  0.1585525E+03  0.7546771E-02  0.1197813E+00
         -1   -1    0    0    0  501 -0.00000000000E+00  0.00000000000E+00  0.29435648017E+03  0.29435648017E+03  0.00000000000E+00 0.  1.
          1   -1    0    0  501    0  0.00000000000E+00 -0.00000000000E+00 -0.19667543004E+03  0.19667543004E+03  0.00000000000E+00 0. -1.
         23    2    1    2    0    0  0.83161005417E+02 -0.50980617748E+02  0.24479024852E+03  0.29165248823E+03  0.12499652760E+03 0.  0.
          5    1    3    3  502    0  0.83240759625E+02 -0.14381065274E+02  0.23995930836E+03  0.25443741622E+03  0.47000000000E+01 0.  1.
         -5    1    3    3    0  502 -0.79754208051E-01 -0.36599552474E+02  0.48309401577E+01  0.37215072012E+02  0.47000000000E+01 0.  1.
        -11    1    1    2    0    0  0.15541954934E+02  0.77804982410E+00 -0.39645126210E+00  0.15566467111E+02  0.00000000000E+00 0.  1.
         11    1    1    2    0    0 -0.98702960351E+02  0.50202567924E+02 -0.14671274713E+03  0.18381295487E+03  0.00000000000E+00 0. -1.
<mgrwt>
<rscale>  0 0.15218534E+03</rscale>
<asrwt>0</asrwt>
<pdfrwt beam="2">  1        1 0.30257759E-01 0.15855254E+03</pdfrwt>
<pdfrwt beam="1">  1       -1 0.45285612E-01 0.15855254E+03</pdfrwt>
<totfact> 0.73816371E+02</totfact>
</mgrwt>
</event>
<event>
 7    1  0.6387485E-006  0.1559633E+03  0.7546771E-02  0.1210657E+00
         -1   -1    0    0    0  501 -0.00000000000E+00  0.00000000000E+00  0.17207164283E+03  0.17207164283E+03  0.00000000000E+00 0.  1.
          1   -1    0    0  501    0  0.00000000000E+00 -0.00000000000E+00 -0.11351591802E+03  0.11351591802E+03  0.00000000000E+00 0. -1.
         23    2    1    2    0    0 -0.93215953441E+02 -0.60007540039E+00  0.81499731233E+02  0.17597374466E+03  0.12503990784E+03 0.  0.
          5    1    3    3  502    0 -0.89878200843E+02  0.17114406407E+02 -0.77431593315E+00  0.91617047860E+02  0.47000000000E+01 0.  1.
         -5    1    3    3    0  502 -0.33377525980E+01 -0.17714481808E+02  0.82274047166E+02  0.84356696801E+02  0.47000000000E+01 0.  1.
        -11    1    1    2    0    0  0.14779900964E+02 -0.21035560183E+02 -0.33848319099E+01  0.25930625750E+02  0.00000000000E+00 0.  1.
         11    1    1    2    0    0  0.78436052477E+02  0.21635635584E+02 -0.19559174515E+02  0.83683190445E+02  0.00000000000E+00 0. -1.
<mgrwt>
<rscale>  0 0.14200413E+03</rscale>
<asrwt>0</asrwt>
<pdfrwt beam="2">  1        1 0.17463987E-01 0.15596331E+03</pdfrwt>
<pdfrwt beam="1">  1       -1 0.26472561E-01 0.15596331E+03</pdfrwt>
<totfact> 0.37325414E+03</totfact>
</mgrwt>
</event>
<event>
 7    1  0.6387485E-006  0.1220344E+03  0.7546771E-02  0.1281050E+00
         -1   -1    0    0    0  501 -0.00000000000E+00  0.00000000000E+00  0.35315301595E+02  0.35315301595E+02  0.00000000000E+00 0.  1.
          1   -1    0    0  501    0  0.00000000000E+00 -0.00000000000E+00 -0.27919030940E+03  0.27919030940E+03  0.00000000000E+00 0. -1.
         23    2    1    2    0    0  0.22936793151E+02  0.44447788318E+02 -0.90811127437E+02  0.15211527957E+03  0.11131349894E+03 0.  0.
          5    1    3    3  502    0  0.11793853508E+02  0.12341495402E+02 -0.11093588934E+03  0.11233997077E+03  0.47000000000E+01 0. -1.
         -5    1    3    3    0  502  0.11142939643E+02  0.32106292915E+02  0.20124761901E+02  0.39775308801E+02  0.47000000000E+01 0.  1.
        -11    1    1    2    0    0 -0.21848868828E+02 -0.20028496051E+02 -0.89998724058E+02  0.94753807603E+02  0.00000000000E+00 0.  1.
         11    1    1    2    0    0 -0.10879243224E+01 -0.24419292267E+02 -0.63065156313E+02  0.67636523824E+02  0.00000000000E+00 0. -1.
<mgrwt>
<rscale>  0 0.99642204E+02</rscale>
<asrwt>0</asrwt>
<pdfrwt beam="2">  1        1 0.42952353E-01 0.12203441E+03</pdfrwt>
<pdfrwt beam="1">  1       -1 0.54331236E-02 0.12203441E+03</pdfrwt>
<totfact> 0.13872367E+04</totfact>
</mgrwt>
</event>
<event>
 7    1  0.6387485E-006  0.1290036E+03  0.7546771E-02  0.1243474E+00
         -2   -1    0    0    0  501 -0.00000000000E+00  0.00000000000E+00  0.58907609893E+02  0.58907609893E+02  0.00000000000E+00 0.  1.
          2   -1    0    0  501    0  0.00000000000E+00 -0.00000000000E+00 -0.23150531919E+03  0.23150531919E+03  0.00000000000E+00 0. -1.
         23    2    1    2    0    0 -0.17029474912E+01 -0.31821964158E+02 -0.59225278012E+02  0.14194912670E+03  0.12500553421E+03 0.  0.
          5    1    3    3  502    0 -0.51908982046E+02  0.20537571253E+02 -0.30502939364E+02  0.63787565872E+02  0.47000000000E+01 0. -1.
         -5    1    3    3    0  502  0.50206034554E+02 -0.52359535411E+02 -0.28722338647E+02  0.78161560831E+02  0.47000000000E+01 0. -1.
        -11    1    1    2    0    0 -0.30131451164E+02 -0.63992774991E+01 -0.78241768306E+01  0.31781643205E+02  0.00000000000E+00 0.  1.
         11    1    1    2    0    0  0.31834398655E+02  0.38221241657E+02 -0.10554825445E+03  0.11668215917E+03  0.00000000000E+00 0. -1.
<mgrwt>
<rscale>  0 0.11977193E+03</rscale>
<asrwt>0</asrwt>
<pdfrwt beam="2">  1        2 0.35616203E-01 0.12900357E+03</pdfrwt>
<pdfrwt beam="1">  1       -2 0.90627093E-02 0.12900357E+03</pdfrwt>
<totfact> 0.10580301E+04</totfact>
</mgrwt>
</event>
<event>
 7    1  0.6387485E-006  0.1176504E+03  0.7546771E-02  0.1256071E+00
         -1   -1    0    0    0  501 -0.00000000000E+00  0.00000000000E+00  0.11369428208E+03  0.11369428208E+03  0.00000000000E+00 0.  1.
          1   -1    0    0  501    0  0.00000000000E+00 -0.00000000000E+00 -0.10952160464E+03  0.10952160464E+03  0.00000000000E+00 0. -1.
         23    2    1    2    0    0 -0.35639261595E+01  0.32108538608E+02  0.30437881104E+02  0.12152394790E+03  0.11312800486E+03 0.  0.
          5    1    3    3  502    0 -0.26731917854E+02 -0.59163990019E+01  0.61193764668E+02  0.67203913901E+02  0.47000000000E+01 0. -1.
         -5    1    3    3    0  502  0.23167991695E+02  0.38024937610E+02 -0.30755883564E+02  0.54320033995E+02  0.47000000000E+01 0.  1.
        -11    1    1    2    0    0 -0.13072559800E+02  0.16865330427E+02  0.22213343308E+02  0.30802009854E+02  0.00000000000E+00 0.  1.
         11    1    1    2    0    0  0.16636485959E+02 -0.48973869035E+02 -0.48478546973E+02  0.70889928974E+02  0.00000000000E+00 0. -1.
<mgrwt>
<rscale>  0 0.11246533E+03</rscale>
<asrwt>0</asrwt>
<pdfrwt beam="2">  1        1 0.16849478E-01 0.11765035E+03</pdfrwt>
<pdfrwt beam="1">  1       -1 0.17491428E-01 0.11765035E+03</pdfrwt>
<totfact> 0.75017800E+03</totfact>
</mgrwt>
</event>
<event>
 7    1  0.6387485E-006  0.1317762E+03  0.7546771E-02  0.1234450E+00
         -1   -1    0    0    0  501 -0.00000000000E+00  0.00000000000E+00  0.59244588500E+02  0.59244588500E+02  0.00000000000E+00 0.  1.
          1   -1    0    0  501    0  0.00000000000E+00 -0.00000000000E+00 -0.32135851373E+03  0.32135851373E+03  0.00000000000E+00 0. -1.
         23    2    1    2    0    0 -0.83068105717E+01 -0.57246634298E+02 -0.47056289158E+02  0.13992594849E+03  0.11840099861E+03 0.  0.
          5    1    3    3  502    0  0.19817838459E+02 -0.22421535351E+02 -0.79082351852E+02  0.84685183729E+02  0.47000000000E+01 0. -1.
         -5    1    3    3    0  502 -0.28124649030E+02 -0.34825098947E+02  0.32026062694E+02  0.55240764761E+02  0.47000000000E+01 0.  1.
        -11    1    1    2    0    0  0.49839559646E+01 -0.13527352880E+02 -0.17745854479E+00  0.14417370930E+02  0.00000000000E+00 0.  1.
         11    1    1    2    0    0  0.33228546071E+01  0.70773987178E+02 -0.21488017753E+03  0.22625978282E+03  0.00000000000E+00 0. -1.
<mgrwt>
<rscale>  0 0.12539731E+03</rscale>
<asrwt>0</asrwt>
<pdfrwt beam="2">  1        1 0.49439770E-01 0.13177624E+03</pdfrwt>
<pdfrwt beam="1">  1       -1 0.91145523E-02 0.13177624E+03</pdfrwt>
<totfact> 0.54039624E+03</totfact>
</mgrwt>
</event>
<event>
 7    1  0.6387485E-006  0.1163788E+03  0.7546771E-02  0.1259000E+00
          1   -1    0    0  501    0  0.00000000000E+00  0.00000000000E+00  0.19312900396E+03  0.19312900396E+03  0.00000000000E+00 0. -1.
         -1   -1    0    0    0  501 -0.00000000000E+00 -0.00000000000E+00 -0.97463887258E+02  0.97463887258E+02  0.00000000000E+00 0.  1.
         23    2    1    2    0    0  0.10868958144E+02 -0.26657170869E+02 -0.41265512404E+02  0.12347820700E+03  0.11276207731E+03 0.  0.
          5    1    3    3  502    0  0.23294312758E+02  0.34925111942E+02  0.86279442371E+01  0.43115193062E+02  0.47000000000E+01 0. -1.
         -5    1    3    3    0  502 -0.12425354613E+02 -0.61582282811E+02 -0.49893456641E+02  0.80363013937E+02  0.47000000000E+01 0.  1.
        -11    1    1    2    0    0  0.34644666736E+02  0.18463898238E+01  0.22123433312E+02  0.41147398340E+02  0.00000000000E+00 0.  1.
         11    1    1    2    0    0 -0.45513624880E+02  0.24810781045E+02  0.11480719579E+03  0.12596728588E+03  0.00000000000E+00 0. -1.
<mgrwt>
<rscale>  0 0.11085235E+03</rscale>
<asrwt>0</asrwt>
<pdfrwt beam="1">  1        1 0.29712154E-01 0.11637880E+03</pdfrwt>
<pdfrwt beam="2">  1       -1 0.14994444E-01 0.11637880E+03</pdfrwt>
<totfact> 0.46778846E+03</totfact>
</mgrwt>
</event>
<event>
 7    1  0.6387485E-006  0.1693860E+03  0.7546771E-02  0.1185159E+00
          1   -1    0    0  501    0  0.00000000000E+00  0.00000000000E+00  0.32017583344E+03  0.32017583344E+03  0.00000000000E+00 0. -1.
         -1   -1    0    0    0  501 -0.00000000000E+00 -0.00000000000E+00 -0.93186133491E+02  0.93186133491E+02  0.00000000000E+00 0.  1.
         23    2    1    2    0    0  0.64936751339E+02 -0.94078900581E+02  0.36226606676E+02  0.17321654345E+03  0.12499593067E+03 0.  0.
          5    1    3    3  502    0 -0.42455208123E+01  0.27755034169E+02  0.17026477268E+00  0.28469024549E+02  0.47000000000E+01 0.  1.
         -5    1    3    3    0  502  0.69182272152E+02 -0.12183393475E+03  0.36056341904E+02  0.14474751890E+03  0.47000000000E+01 0.  1.
        -11    1    1    2    0    0 -0.51162276256E+02  0.33754761110E+02  0.15939068015E+03  0.17076987828E+03  0.00000000000E+00 0. -1.
         11    1    1    2    0    0 -0.13774475083E+02  0.60324139471E+02  0.31372413126E+02  0.69375545202E+02  0.00000000000E+00 0.  1.
<mgrwt>
<rscale>  0 0.16317463E+03</rscale>
<asrwt>0</asrwt>
<pdfrwt beam="1">  1        1 0.49257820E-01 0.16938596E+03</pdfrwt>
<pdfrwt beam="2">  1       -1 0.14336328E-01 0.16938596E+03</pdfrwt>
<totfact> 0.27321065E+03</totfact>
</mgrwt>
</event>
<event>
 7    1  0.6387485E-006  0.2295819E+03  0.7546771E-02  0.1129964E+00
          1   -1    0    0  501    0  0.00000000000E+00  0.00000000000E+00  0.93413841333E+03  0.93413841333E+03  0.00000000000E+00 0. -1.
         -1   -1    0    0    0  501 -0.00000000000E+00 -0.00000000000E+00 -0.52646139402E+02  0.52646139402E+02  0.00000000000E+00 0.  1.
         23    2    1    2    0    0  0.19176614515E+03 -0.17505782646E+02  0.42626985104E+03  0.48416301757E+03  0.12500853904E+03 0.  0.
          5    1    3    3  502    0  0.18176225580E+03 -0.54926243358E+02  0.36631335521E+03  0.41262813046E+03  0.47000000000E+01 0.  1.
         -5    1    3    3    0  502  0.10003889341E+02  0.37420460713E+02  0.59956495832E+02  0.71534887114E+02  0.47000000000E+01 0.  1.
        -11    1    1    2    0    0 -0.14355277098E+03  0.10895055776E+02  0.22357116142E+03  0.26591382912E+03  0.00000000000E+00 0.  1.
         11    1    1    2    0    0 -0.48213374160E+02  0.66107268699E+01  0.23165126147E+03  0.23670770604E+03  0.00000000000E+00 0. -1.
<mgrwt>
<rscale>  0 0.22533899E+03</rscale>
<asrwt>0</asrwt>
<pdfrwt beam="1">  1        1 0.14371359E+00 0.22958188E+03</pdfrwt>
<pdfrwt beam="2">  1       -1 0.80994067E-02 0.22958188E+03</pdfrwt>
<totfact> 0.15165564E+03</totfact>
</mgrwt>
</event>
<event>
 7    1  0.6387485E-006  0.1525080E+03  0.7546771E-02  0.1206135E+00
          3   -1    0    0  501    0  0.00000000000E+00  0.00000000000E+00  0.61076221726E+02  0.61076221726E+02  0.00000000000E+00 0. -1.
         -3   -1    0    0    0  501 -0.00000000000E+00 -0.00000000000E+00 -0.32100750118E+03  0.32100750118E+03  0.00000000000E+00 0.  1.
         23    2    1    2    0    0 -0.87050330560E+02 -0.74812051517E+01 -0.15995722077E+03  0.22100905493E+03  0.12499984561E+03 0.  0.
          5    1    3    3  502    0 -0.85091456964E+02 -0.51224313511E+02 -0.14222338862E+03  0.17353405606E+03  0.47000000000E+01 0.  1.
         -5    1    3    3    0  502 -0.19588735960E+01  0.43743108359E+02 -0.17733832151E+02  0.47474998867E+02  0.47000000000E+01 0.  1.
        -11    1    1    2    0    0 -0.16825313544E+01 -0.29905897224E+02 -0.25735440182E+02  0.39490587257E+02  0.00000000000E+00 0. -1.
         11    1    1    2    0    0  0.88732861915E+02  0.37387102375E+02 -0.74238618503E+02  0.12158408072E+03  0.00000000000E+00 0.  1.
<mgrwt>
<rscale>  0 0.14548404E+03</rscale>
<asrwt>0</asrwt>
<pdfrwt beam="1">  1        3 0.93963420E-02 0.15250800E+03</pdfrwt>
<pdfrwt beam="2">  1       -3 0.49385768E-01 0.15250800E+03</pdfrwt>
<totfact> 0.78807142E+02</totfact>
</mgrwt>
</event>
<event>
 7    1  0.6387485E-006  0.1544978E+03  0.7546771E-02  0.1203255E+00
         -2   -1    0    0    0  501 -0.00000000000E+00  0.00000000000E+00  0.35958517272E+02  0.35958517272E+02  0.00000000000E+00 0. -1.
          2   -1    0    0  501    0  0.00000000000E+00 -0.00000000000E+00 -0.87289945582E+03  0.87289945582E+03  0.00000000000E+00 0.  1.
         23    2    1    2    0    0 -0.85670936768E+01 -0.90669369450E+02 -0.17086494246E+03  0.23035709062E+03  0.12480076516E+03 0.  0.
          5    1    3    3  502    0 -0.47893519271E+02 -0.52962150445E+02 -0.15905430346E+03  0.17441083687E+03  0.47000000000E+01 0.  1.
         -5    1    3    3    0  502  0.39326425594E+02 -0.37707219005E+02 -0.11810639004E+02  0.55946253751E+02  0.47000000000E+01 0.  1.
        -11    1    1    2    0    0  0.20336282765E+02 -0.12184626571E+02 -0.83596844356E+02  0.86893393924E+02  0.00000000000E+00 0. -1.
         11    1    1    2    0    0 -0.11769189088E+02  0.10285399602E+03 -0.58247915173E+03  0.59160748855E+03  0.00000000000E+00 0.  1.
<mgrwt>
<rscale>  0 0.14775814E+03</rscale>
<asrwt>0</asrwt>
<pdfrwt beam="2">  1        2 0.13429220E+00 0.15449777E+03</pdfrwt>
<pdfrwt beam="1">  1       -2 0.55320806E-02 0.15449777E+03</pdfrwt>
<totfact> 0.51911445E+03</totfact>
</mgrwt>
</event>
<event>
 7    1  0.6387485E-006  0.1334842E+03  0.7546771E-02  0.1236643E+00
         -2   -1    0    0    0  501 -0.00000000000E+00  0.00000000000E+00  0.66215346323E+02  0.66215346323E+02  0.00000000000E+00 0.  1.
          2   -1    0    0  501    0  0.00000000000E+00 -0.00000000000E+00 -0.24678837341E+03  0.24678837341E+03  0.00000000000E+00 0. -1.
         23    2    1    2    0    0  0.36576885085E+02  0.29276437218E+02 -0.37245479067E+02  0.13858299966E+03  0.12499217490E+03 0.  0.
          5    1    3    3  502    0  0.45604536825E+02 -0.40033582898E+02 -0.38769648141E+01  0.60988379179E+02  0.47000000000E+01 0. -1.
         -5    1    3    3    0  502 -0.90276517393E+01  0.69310020117E+02 -0.33368514253E+02  0.77594620484E+02  0.47000000000E+01 0. -1.
        -11    1    1    2    0    0  0.19484923252E+02  0.97856343412E+01 -0.87570962584E+01  0.23496970198E+02  0.00000000000E+00 0.  1.
         11    1    1    2    0    0 -0.56061808337E+02 -0.39062071560E+02 -0.13457045176E+03  0.15092374987E+03  0.00000000000E+00 0. -1.
<mgrwt>
<rscale>  0 0.12399833E+03</rscale>
<asrwt>0</asrwt>
<pdfrwt beam="2">  1        2 0.37967442E-01 0.13348416E+03</pdfrwt>
<pdfrwt beam="1">  1       -2 0.10186976E-01 0.13348416E+03</pdfrwt>
<totfact> 0.82514751E+03</totfact>
</mgrwt>
</event>
<event>
 7    1  0.6387485E-006  0.1755521E+03  0.7546771E-02  0.1178609E+00
         -1   -1    0    0    0  501 -0.00000000000E+00  0.00000000000E+00  0.70928579663E+02  0.70928579663E+02  0.00000000000E+00 0.  1.
          1   -1    0    0  501    0  0.00000000000E+00 -0.00000000000E+00 -0.39202562327E+03  0.39202562327E+03  0.00000000000E+00 0. -1.
         23    2    1    2    0    0  0.10920100800E+03  0.57173927573E+02 -0.12747473891E+03  0.21695239697E+03  0.12499926140E+03 0.  0.
          5    1    3    3  502    0  0.12802181957E+03  0.68745819700E+02 -0.83870741774E+02  0.16784506349E+03  0.47000000000E+01 0.  1.
         -5    1    3    3    0  502 -0.18820811572E+02 -0.11571892127E+02 -0.43603997131E+02  0.49107333479E+02  0.47000000000E+01 0.  1.
        -11    1    1    2    0    0 -0.67682062504E+02 -0.20029385590E+02 -0.17257071401E+03  0.18644755082E+03  0.00000000000E+00 0. -1.
         11    1    1    2    0    0 -0.41518945499E+02 -0.37144541983E+02 -0.21051590686E+02  0.59554255137E+02  0.00000000000E+00 0.  1.
<mgrwt>
<rscale>  0 0.16927189E+03</rscale>
<asrwt>0</asrwt>
<pdfrwt beam="2">  1        1 0.60311632E-01 0.17555208E+03</pdfrwt>
<pdfrwt beam="1">  1       -1 0.10912090E-01 0.17555208E+03</pdfrwt>
<totfact> 0.32429344E+03</totfact>
</mgrwt>
</event>
<event>
 7    1  0.6387485E-006  0.1259222E+03  0.7546771E-02  0.1249123E+00
         -1   -1    0    0    0  501 -0.00000000000E+00  0.00000000000E+00  0.20326768682E+03  0.20326768682E+03  0.00000000000E+00 0.  1.
          1   -1    0    0  501    0  0.00000000000E+00 -0.00000000000E+00 -0.60338001983E+02  0.60338001983E+02  0.00000000000E+00 0. -1.
         23    2    1    2    0    0 -0.15120899989E+02 -0.24318640295E+01  0.10551885193E+03  0.16428822003E+03  0.12498734155E+03 0.  0.
          5    1    3    3  502    0 -0.21323753303E+02  0.47507770344E+02  0.10076528793E+03  0.11352279044E+03  0.47000000000E+01 0.  1.
         -5    1    3    3    0  502  0.62028533139E+01 -0.49939634373E+02  0.47535640036E+01  0.50765429589E+02  0.47000000000E+01 0.  1.
        -11    1    1    2    0    0  0.46845775330E+02  0.10740166560E+02  0.44797028933E+02  0.65701230165E+02  0.00000000000E+00 0.  1.
         11    1    1    2    0    0 -0.31724875341E+02 -0.83083025309E+01 -0.73861960298E+01  0.33616238608E+02  0.00000000000E+00 0. -1.
<mgrwt>
<rscale>  0 0.11641960E+03</rscale>
<asrwt>0</asrwt>
<pdfrwt beam="2">  1        1 0.92827697E-02 0.12592216E+03</pdfrwt>
<pdfrwt beam="1">  1       -1 0.31271951E-01 0.12592216E+03</pdfrwt>
<totfact> 0.63708850E+03</totfact>
</mgrwt>
</event>
<event>
 7    1  0.6387485E-006  0.1337584E+03  0.7546771E-02  0.1234631E+00
          2   -1    0    0  501    0  0.00000000000E+00  0.00000000000E+00  0.41001740697E+02  0.41001740697E+02  0.00000000000E+00 0. -1.
         -2   -1    0    0    0  501 -0.00000000000E+00 -0.00000000000E+00 -0.34466310591E+03  0.34466310591E+03  0.00000000000E+00 0.  1.
         23    2    1    2    0    0 -0.11268427863E+02 -0.46271300775E+02 -0.18944963172E+03  0.23191047611E+03  0.12499318074E+03 0.  0.
          5    1    3    3  502    0  0.45966400529E+02 -0.26068643411E+02 -0.29356172920E+02  0.60632986364E+02  0.47000000000E+01 0. -1.
         -5    1    3    3    0  502 -0.57234828392E+02 -0.20202657363E+02 -0.16009345880E+03  0.17127748975E+03  0.47000000000E+01 0. -1.
        -11    1    1    2    0    0 -0.10153955731E+02  0.49826141144E+02 -0.12079610479E+03  0.13106275631E+03  0.00000000000E+00 0.  1.
         11    1    1    2    0    0  0.21422383595E+02 -0.35548403695E+01  0.65843712962E+01  0.22691614185E+02  0.00000000000E+00 0. -1.
<mgrwt>
<rscale>  0 0.12528064E+03</rscale>
<asrwt>0</asrwt>
<pdfrwt beam="1">  1        2 0.63079600E-02 0.13375839E+03</pdfrwt>
<pdfrwt beam="2">  1       -2 0.53025094E-01 0.13375839E+03</pdfrwt>
<totfact> 0.37592612E+03</totfact>
</mgrwt>
</event>
<event>
 7    1  0.6387485E-006  0.1481114E+03  0.7546771E-02  0.1212344E+00
          1   -1    0    0  501    0  0.00000000000E+00  0.00000000000E+00  0.31495688086E+02  0.31495688086E+02  0.00000000000E+00 0. -1.
         -1   -1    0    0    0  501 -0.00000000000E+00 -0.00000000000E+00 -0.58633374903E+03  0.58633374903E+03  0.00000000000E+00 0.  1.
         23    2    1    2    0    0  0.25933971726E+02 -0.75125865176E+02 -0.35013125963E+03  0.38016955861E+03  0.12498210999E+03 0.  0.
          5    1    3    3  502    0  0.73497951292E+02 -0.24066398269E+02 -0.16561208382E+03  0.18284034751E+03  0.47000000000E+01 0. -1.
         -5    1    3    3    0  502 -0.47563979566E+02 -0.51059466907E+02 -0.18451917581E+03  0.19732921110E+03  0.47000000000E+01 0. -1.
        -11    1    1    2    0    0  0.12540508130E+02  0.65368627525E+02 -0.17741555428E+03  0.18949037102E+03  0.00000000000E+00 0.  1.
         11    1    1    2    0    0 -0.38474479856E+02  0.97572376510E+01 -0.27291247036E+02  0.48169507487E+02  0.00000000000E+00 0. -1.
<mgrwt>
<rscale>  0 0.14073471E+03</rscale>
<asrwt>0</asrwt>
<pdfrwt beam="1">  1        1 0.48454908E-02 0.14811143E+03</pdfrwt>
<pdfrwt beam="2">  1       -1 0.90205186E-01 0.14811143E+03</pdfrwt>
<totfact> 0.21413148E+03</totfact>
</mgrwt>
</event>
<event>
 7    1  0.6387485E-006  0.2038414E+03  0.7546771E-02  0.1151632E+00
         -1   -1    0    0    0  501 -0.00000000000E+00  0.00000000000E+00  0.15165492811E+03  0.15165492811E+03  0.00000000000E+00 0.  1.
          1   -1    0    0  501    0  0.00000000000E+00 -0.00000000000E+00 -0.29309472591E+03  0.29309472591E+03  0.00000000000E+00 0. -1.
         23    2    1    2    0    0  0.14449125435E+03  0.74105004423E+02  0.16906385831E+02  0.20454131732E+03  0.12321546309E+03 0.  0.
          5    1    3    3  502    0  0.46666329202E+02  0.33648121002E+02  0.66063776116E+02  0.87729441140E+02  0.47000000000E+01 0. -1.
         -5    1    3    3    0  502  0.97824925151E+02  0.40456883421E+02 -0.49157390284E+02  0.11681187618E+03  0.47000000000E+01 0. -1.
        -11    1    1    2    0    0 -0.31930606932E+02 -0.78743602970E+01  0.25419313769E+01  0.32985309219E+02  0.00000000000E+00 0.  1.
         11    1    1    2    0    0 -0.11256064742E+03 -0.66230644126E+02 -0.16088811501E+03  0.20722302749E+03  0.00000000000E+00 0. -1.
<mgrwt>
<rscale>  0 0.19777240E+03</rscale>
<asrwt>0</asrwt>
<pdfrwt beam="2">  1        1 0.45091496E-01 0.20384142E+03</pdfrwt>
<pdfrwt beam="1">  1       -1 0.23331527E-01 0.20384142E+03</pdfrwt>
<totfact> 0.14029802E+03</totfact>
</mgrwt>
</event>
<event>
 7    1  0.6387485E-006  0.1319024E+03  0.7546771E-02  0.1237971E+00
          1   -1    0    0  501    0  0.00000000000E+00  0.00000000000E+00  0.21021217497E+03  0.21021217497E+03  0.00000000000E+00 0. -1.
         -1   -1    0    0    0  501 -0.00000000000E+00 -0.00000000000E+00 -0.64634282808E+02  0.64634282808E+02  0.00000000000E+00 0.  1.
         23    2    1    2    0    0  0.20934614604E+01  0.42058207678E+02  0.70278065399E+02  0.14945649960E+03  0.12499985353E+03 0.  0.
          5    1    3    3  502    0  0.23054895444E+02  0.34564704846E+02  0.10210448059E+03  0.11033431915E+03  0.47000000000E+01 0. -1.
         -5    1    3    3    0  502 -0.20961433983E+02  0.74935028317E+01 -0.31826415190E+02  0.39122180450E+02  0.47000000000E+01 0. -1.
        -11    1    1    2    0    0  0.27720797082E+02 -0.45026608136E+02  0.10373274631E+02  0.53883604721E+02  0.00000000000E+00 0.  1.
         11    1    1    2    0    0 -0.29814258543E+02  0.29684004584E+01  0.64926552136E+02  0.71506353466E+02  0.00000000000E+00 0. -1.
<mgrwt>
<rscale>  0 0.12316127E+03</rscale>
<asrwt>0</asrwt>
<pdfrwt beam="1">  1        1 0.32340334E-01 0.13190238E+03</pdfrwt>
<pdfrwt beam="2">  1       -1 0.99437359E-02 0.13190238E+03</pdfrwt>
<totfact> 0.80008458E+03</totfact>
</mgrwt>
</event>
<event>
 7    1  0.7485456E-006  0.1508311E+03  0.7546771E-02  0.1209035E+00
          3   -1    0    0  501    0  0.00000000000E+00  0.00000000000E+00  0.68461049905E+03  0.68461049905E+03  0.00000000000E+00 0. -1.
         -3   -1    0    0    0  501 -0.00000000000E+00 -0.00000000000E+00 -0.27709338318E+02  0.27709338318E+02  0.00000000000E+00 0.  1.
         23    2    1    2    0    0  0.74504561585E+02  0.39667010052E+02  0.31968912259E+03  0.35348431953E+03  0.12500251065E+03 0.  0.
          5    1    3    3  502    0  0.68728922428E+02 -0.53464352050E+01  0.65416311290E+02  0.95150580294E+02  0.47000000000E+01 0. -1.
         -5    1    3    3    0  502  0.57756391575E+01  0.45013445257E+02  0.25427281130E+03  0.25833373923E+03  0.47000000000E+01 0. -1.
        -11    1    1    2    0    0 -0.33435461639E+02  0.15694796283E+02  0.43136890966E+02  0.56789506844E+02  0.00000000000E+00 0.  1.
         11    1    1    2    0    0 -0.41069099946E+02 -0.55361806335E+02  0.29407514718E+03  0.30204601100E+03  0.00000000000E+00 0. -1.
<mgrwt>
<rscale>  0 0.14323983E+03</rscale>
<asrwt>0</asrwt>
<pdfrwt beam="1">  1        3 0.10532468E+00 0.15083113E+03</pdfrwt>
<pdfrwt beam="2">  1       -3 0.42629756E-02 0.15083113E+03</pdfrwt>
<totfact> 0.55634627E+02</totfact>
</mgrwt>
</event>
<event>
 7    1  0.6387485E-006  0.1368516E+03  0.7546771E-02  0.1228751E+00
         -2   -1    0    0    0  501 -0.00000000000E+00  0.00000000000E+00  0.29188294079E+02  0.29188294079E+02  0.00000000000E+00 0.  1.
          2   -1    0    0  501    0  0.00000000000E+00 -0.00000000000E+00 -0.60298222098E+03  0.60298222098E+03  0.00000000000E+00 0. -1.
         23    2    1    2    0    0  0.34962102615E+02 -0.43389565384E+02 -0.19557368607E+03  0.23869944970E+03  0.12499343024E+03 0.  0.
          5    1    3    3  502    0  0.66114771667E+02  0.14830869209E+01 -0.16039248157E+03  0.17355460444E+03  0.47000000000E+01 0. -1.
         -5    1    3    3    0  502 -0.31152669052E+02 -0.44872652304E+02 -0.35181204498E+02  0.65144845259E+02  0.47000000000E+01 0. -1.
        -11    1    1    2    0    0  0.81903258039E+01  0.61238954249E+02 -0.21418134349E+03  0.22291464477E+03  0.00000000000E+00 0.  1.
         11    1    1    2    0    0 -0.43152428419E+02 -0.17849388866E+02 -0.16403889735E+03  0.17055642059E+03  0.00000000000E+00 0. -1.
<mgrwt>
<rscale>  0 0.12913071E+03</rscale>
<asrwt>0</asrwt>
<pdfrwt beam="2">  1        2 0.92766487E-01 0.13685160E+03</pdfrwt>
<pdfrwt beam="1">  1       -2 0.44905072E-02 0.13685160E+03</pdfrwt>
<totfact> 0.11037973E+04</totfact>
</mgrwt>
</event>
<event>
 7    1  0.6387485E-006  0.1465147E+03  0.7546771E-02  0.1214245E+00
         -2   -1    0    0    0  501 -0.00000000000E+00  0.00000000000E+00  0.29588267145E+03  0.29588267145E+03  0.00000000000E+00 0.  1.
          2   -1    0    0  501    0  0.00000000000E+00 -0.00000000000E+00 -0.64387633212E+02  0.64387633212E+02  0.00000000000E+00 0. -1.
         23    2    1    2    0    0  0.52338571372E+02  0.55697890293E+02  0.17377723333E+03  0.22729953648E+03  0.12499988570E+03 0.  0.
          5    1    3    3  502    0  0.85173519471E+02  0.32075800594E+02  0.16031941353E+03  0.18441201088E+03  0.47000000000E+01 0.  1.
         -5    1    3    3    0  502 -0.32834948099E+02  0.23622089699E+02  0.13457819805E+02  0.42887525603E+02  0.47000000000E+01 0.  1.
        -11    1    1    2    0    0 -0.56444072561E+02 -0.81969481808E+01  0.63021073887E+02  0.84998700229E+02  0.00000000000E+00 0.  1.
         11    1    1    2    0    0  0.41055011887E+01 -0.47500942112E+02 -0.53032689816E+01  0.47972067950E+02  0.00000000000E+00 0. -1.
<mgrwt>
<rscale>  0 0.13932110E+03</rscale>
<asrwt>0</asrwt>
<pdfrwt beam="2">  1        2 0.99057899E-02 0.14651468E+03</pdfrwt>
<pdfrwt beam="1">  1       -2 0.45520410E-01 0.14651468E+03</pdfrwt>
<totfact> 0.28963524E+03</totfact>
</mgrwt>
</event>
<event>
 7    1  0.6387485E-006  0.1419805E+03  0.7546771E-02  0.1220098E+00
         -1   -1    0    0    0  501 -0.00000000000E+00  0.00000000000E+00  0.45986119514E+02  0.45986119514E+02  0.00000000000E+00 0.  1.
          1   -1    0    0  501    0  0.00000000000E+00 -0.00000000000E+00 -0.55732466391E+03  0.55732466391E+03  0.00000000000E+00 0. -1.
         23    2    1    2    0    0  0.37068008766E+02  0.56160770943E+02 -0.94536112679E+02  0.17057416078E+03  0.12502159117E+03 0.  0.
          5    1    3    3  502    0 -0.88000456903E+01 -0.28087655250E+02 -0.62649458627E+02  0.69378684392E+02  0.47000000000E+01 0. -1.
         -5    1    3    3    0  502  0.45868054456E+02  0.84248426193E+02 -0.31886654052E+02  0.10119547639E+03  0.47000000000E+01 0. -1.
        -11    1    1    2    0    0 -0.56939373307E+02 -0.17021451583E+01 -0.17301812666E+03  0.18215449949E+03  0.00000000000E+00 0.  1.
         11    1    1    2    0    0  0.19871364542E+02 -0.54458625785E+02 -0.24378430505E+03  0.25058212314E+03  0.00000000000E+00 0. -1.
<mgrwt>
<rscale>  0 0.13508612E+03</rscale>
<asrwt>0</asrwt>
<pdfrwt beam="2">  1        1 0.85742252E-01 0.14198052E+03</pdfrwt>
<pdfrwt beam="1">  1       -1 0.70747880E-02 0.14198052E+03</pdfrwt>
<totfact> 0.39378221E+03</totfact>
</mgrwt>
</event>
<event>
 7    1  0.6387485E-006  0.1603155E+03  0.7546771E-02  0.1195751E+00
         -2   -1    0    0    0  501 -0.00000000000E+00  0.00000000000E+00  0.40058337461E+02  0.40058337461E+02  0.00000000000E+00 0.  1.
          2   -1    0    0  501    0  0.00000000000E+00 -0.00000000000E+00 -0.55035506052E+03  0.55035506052E+03  0.00000000000E+00 0. -1.
         23    2    1    2    0    0  0.24993586011E+02  0.97037294802E+02 -0.29222528033E+03  0.33331169446E+03  0.12514054211E+03 0.  0.
          5    1    3    3  502    0  0.30834544947E+02  0.84343744457E+02 -0.79359561177E+02  0.11993609274E+03  0.47000000000E+01 0. -1.
         -5    1    3    3    0  502 -0.58409589364E+01  0.12693550345E+02 -0.21286571915E+03  0.21337560172E+03  0.47000000000E+01 0. -1.
        -11    1    1    2    0    0 -0.58556535055E+02 -0.69225545897E+02 -0.16641138535E+03  0.18950934852E+03  0.00000000000E+00 0.  1.
         11    1    1    2    0    0  0.33562949044E+02 -0.27811748905E+02 -0.51660057384E+02  0.67592355002E+02  0.00000000000E+00 0. -1.
<mgrwt>
<rscale>  0 0.15390877E+03</rscale>
<asrwt>0</asrwt>
<pdfrwt beam="2">  1        2 0.84670008E-01 0.16031554E+03</pdfrwt>
<pdfrwt beam="1">  1       -2 0.61628213E-02 0.16031554E+03</pdfrwt>
<totfact> 0.76668889E+03</totfact>
</mgrwt>
</event>
<event>
 7    1  0.6387485E-006  0.2159966E+03  0.7546771E-02  0.1139766E+00
          1   -1    0    0  501    0  0.00000000000E+00  0.00000000000E+00  0.82370561437E+03  0.82370561437E+03  0.00000000000E+00 0. -1.
         -1   -1    0    0    0  501 -0.00000000000E+00 -0.00000000000E+00 -0.68303786968E+02  0.68303786968E+02  0.00000000000E+00 0.  1.
         23    2    1    2    0    0 -0.38161789839E+02 -0.17597919570E+03  0.17621805887E+03  0.27876032897E+03  0.11928754004E+03 0.  0.
          5    1    3    3  502    0 -0.52298083628E+02 -0.15839722688E+03  0.18922746942E+03  0.25229723783E+03  0.47000000000E+01 0. -1.
         -5    1    3    3    0  502  0.14136293790E+02 -0.17581968820E+02 -0.13009410544E+02  0.26463091135E+02  0.47000000000E+01 0.  1.
        -11    1    1    2    0    0  0.41128634374E+02  0.63859855217E+02  0.13278118868E+03  0.15297218617E+03  0.00000000000E+00 0.  1.
         11    1    1    2    0    0 -0.29668445359E+01  0.11211934048E+03  0.44640257985E+03  0.46027688620E+03  0.00000000000E+00 0. -1.
<mgrwt>
<rscale>  0 0.21228945E+03</rscale>
<asrwt>0</asrwt>
<pdfrwt beam="1">  1        1 0.12672393E+00 0.21599657E+03</pdfrwt>
<pdfrwt beam="2">  1       -1 0.10508275E-01 0.21599657E+03</pdfrwt>
<totfact> 0.12427726E+03</totfact>
</mgrwt>
</event>
<event>
 7    1  0.6387485E-006  0.1280844E+03  0.7546771E-02  0.1245364E+00
         -1   -1    0    0    0  501 -0.00000000000E+00  0.00000000000E+00  0.15784475368E+02  0.15784475368E+02  0.00000000000E+00 0.  1.
          1   -1    0    0  501    0  0.00000000000E+00 -0.00000000000E+00 -0.80125293622E+03  0.80125293622E+03  0.00000000000E+00 0. -1.
         23    2    1    2    0    0  0.10797350313E+02 -0.25763010445E+02 -0.39028533307E+03  0.41076544897E+03  0.12500118951E+03 0.  0.
          5    1    3    3  502    0  0.25813233733E+02  0.28448734543E+02 -0.31122032673E+03  0.31361733897E+03  0.47000000000E+01 0. -1.
         -5    1    3    3    0  502 -0.15015883420E+02 -0.54211744988E+02 -0.79065006334E+02  0.97148109998E+02  0.47000000000E+01 0. -1.
        -11    1    1    2    0    0 -0.75685305078E+01  0.57382546651E+02 -0.30989776951E+03  0.31525650963E+03  0.00000000000E+00 0. -1.
         11    1    1    2    0    0 -0.32288198054E+01 -0.31619536206E+02 -0.85285358274E+02  0.91015452991E+02  0.00000000000E+00 0.  1.
<mgrwt>
<rscale>  0 0.11863636E+03</rscale>
<asrwt>0</asrwt>
<pdfrwt beam="2">  1        1 0.12326967E+00 0.12808440E+03</pdfrwt>
<pdfrwt beam="1">  1       -1 0.24283810E-02 0.12808440E+03</pdfrwt>
<totfact> 0.11310638E+04</totfact>
</mgrwt>
</event>
<event>
 6    1  0.6387485E-006  0.2622249E+03  0.7546771E-02  0.1135641E+00
         -1   -1    0    0    0  501 -0.00000000000E+00  0.00000000000E+00  0.67149536976E+02  0.67149536976E+02  0.00000000000E+00 0.  1.
          1   -1    0    0  501    0  0.00000000000E+00 -0.00000000000E+00 -0.55775270301E+03  0.55775270301E+03  0.00000000000E+00 0. -1.
          5    1    1    2  502    0 -0.73574980078E+02 -0.45454695979E+02 -0.15450598651E+03  0.17712593528E+03  0.47000000000E+01 0. -1.
         -5    1    1    2    0  502  0.12896819691E+03  0.10923485607E+03 -0.16549397413E+03  0.23659119820E+03  0.47000000000E+01 0.  1.
        -11    1    1    2    0    0 -0.58524515403E+02  0.84967721652E+00 -0.95945266102E+02  0.11238921186E+03  0.00000000000E+00 0. -1.
         11    1    1    2    0    0  0.31312985748E+01 -0.64629837303E+02 -0.74657939293E+02  0.98795894651E+02  0.00000000000E+00 0.  1.
<mgrwt>
<rscale>  0 0.21765809E+03</rscale>
<asrwt>0</asrwt>
<pdfrwt beam="2">  1        1 0.85808103E-01 0.26222489E+03</pdfrwt>
<pdfrwt beam="1">  1       -1 0.10330699E-01 0.26222489E+03</pdfrwt>
<totfact> 0.22490778E+03</totfact>
</mgrwt>
</event>
<event>
 7    1  0.6387485E-006  0.1464497E+03  0.7546771E-02  0.1214215E+00
         -3   -1    0    0    0  501 -0.00000000000E+00  0.00000000000E+00  0.40706847852E+03  0.40706847852E+03  0.00000000000E+00 0. -1.
          3   -1    0    0  501    0  0.00000000000E+00 -0.00000000000E+00 -0.43700614810E+02  0.43700614810E+02  0.00000000000E+00 0.  1.
         23    2    1    2    0    0  0.69247527868E+02  0.32046033659E+02  0.20982264616E+03  0.25587702718E+03  0.12500136723E+03 0.  0.
          5    1    3    3  502    0  0.50293875549E+02 -0.30602165445E+02  0.16795729602E+03  0.17803850632E+03  0.47000000000E+01 0.  1.
         -5    1    3    3    0  502  0.18953652318E+02  0.62648199104E+02  0.41865350139E+02  0.77838520858E+02  0.47000000000E+01 0.  1.
        -11    1    1    2    0    0  0.81046125270E+00  0.23407387691E+02  0.65041181294E+02  0.69129717995E+02  0.00000000000E+00 0. -1.
         11    1    1    2    0    0 -0.70057989120E+02 -0.55453421350E+02  0.88504036260E+02  0.12576234815E+03  0.00000000000E+00 0.  1.
<mgrwt>
<rscale>  0 0.13934366E+03</rscale>
<asrwt>0</asrwt>
<pdfrwt beam="2">  1        3 0.67231718E-02 0.14644968E+03</pdfrwt>
<pdfrwt beam="1">  1       -3 0.62625917E-01 0.14644968E+03</pdfrwt>
<totfact> 0.83325528E+02</totfact>
</mgrwt>
</event>
<event>
 7    1  0.6387485E-006  0.1458210E+03  0.7546771E-02  0.1215738E+00
         -2   -1    0    0    0  501 -0.00000000000E+00  0.00000000000E+00  0.67223230606E+02  0.67223230606E+02  0.00000000000E+00 0. -1.
          2   -1    0    0  501    0  0.00000000000E+00 -0.00000000000E+00 -0.34688426043E+03  0.34688426043E+03  0.00000000000E+00 0.  1.
         23    2    1    2    0    0 -0.35198213428E+02 -0.66332271459E+02 -0.46748063953E+02  0.15313118245E+03  0.12499957236E+03 0.  0.
          5    1    3    3  502    0 -0.33177392837E-01  0.48011299422E+01 -0.69991137415E+02  0.70312881224E+02  0.47000000000E+01 0. -1.
         -5    1    3    3    0  502 -0.35165036035E+02 -0.71133401402E+02  0.23243073461E+02  0.82818301228E+02  0.47000000000E+01 0. -1.
        -11    1    1    2    0    0  0.55580253822E+02  0.13110848469E+02 -0.84401173569E+02  0.10190494130E+03  0.00000000000E+00 0. -1.
         11    1    1    2    0    0 -0.20382040393E+02  0.53221422991E+02 -0.14851179230E+03  0.15907136728E+03  0.00000000000E+00 0.  1.
<mgrwt>
<rscale>  0 0.13822490E+03</rscale>
<asrwt>0</asrwt>
<pdfrwt beam="2">  1        2 0.53366810E-01 0.14582105E+03</pdfrwt>
<pdfrwt beam="1">  1       -2 0.10342035E-01 0.14582105E+03</pdfrwt>
<totfact> 0.56444989E+03</totfact>
</mgrwt>
</event>
<event>
 7    1  0.6387485E-006  0.1718697E+03  0.7546771E-02  0.1182409E+00
          2   -1    0    0  501    0  0.00000000000E+00  0.00000000000E+00  0.11246104569E+03  0.11246104569E+03  0.00000000000E+00 0. -1.
         -2   -1    0    0    0  501 -0.00000000000E+00 -0.00000000000E+00 -0.22821326958E+03  0.22821326958E+03  0.00000000000E+00 0.  1.
         23    2    1    2    0    0 -0.11449712680E+03 -0.28365729881E+02 -0.65160915515E+02  0.18380735710E+03  0.12499997174E+03 0.  0.
          5    1    3    3  502    0 -0.11423301310E+03 -0.61638422598E+02 -0.73422506586E+02  0.14920265043E+03  0.47000000000E+01 0.  1.
         -5    1    3    3    0  502 -0.26411370434E+00  0.33272692717E+02  0.82615910709E+01  0.34604706670E+02  0.47000000000E+01 0.  1.
        -11    1    1    2    0    0  0.18819393553E+02  0.14915820052E+02 -0.55139361892E+02  0.60141503901E+02  0.00000000000E+00 0.  1.
         11    1    1    2    0    0  0.95677733247E+02  0.13449909829E+02  0.45480535109E+01  0.96725454273E+02  0.00000000000E+00 0. -1.
<mgrwt>
<rscale>  0 0.16569908E+03</rscale>
<asrwt>0</asrwt>
<pdfrwt beam="1">  1        2 0.17301699E-01 0.17186972E+03</pdfrwt>
<pdfrwt beam="2">  1       -2 0.35109733E-01 0.17186972E+03</pdfrwt>
<totfact> 0.24552605E+03</totfact>
</mgrwt>
</event>
<event>
 7    1  0.6387485E-006  0.1681861E+03  0.7546771E-02  0.1186044E+00
         -2   -1    0    0    0  501 -0.00000000000E+00  0.00000000000E+00  0.44677656256E+02  0.44677656256E+02  0.00000000000E+00 0.  1.
          2   -1    0    0  501    0  0.00000000000E+00 -0.00000000000E+00 -0.55282245969E+03  0.55282245969E+03  0.00000000000E+00 0. -1.
         23    2    1    2    0    0  0.74552673494E+02 -0.87092719554E+02 -0.26836104821E+03  0.31670842343E+03  0.12305823967E+03 0.  0.
          5    1    3    3  502    0 -0.25395532786E+01 -0.47065827024E+02 -0.20149605393E+03  0.20698886722E+03  0.47000000000E+01 0. -1.
         -5    1    3    3    0  502  0.77092226773E+02 -0.40026892530E+02 -0.66864994281E+02  0.10971955621E+03  0.47000000000E+01 0.  1.
        -11    1    1    2    0    0 -0.92204378735E+02  0.74463589475E+02 -0.22567928976E+03  0.25490707217E+03  0.00000000000E+00 0.  1.
         11    1    1    2    0    0  0.17651705241E+02  0.12629130079E+02 -0.14104465462E+02  0.25884620345E+02  0.00000000000E+00 0. -1.
<mgrwt>
<rscale>  0 0.16237216E+03</rscale>
<asrwt>0</asrwt>
<pdfrwt beam="2">  1        2 0.85049605E-01 0.16818613E+03</pdfrwt>
<pdfrwt beam="1">  1       -2 0.68734859E-02 0.16818613E+03</pdfrwt>
<totfact> 0.64711743E+03</totfact>
</mgrwt>
</event>
<event>
 7    1  0.6387485E-006  0.1594896E+03  0.7546771E-02  0.1199054E+00
         -3   -1    0    0    0  501 -0.00000000000E+00  0.00000000000E+00  0.29191229716E+03  0.29191229716E+03  0.00000000000E+00 0.  1.
          3   -1    0    0  501    0  0.00000000000E+00 -0.00000000000E+00 -0.74416090016E+02  0.74416090016E+02  0.00000000000E+00 0. -1.
         23    2    1    2    0    0 -0.76516588178E+02  0.62901734726E+02  0.15815729696E+03  0.22461225911E+03  0.12500207944E+03 0.  0.
          5    1    3    3  502    0 -0.78096885643E+02  0.67259040779E+02  0.47199520315E+02  0.11345830437E+03  0.47000000000E+01 0. -1.
         -5    1    3    3    0  502  0.15802974645E+01 -0.43573060529E+01  0.11095777664E+03  0.11115395474E+03  0.47000000000E+01 0. -1.
        -11    1    1    2    0    0 -0.77468725427E+01 -0.39644218255E+02  0.26632970042E+02  0.48383811017E+02  0.00000000000E+00 0.  1.
         11    1    1    2    0    0  0.84263460721E+02 -0.23257516472E+02  0.32705940147E+02  0.93332317050E+02  0.00000000000E+00 0. -1.
<mgrwt>
<rscale>  0 0.15116093E+03</rscale>
<asrwt>0</asrwt>
<pdfrwt beam="2">  1        3 0.11448629E-01 0.15948961E+03</pdfrwt>
<pdfrwt beam="1">  1       -3 0.44909584E-01 0.15948961E+03</pdfrwt>
<totfact> 0.68955818E+02</totfact>
</mgrwt>
</event>
<event>
 7    1  0.6387485E-006  0.1331638E+03  0.7546771E-02  0.1237926E+00
         -2   -1    0    0    0  501 -0.00000000000E+00  0.00000000000E+00  0.42329084526E+02  0.42329084526E+02  0.00000000000E+00 0.  1.
          2   -1    0    0  501    0  0.00000000000E+00 -0.00000000000E+00 -0.32878493423E+03  0.32878493423E+03  0.00000000000E+00 0. -1.
         23    2    1    2    0    0  0.15211650023E+02 -0.43339065502E+02 -0.12590579304E+03  0.18326176575E+03  0.12499174841E+03 0.  0.
          5    1    3    3  502    0  0.19341021842E+02  0.34995504667E+02 -0.71958543337E+01  0.40897809139E+02  0.47000000000E+01 0.  1.
         -5    1    3    3    0  502 -0.41293718189E+01 -0.78334570169E+02 -0.11870993871E+03  0.14236395661E+03  0.47000000000E+01 0.  1.
        -11    1    1    2    0    0  0.11644829128E+01  0.18259932782E+02  0.55130591465E+01  0.19109552240E+02  0.00000000000E+00 0.  1.
         11    1    1    2    0    0 -0.16376132935E+02  0.25079132720E+02 -0.16606311581E+03  0.16874270076E+03  0.00000000000E+00 0. -1.
<mgrwt>
<rscale>  0 0.12318974E+03</rscale>
<asrwt>0</asrwt>
<pdfrwt beam="2">  1        2 0.50582297E-01 0.13316383E+03</pdfrwt>
<pdfrwt beam="1">  1       -2 0.65121669E-02 0.13316383E+03</pdfrwt>
<totfact> 0.12157774E+04</totfact>
</mgrwt>
</event>
<event>
 7    1  0.6387485E-006  0.1548556E+03  0.7546771E-02  0.1202385E+00
          1   -1    0    0  501    0  0.00000000000E+00  0.00000000000E+00  0.13716127947E+03  0.13716127947E+03  0.00000000000E+00 0. -1.
         -1   -1    0    0    0  501 -0.00000000000E+00 -0.00000000000E+00 -0.14969042154E+03  0.14969042154E+03  0.00000000000E+00 0.  1.
         23    2    1    2    0    0  0.84062213773E+02  0.35898171164E+02 -0.18281539472E+02  0.15593101719E+03  0.12500053183E+03 0.  0.
          5    1    3    3  502    0  0.47740336878E+02  0.26008827673E+02 -0.71891793993E+02  0.90255852584E+02  0.47000000000E+01 0. -1.
         -5    1    3    3    0  502  0.36321876896E+02  0.98893434912E+01  0.53610254521E+02  0.65675164604E+02  0.47000000000E+01 0. -1.
        -11    1    1    2    0    0 -0.20348418348E+02  0.31065026475E+02  0.97781573065E+01  0.38401905675E+02  0.00000000000E+00 0.  1.
         11    1    1    2    0    0 -0.63713795425E+02 -0.66963197639E+02 -0.40257599052E+01  0.92518778139E+02  0.00000000000E+00 0. -1.
<mgrwt>
<rscale>  0 0.14845418E+03</rscale>
<asrwt>0</asrwt>
<pdfrwt beam="1">  1        1 0.21101735E-01 0.15485563E+03</pdfrwt>
<pdfrwt beam="2">  1       -1 0.23029296E-01 0.15485563E+03</pdfrwt>
<totfact> 0.36839974E+03</totfact>
</mgrwt>
</event>
<event>
 7    1  0.6387485E-006  0.1368796E+03  0.7546771E-02  0.1228908E+00
          2   -1    0    0  501    0  0.00000000000E+00  0.00000000000E+00  0.14529047486E+03  0.14529047486E+03  0.00000000000E+00 0. -1.
         -2   -1    0    0    0  501 -0.00000000000E+00 -0.00000000000E+00 -0.13440767268E+03  0.13440767268E+03  0.00000000000E+00 0.  1.
         23    2    1    2    0    0  0.54027170307E+02  0.13859978968E+02 -0.61052177654E+02  0.14987793110E+03  0.12499996675E+03 0.  0.
          5    1    3    3  502    0  0.37523869234E+02  0.29471162120E+02 -0.96361367982E+02  0.10762989082E+03  0.47000000000E+01 0.  1.
         -5    1    3    3    0  502  0.16503301073E+02 -0.15611183152E+02  0.35309190329E+02  0.42248040279E+02  0.47000000000E+01 0.  1.
        -11    1    1    2    0    0  0.23568892755E+02 -0.14007509418E+02  0.61675485956E+01  0.28102342989E+02  0.00000000000E+00 0.  1.
         11    1    1    2    0    0 -0.77596063062E+02  0.14753044979E+00  0.65767431233E+02  0.10171787345E+03  0.00000000000E+00 0. -1.
<mgrwt>
<rscale>  0 0.12902626E+03</rscale>
<asrwt>0</asrwt>
<pdfrwt beam="1">  1        2 0.22352381E-01 0.13687960E+03</pdfrwt>
<pdfrwt beam="2">  1       -2 0.20678103E-01 0.13687960E+03</pdfrwt>
<totfact> 0.46362884E+03</totfact>
</mgrwt>
</event>
<event>
 7    1  0.6387485E-006  0.1350313E+03  0.7546771E-02  0.1231303E+00
         -1   -1    0    0    0  501 -0.00000000000E+00  0.00000000000E+00  0.55845912320E+02  0.55845912320E+02  0.00000000000E+00 0.  1.
          1   -1    0    0  501    0  0.00000000000E+00 -0.00000000000E+00 -0.26252760774E+03  0.26252760774E+03  0.00000000000E+00 0. -1.
         23    2    1    2    0    0  0.40294022641E+02 -0.31384301254E+02 -0.11509232719E+03  0.17742517117E+03  0.12499945984E+03 0.  0.
          5    1    3    3  502    0  0.62748359586E+02 -0.17077819480E+02 -0.65066959638E+01  0.65524313360E+02  0.47000000000E+01 0.  1.
         -5    1    3    3    0  502 -0.22454336945E+02 -0.14306481775E+02 -0.10858563123E+03  0.11190085781E+03  0.47000000000E+01 0.  1.
        -11    1    1    2    0    0  0.23503653497E+02  0.30945659062E+02 -0.55183472729E+02  0.67492749277E+02  0.00000000000E+00 0.  1.
         11    1    1    2    0    0 -0.63797676138E+02  0.43864219222E+00 -0.36405895492E+02  0.73455599611E+02  0.00000000000E+00 0. -1.
<mgrwt>
<rscale>  0 0.12744073E+03</rscale>
<asrwt>0</asrwt>
<pdfrwt beam="2">  1        1 0.40388862E-01 0.13503128E+03</pdfrwt>
<pdfrwt beam="1">  1       -1 0.85916790E-02 0.13503128E+03</pdfrwt>
<totfact> 0.76007178E+03</totfact>
</mgrwt>
</event>
<event>
 7    1  0.6387485E-006  0.1499239E+03  0.7546771E-02  0.1208404E+00
          2   -1    0    0  501    0  0.00000000000E+00  0.00000000000E+00  0.10983591012E+04  0.10983591012E+04  0.00000000000E+00 0.  1.
         -2   -1    0    0    0  501 -0.00000000000E+00 -0.00000000000E+00 -0.18688642206E+02  0.18688642206E+02  0.00000000000E+00 0. -1.
         23    2    1    2    0    0 -0.28053702195E+02 -0.77571014166E+02  0.43642927249E+03  0.46146254404E+03  0.12519144230E+03 0.  0.
          5    1    3    3  502    0 -0.22437534815E+02  0.24835592829E+02  0.21183702985E+03  0.21451635568E+03  0.47000000000E+01 0. -1.
         -5    1    3    3    0  502 -0.56161673796E+01 -0.10240660699E+03  0.22459224264E+03  0.24694618836E+03  0.47000000000E+01 0. -1.
        -11    1    1    2    0    0  0.15614666880E+02 -0.21304026660E+02  0.11144877495E+03  0.11453605900E+03  0.00000000000E+00 0. -1.
         11    1    1    2    0    0  0.12439035315E+02  0.98875040826E+02  0.53179241155E+03  0.54104914036E+03  0.00000000000E+00 0.  1.
<mgrwt>
<rscale>  0 0.14372392E+03</rscale>
<asrwt>0</asrwt>
<pdfrwt beam="1">  1        2 0.16897827E+00 0.14992388E+03</pdfrwt>
<pdfrwt beam="2">  1       -2 0.28751766E-02 0.14992388E+03</pdfrwt>
<totfact> 0.10040198E+04</totfact>
</mgrwt>
</event>
<event>
 7    1  0.6387485E-006  0.1441085E+03  0.7546771E-02  0.1217783E+00
         -3   -1    0    0    0  501 -0.00000000000E+00  0.00000000000E+00  0.49816880715E+02  0.49816880715E+02  0.00000000000E+00 0.  1.
          3   -1    0    0  501    0  0.00000000000E+00 -0.00000000000E+00 -0.35008665336E+03  0.35008665336E+03  0.00000000000E+00 0. -1.
         23    2    1    2    0    0  0.41863398528E+02  0.58220285332E+02 -0.13462314172E+03  0.19720711809E+03  0.12500044551E+03 0.  0.
          5    1    3    3  502    0  0.30915431759E+02 -0.24677845866E+02 -0.98024644470E+02  0.10580964474E+03  0.47000000000E+01 0.  1.
         -5    1    3    3    0  502  0.10947966770E+02  0.82898131198E+02 -0.36598497250E+02  0.91397473343E+02  0.47000000000E+01 0.  1.
        -11    1    1    2    0    0 -0.10634626417E+02 -0.37338137198E+02 -0.67328961141E+01  0.39402584415E+02  0.00000000000E+00 0.  1.
         11    1    1    2    0    0 -0.31228772111E+02 -0.20882148134E+02 -0.15891373481E+03  0.16329383157E+03  0.00000000000E+00 0. -1.
<mgrwt>
<rscale>  0 0.13674043E+03</rscale>
<asrwt>0</asrwt>
<pdfrwt beam="2">  1        3 0.53859487E-01 0.14410849E+03</pdfrwt>
<pdfrwt beam="1">  1       -3 0.76641353E-02 0.14410849E+03</pdfrwt>
<totfact> 0.91676038E+02</totfact>
</mgrwt>
</event>
<event>
 7    1  0.6387485E-006  0.1614346E+03  0.7546771E-02  0.1193489E+00
         -2   -1    0    0    0  501 -0.00000000000E+00  0.00000000000E+00  0.23224458692E+03  0.23224458692E+03  0.00000000000E+00 0.  1.
          2   -1    0    0  501    0  0.00000000000E+00 -0.00000000000E+00 -0.11642604997E+03  0.11642604997E+03  0.00000000000E+00 0. -1.
         23    2    1    2    0    0 -0.96520065402E+02  0.33107499920E+02  0.13073082812E+03  0.20772980443E+03  0.12509553411E+03 0.  0.
          5    1    3    3  502    0 -0.97637397025E+02  0.21874121760E+02  0.15267920262E+03  0.18260494904E+03  0.47000000000E+01 0. -1.
         -5    1    3    3    0  502  0.11173316226E+01  0.11233378161E+02 -0.21948374509E+02  0.25124855392E+02  0.47000000000E+01 0. -1.
        -11    1    1    2    0    0  0.70905225426E+02  0.23735953774E+02 -0.22617089869E+02  0.78118366908E+02  0.00000000000E+00 0. -1.
         11    1    1    2    0    0  0.25614839977E+02 -0.56843453694E+02  0.77047987062E+01  0.62822465552E+02  0.00000000000E+00 0.  1.
<mgrwt>
<rscale>  0 0.15582799E+03</rscale>
<asrwt>0</asrwt>
<pdfrwt beam="2">  1        2 0.17911700E-01 0.16143458E+03</pdfrwt>
<pdfrwt beam="1">  1       -2 0.35729936E-01 0.16143458E+03</pdfrwt>
<totfact> 0.22771303E+03</totfact>
</mgrwt>
</event>
<event>
 7    1  0.6387485E-006  0.1389945E+03  0.7546771E-02  0.1227080E+00
         -1   -1    0    0    0  501 -0.00000000000E+00  0.00000000000E+00  0.33438783395E+02  0.33438783395E+02  0.00000000000E+00 0.  1.
          1   -1    0    0  501    0  0.00000000000E+00 -0.00000000000E+00 -0.51589628620E+03  0.51589628620E+03  0.00000000000E+00 0. -1.
         23    2    1    2    0    0 -0.60594551232E+02  0.46517846953E+01 -0.17349584054E+03  0.22230674293E+03  0.12500457003E+03 0.  0.
          5    1    3    3  502    0 -0.71392861313E+01 -0.12144057677E+02 -0.16473109814E+03  0.16539913010E+03  0.47000000000E+01 0.  1.
         -5    1    3    3    0  502 -0.53455265100E+02  0.16795842373E+02 -0.87647423912E+01  0.56907612822E+02  0.47000000000E+01 0.  1.
        -11    1    1    2    0    0  0.69469254936E+02  0.26363325486E+02 -0.23098889724E+03  0.24264557066E+03  0.00000000000E+00 0.  1.
         11    1    1    2    0    0 -0.88747037043E+01 -0.31015110181E+02 -0.77972765029E+02  0.84382756009E+02  0.00000000000E+00 0. -1.
<mgrwt>
<rscale>  0 0.13025348E+03</rscale>
<asrwt>0</asrwt>
<pdfrwt beam="2">  1        1 0.79368657E-01 0.13899454E+03</pdfrwt>
<pdfrwt beam="1">  1       -1 0.51444283E-02 0.13899454E+03</pdfrwt>
<totfact> 0.70082818E+03</totfact>
</mgrwt>
</event>
<event>
 7    1  0.6387485E-006  0.1527578E+03  0.7546771E-02  0.1204835E+00
          2   -1    0    0  501    0  0.00000000000E+00  0.00000000000E+00  0.95668495350E+03  0.95668495350E+03  0.00000000000E+00 0. -1.
         -2   -1    0    0    0  501 -0.00000000000E+00 -0.00000000000E+00 -0.20783489729E+02  0.20783489729E+02  0.00000000000E+00 0.  1.
         23    2    1    2    0    0 -0.67509225901E+01  0.87546287454E+02  0.50129030237E+03  0.52404856864E+03  0.12500003056E+03 0.  0.
          5    1    3    3  502    0  0.10449930556E+02  0.46522298101E+02  0.46210076065E+03  0.46457801095E+03  0.47000000000E+01 0.  1.
         -5    1    3    3    0  502 -0.17200853146E+02  0.41023989353E+02  0.39189541724E+02  0.59470557690E+02  0.47000000000E+01 0.  1.
        -11    1    1    2    0    0 -0.36755245579E+02 -0.13517794780E+02  0.87816146202E+02  0.96152765884E+02  0.00000000000E+00 0.  1.
         11    1    1    2    0    0  0.43506168169E+02 -0.74028492673E+02  0.34679501520E+03  0.35726710871E+03  0.00000000000E+00 0. -1.
<mgrwt>
<rscale>  0 0.14650447E+03</rscale>
<asrwt>0</asrwt>
<pdfrwt beam="1">  1        2 0.14718227E+00 0.15275777E+03</pdfrwt>
<pdfrwt beam="2">  1       -2 0.31974607E-02 0.15275777E+03</pdfrwt>
<totfact> 0.10427657E+04</totfact>
</mgrwt>
</event>
<event>
 7    1  0.6387485E-006  0.1281239E+03  0.7546771E-02  0.1246643E+00
         -2   -1    0    0    0  501 -0.00000000000E+00  0.00000000000E+00  0.13238800104E+02  0.13238800104E+02  0.00000000000E+00 0.  1.
          2   -1    0    0  501    0  0.00000000000E+00 -0.00000000000E+00 -0.93311548547E+03  0.93311548547E+03  0.00000000000E+00 0. -1.
         23    2    1    2    0    0 -0.17805804552E+02 -0.21759925920E+02 -0.46626902009E+03  0.48355200340E+03  0.12500079939E+03 0.  0.
          5    1    3    3  502    0 -0.38169575709E+02 -0.15121288330E+02 -0.45839361656E+03  0.46025250414E+03  0.47000000000E+01 0.  1.
         -5    1    3    3    0  502  0.20363771158E+02 -0.66386375898E+01 -0.78754035302E+01  0.23299499256E+02  0.47000000000E+01 0.  1.
        -11    1    1    2    0    0 -0.25396842394E+01  0.53645152027E+02 -0.28323256644E+03  0.28827927262E+03  0.00000000000E+00 0. -1.
         11    1    1    2    0    0  0.20345488791E+02 -0.31885226108E+02 -0.17037509884E+03  0.17452300955E+03  0.00000000000E+00 0.  1.
<mgrwt>
<rscale>  0 0.11787606E+03</rscale>
<asrwt>0</asrwt>
<pdfrwt beam="2">  1        2 0.14355620E+00 0.12812393E+03</pdfrwt>
<pdfrwt beam="1">  1       -2 0.20367389E-02 0.12812393E+03</pdfrwt>
<totfact> 0.20620540E+04</totfact>
</mgrwt>
</event>
<event>
 7    1  0.6387485E-006  0.1261988E+03  0.7546771E-02  0.1248714E+00
          3   -1    0    0  501    0  0.00000000000E+00  0.00000000000E+00  0.23363155075E+03  0.23363155075E+03  0.00000000000E+00 0. -1.
         -3   -1    0    0    0  501 -0.00000000000E+00 -0.00000000000E+00 -0.51396059627E+02  0.51396059627E+02  0.00000000000E+00 0.  1.
         23    2    1    2    0    0 -0.50137847920E+01 -0.16601992809E+02  0.11731702976E+03  0.17230616395E+03  0.12500145784E+03 0.  0.
          5    1    3    3  502    0 -0.23594979446E+02 -0.46808218753E+01  0.13891830520E+03  0.14106388151E+03  0.47000000000E+01 0. -1.
         -5    1    3    3    0  502  0.18581194654E+02 -0.11921170933E+02 -0.21601275441E+02  0.31242282437E+02  0.47000000000E+01 0. -1.
        -11    1    1    2    0    0 -0.75222379031E+01 -0.33685716820E+02  0.74031276134E+01  0.35300394888E+02  0.00000000000E+00 0.  1.
         11    1    1    2    0    0  0.12536022695E+02  0.50287709629E+02  0.57515333750E+02  0.77421051537E+02  0.00000000000E+00 0. -1.
<mgrwt>
<rscale>  0 0.11665834E+03</rscale>
<asrwt>0</asrwt>
<pdfrwt beam="1">  1        3 0.35943315E-01 0.12619877E+03</pdfrwt>
<pdfrwt beam="2">  1       -3 0.79070862E-02 0.12619877E+03</pdfrwt>
<totfact> 0.18799084E+03</totfact>
</mgrwt>
</event>
<event>
 7    1  0.6387485E-006  0.1268797E+03  0.7546771E-02  0.1248054E+00
         -2   -1    0    0    0  501 -0.00000000000E+00  0.00000000000E+00  0.43343114416E+02  0.43343114416E+02  0.00000000000E+00 0.  1.
          2   -1    0    0  501    0  0.00000000000E+00 -0.00000000000E+00 -0.27723742007E+03  0.27723742007E+03  0.00000000000E+00 0. -1.
         23    2    1    2    0    0  0.21897038852E+02  0.16013910273E+01 -0.12514273300E+03  0.17821098257E+03  0.12496561896E+03 0.  0.
          5    1    3    3  502    0  0.12874077485E+02 -0.96174586883E+01  0.23469204949E+02  0.28829342061E+02  0.47000000000E+01 0.  1.
         -5    1    3    3    0  502  0.90229613678E+01  0.11218849716E+02 -0.14861193794E+03  0.14938164051E+03  0.47000000000E+01 0.  1.
        -11    1    1    2    0    0  0.29989983626E+01 -0.23042989176E+02  0.51691152010E+01  0.23805316492E+02  0.00000000000E+00 0.  1.
         11    1    1    2    0    0 -0.24896037215E+02  0.21441598148E+02 -0.11392068786E+03  0.11856423543E+03  0.00000000000E+00 0. -1.
<mgrwt>
<rscale>  0 0.11704447E+03</rscale>
<asrwt>0</asrwt>
<pdfrwt beam="2">  1        2 0.42651911E-01 0.12687967E+03</pdfrwt>
<pdfrwt beam="1">  1       -2 0.66681715E-02 0.12687967E+03</pdfrwt>
<totfact> 0.13989651E+04</totfact>
</mgrwt>
</event>
<event>
 7    1  0.6387485E-006  0.1380404E+03  0.7546771E-02  0.1227862E+00
         -1   -1    0    0    0  501 -0.00000000000E+00  0.00000000000E+00  0.16820404478E+03  0.16820404478E+03  0.00000000000E+00 0.  1.
          1   -1    0    0  501    0  0.00000000000E+00 -0.00000000000E+00 -0.93281376096E+02  0.93281376096E+02  0.00000000000E+00 0. -1.
         23    2    1    2    0    0  0.56429333973E+02 -0.15629247540E+02  0.67229170820E+02  0.15354126176E+03  0.12500645801E+03 0.  0.
          5    1    3    3  502    0  0.76926075710E+02 -0.25064941071E+02 -0.14932402870E+01  0.81056721878E+02  0.47000000000E+01 0. -1.
         -5    1    3    3    0  502 -0.20496741737E+02  0.94356935314E+01  0.68722411107E+02  0.72484539887E+02  0.47000000000E+01 0. -1.
        -11    1    1    2    0    0 -0.17699300735E+02  0.46746750592E+02 -0.16561507492E+02  0.52657454058E+02  0.00000000000E+00 0.  1.
         11    1    1    2    0    0 -0.38730033239E+02 -0.31117503053E+02  0.24255005356E+02  0.55286705054E+02  0.00000000000E+00 0. -1.
<mgrwt>
<rscale>  0 0.12972630E+03</rscale>
<asrwt>0</asrwt>
<pdfrwt beam="2">  1        1 0.14350981E-01 0.13804042E+03</pdfrwt>
<pdfrwt beam="1">  1       -1 0.25877545E-01 0.13804042E+03</pdfrwt>
<totfact> 0.49601529E+03</totfact>
</mgrwt>
</event>
<event>
 7    1  0.6387485E-006  0.1269496E+03  0.7546771E-02  0.1254877E+00
         -1   -1    0    0    0  501 -0.00000000000E+00  0.00000000000E+00  0.74441977425E+02  0.74441977425E+02  0.00000000000E+00 0.  1.
          1   -1    0    0  501    0  0.00000000000E+00 -0.00000000000E+00 -0.15516402321E+03  0.15516402321E+03  0.00000000000E+00 0. -1.
         23    2    1    2    0    0 -0.21333220215E+02 -0.52334987051E+01 -0.18684163100E+02  0.12831713550E+03  0.12503476924E+03 0.  0.
          5    1    3    3  502    0 -0.36645398764E+02  0.54035948914E+02 -0.12122714701E+02  0.66571910273E+02  0.47000000000E+01 0.  1.
         -5    1    3    3    0  502  0.15312178550E+02 -0.59269447619E+02 -0.65614483991E+01  0.61745225225E+02  0.47000000000E+01 0.  1.
        -11    1    1    2    0    0  0.45755212789E+02 -0.44678917378E+01 -0.59057938858E+02  0.74842111783E+02  0.00000000000E+00 0.  1.
         11    1    1    2    0    0 -0.24421992574E+02  0.97013904429E+01 -0.29799438270E+01  0.26446753355E+02  0.00000000000E+00 0. -1.
<mgrwt>
<rscale>  0 0.11313236E+03</rscale>
<asrwt>0</asrwt>
<pdfrwt beam="2">  1        1 0.23871388E-01 0.12694955E+03</pdfrwt>
<pdfrwt beam="1">  1       -1 0.11452612E-01 0.12694955E+03</pdfrwt>
<totfact> 0.93837276E+03</totfact>
</mgrwt>
</event>
<event>
 7    1  0.6387485E-006  0.1289233E+03  0.7546771E-02  0.1244537E+00
         -2   -1    0    0    0  501 -0.00000000000E+00  0.00000000000E+00  0.65296235109E+02  0.65296235109E+02  0.00000000000E+00 0. -1.
          2   -1    0    0  501    0  0.00000000000E+00 -0.00000000000E+00 -0.19055634061E+03  0.19055634061E+03  0.00000000000E+00 0.  1.
         23    2    1    2    0    0  0.30364877978E+02 -0.86142255987E+01 -0.67447918378E+02  0.14550060697E+03  0.12499989695E+03 0.  0.
          5    1    3    3  502    0  0.45814974672E+02 -0.15038249735E+02  0.22834928258E+02  0.53560104629E+02  0.47000000000E+01 0.  1.
         -5    1    3    3    0  502 -0.15450096694E+02  0.64240241367E+01 -0.90282846636E+02  0.91940502340E+02  0.47000000000E+01 0.  1.
        -11    1    1    2    0    0 -0.48339193181E+02  0.25174002114E+02 -0.65048969382E+02  0.84863280620E+02  0.00000000000E+00 0.  1.
         11    1    1    2    0    0  0.17974315203E+02 -0.16559776515E+02  0.72367822575E+01  0.25488688132E+02  0.00000000000E+00 0. -1.
<mgrwt>
<rscale>  0 0.11913137E+03</rscale>
<asrwt>0</asrwt>
<pdfrwt beam="2">  1        2 0.29316360E-01 0.12892325E+03</pdfrwt>
<pdfrwt beam="1">  1       -2 0.10045575E-01 0.12892325E+03</pdfrwt>
<totfact> 0.11103894E+04</totfact>
</mgrwt>
</event>
<event>
 7    1  0.6387485E-006  0.1266814E+03  0.7546771E-02  0.1247035E+00
         -1   -1    0    0    0  501 -0.00000000000E+00  0.00000000000E+00  0.72422567986E+02  0.72422567986E+02  0.00000000000E+00 0.  1.
          1   -1    0    0  501    0  0.00000000000E+00 -0.00000000000E+00 -0.17892634727E+03  0.17892634727E+03  0.00000000000E+00 0. -1.
         23    2    1    2    0    0  0.19045646662E+02  0.74809032275E+01 -0.30513129916E+02  0.13030434645E+03  0.12501788287E+03 0.  0.
          5    1    3    3  502    0 -0.26129933085E+01 -0.21001760895E+02 -0.72072393201E+02  0.75262351521E+02  0.47000000000E+01 0. -1.
         -5    1    3    3    0  502  0.21658639971E+02  0.28482664122E+02  0.41559263285E+02  0.55041994928E+02  0.47000000000E+01 0. -1.
        -11    1    1    2    0    0  0.16703622582E+02  0.24024693503E+02  0.23447253959E+01  0.29354635792E+02  0.00000000000E+00 0.  1.
         11    1    1    2    0    0 -0.35749269244E+02 -0.31505596731E+02 -0.78335374764E+02  0.91689933015E+02  0.00000000000E+00 0. -1.
<mgrwt>
<rscale>  0 0.11764383E+03</rscale>
<asrwt>0</asrwt>
<pdfrwt beam="2">  1        1 0.27527130E-01 0.12668138E+03</pdfrwt>
<pdfrwt beam="1">  1       -1 0.11141934E-01 0.12668138E+03</pdfrwt>
<totfact> 0.81887064E+03</totfact>
</mgrwt>
</event>
<event>
 7    1  0.6387485E-006  0.1652671E+03  0.7546771E-02  0.1190543E+00
         -2   -1    0    0    0  501 -0.00000000000E+00  0.00000000000E+00  0.14478841214E+03  0.14478841214E+03  0.00000000000E+00 0.  1.
          2   -1    0    0  501    0  0.00000000000E+00 -0.00000000000E+00 -0.30463760881E+03  0.30463760881E+03  0.00000000000E+00 0. -1.
         23    2    1    2    0    0  0.10803863481E+03 -0.32023598161E+01  0.70912899792E+02  0.17983839637E+03  0.12502242891E+03 0.  0.
          5    1    3    3  502    0  0.12775388383E+03 -0.18358652117E+02  0.31397701236E+02  0.13291350791E+03  0.47000000000E+01 0.  1.
         -5    1    3    3    0  502 -0.19715249014E+02  0.15156292301E+02  0.39515198556E+02  0.46924888459E+02  0.47000000000E+01 0.  1.
        -11    1    1    2    0    0 -0.56112740793E+02 -0.31394528495E+02 -0.60634240592E+02  0.88378545082E+02  0.00000000000E+00 0.  1.
         11    1    1    2    0    0 -0.51925894022E+02  0.34596888311E+02 -0.17012785587E+03  0.18120907950E+03  0.00000000000E+00 0. -1.
<mgrwt>
<rscale>  0 0.15837574E+03</rscale>
<asrwt>0</asrwt>
<pdfrwt beam="2">  1        2 0.46867324E-01 0.16526709E+03</pdfrwt>
<pdfrwt beam="1">  1       -2 0.22275140E-01 0.16526709E+03</pdfrwt>
<totfact> 0.18454706E+03</totfact>
</mgrwt>
</event>
<event>
 7    1  0.6387485E-006  0.1565560E+03  0.7546771E-02  0.1200239E+00
          2   -1    0    0  501    0  0.00000000000E+00  0.00000000000E+00  0.38540261516E+03  0.38540261516E+03  0.00000000000E+00 0. -1.
         -2   -1    0    0    0  501 -0.00000000000E+00 -0.00000000000E+00 -0.56584595130E+02  0.56584595130E+02  0.00000000000E+00 0.  1.
         23    2    1    2    0    0  0.35699901589E+02 -0.87229959957E+02  0.13261418491E+03  0.20517380250E+03  0.12500487313E+03 0.  0.
          5    1    3    3  502    0  0.69241612094E+02 -0.38040556466E+02  0.26597039265E+02  0.83492378570E+02  0.47000000000E+01 0.  1.
         -5    1    3    3    0  502 -0.33541710505E+02 -0.49189403491E+02  0.10601714565E+03  0.12168142393E+03  0.47000000000E+01 0.  1.
        -11    1    1    2    0    0 -0.49261894840E+02  0.96027468089E+02  0.13148789858E+03  0.17010901323E+03  0.00000000000E+00 0.  1.
         11    1    1    2    0    0  0.13561993251E+02 -0.87975081319E+01  0.64715936540E+02  0.66704394552E+02  0.00000000000E+00 0. -1.
<mgrwt>
<rscale>  0 0.15019100E+03</rscale>
<asrwt>0</asrwt>
<pdfrwt beam="1">  1        2 0.59292708E-01 0.15655596E+03</pdfrwt>
<pdfrwt beam="2">  1       -2 0.87053226E-02 0.15655596E+03</pdfrwt>
<totfact> 0.66369652E+03</totfact>
</mgrwt>
</event>
<event>
 7    1  0.6387485E-006  0.1422336E+03  0.7546771E-02  0.1221083E+00
          1   -1    0    0  501    0  0.00000000000E+00  0.00000000000E+00  0.28018754651E+03  0.28018754651E+03  0.00000000000E+00 0. -1.
         -1   -1    0    0    0  501 -0.00000000000E+00 -0.00000000000E+00 -0.58300892343E+02  0.58300892343E+02  0.00000000000E+00 0.  1.
         23    2    1    2    0    0 -0.62078968957E+02 -0.26457789078E+02  0.12114691956E+03  0.18683404289E+03  0.12520611197E+03 0.  0.
          5    1    3    3  502    0  0.30515416453E+02  0.43883713438E+01  0.69808795826E+02  0.76457873492E+02  0.47000000000E+01 0. -1.
         -5    1    3    3    0  502 -0.92594385409E+02 -0.30846160422E+02  0.51338123732E+02  0.11037616940E+03  0.47000000000E+01 0. -1.
        -11    1    1    2    0    0  0.79108464905E+02  0.26273725799E+02  0.10503311344E+03  0.13409106162E+03  0.00000000000E+00 0. -1.
         11    1    1    2    0    0 -0.17029495949E+02  0.18406327897E+00 -0.42933788318E+01  0.17563334346E+02  0.00000000000E+00 0.  1.
<mgrwt>
<rscale>  0 0.13438995E+03</rscale>
<asrwt>0</asrwt>
<pdfrwt beam="1">  1        1 0.43105776E-01 0.14223355E+03</pdfrwt>
<pdfrwt beam="2">  1       -1 0.89693682E-02 0.14223355E+03</pdfrwt>
<totfact> 0.65925745E+03</totfact>
</mgrwt>
</event>
<event>
 7    1  0.6387485E-006  0.1276428E+03  0.7546771E-02  0.1244682E+00
         -2   -1    0    0    0  501 -0.00000000000E+00  0.00000000000E+00  0.55375934970E+02  0.55375934970E+02  0.00000000000E+00 0.  1.
          2   -1    0    0  501    0  0.00000000000E+00 -0.00000000000E+00 -0.23037312301E+03  0.23037312301E+03  0.00000000000E+00 0. -1.
         23    2    1    2    0    0 -0.20111088508E+02 -0.16140784925E+02 -0.82215061498E+02  0.15182881175E+03  0.12501076323E+03 0.  0.
          5    1    3    3  502    0 -0.41420428889E+02  0.27489482307E+02 -0.89517151840E+02  0.10250236115E+03  0.47000000000E+01 0.  1.
         -5    1    3    3    0  502  0.21309340382E+02 -0.43630267232E+02  0.73020903420E+01  0.49326450608E+02  0.47000000000E+01 0.  1.
        -11    1    1    2    0    0  0.51121898321E+02  0.11435238231E+02 -0.22608474754E+02  0.57055729704E+02  0.00000000000E+00 0.  1.
         11    1    1    2    0    0 -0.31010809813E+02  0.47055466938E+01 -0.70173651791E+02  0.76864516525E+02  0.00000000000E+00 0. -1.
<mgrwt>
<rscale>  0 0.11904459E+03</rscale>
<asrwt>0</asrwt>
<pdfrwt beam="2">  1        2 0.35442018E-01 0.12764275E+03</pdfrwt>
<pdfrwt beam="1">  1       -2 0.85193747E-02 0.12764275E+03</pdfrwt>
<totfact> 0.11697339E+04</totfact>
</mgrwt>
</event>
<event>
 7    1  0.6387485E-006  0.1289492E+03  0.7546771E-02  0.1244138E+00
          2   -1    0    0  501    0  0.00000000000E+00  0.00000000000E+00  0.15248129289E+03  0.15248129289E+03  0.00000000000E+00 0.  1.
         -2   -1    0    0    0  501 -0.00000000000E+00 -0.00000000000E+00 -0.91067461090E+02  0.91067461090E+02  0.00000000000E+00 0. -1.
         23    2    1    2    0    0  0.16265955387E+02  0.27090674751E+02 -0.30600294601E+01  0.12898547544E+03  0.12501761129E+03 0.  0.
          5    1    3    3  502    0  0.29705395984E+02  0.25094873643E+02  0.55922679966E+02  0.68275906207E+02  0.47000000000E+01 0. -1.
         -5    1    3    3    0  502 -0.13439440597E+02  0.19958011080E+01 -0.58982709427E+02  0.60709569237E+02  0.47000000000E+01 0. -1.
        -11    1    1    2    0    0  0.30920668493E+02  0.71783685796E+01  0.40629283099E+02  0.51559241273E+02  0.00000000000E+00 0.  1.
         11    1    1    2    0    0 -0.47186623880E+02 -0.34269043330E+02  0.23844578162E+02  0.63004037265E+02  0.00000000000E+00 0. -1.
<mgrwt>
<rscale>  0 0.11937134E+03</rscale>
<asrwt>0</asrwt>
<pdfrwt beam="1">  1        2 0.23458660E-01 0.12894917E+03</pdfrwt>
<pdfrwt beam="2">  1       -2 0.14010379E-01 0.12894917E+03</pdfrwt>
<totfact> 0.83431414E+03</totfact>
</mgrwt>
</event>
<event>
 7    1  0.6387485E-006  0.1430265E+03  0.7546771E-02  0.1216435E+00
         -2   -1    0    0    0  501 -0.00000000000E+00  0.00000000000E+00  0.29565125758E+02  0.29565125758E+02  0.00000000000E+00 0.  1.
          2   -1    0    0  501    0  0.00000000000E+00 -0.00000000000E+00 -0.82715886088E+03  0.82715886088E+03  0.00000000000E+00 0. -1.
         23    2    1    2    0    0 -0.77173787709E+02  0.28891625319E+02 -0.19565086828E+03  0.24235479303E+03  0.11690194149E+03 0.  0.
          5    1    3    3  502    0 -0.87039426678E+02  0.17803336693E+02 -0.20550101277E+03  0.22393208087E+03  0.47000000000E+01 0. -1.
         -5    1    3    3    0  502  0.98656389696E+01  0.11088288626E+02  0.98501444883E+01  0.18422712161E+02  0.47000000000E+01 0.  1.
        -11    1    1    2    0    0  0.70805601675E+02  0.19924419729E+02 -0.37556428280E+03  0.38269955088E+03  0.00000000000E+00 0.  1.
         11    1    1    2    0    0  0.63681860337E+01 -0.48816045048E+02 -0.22637858404E+03  0.23166964272E+03  0.00000000000E+00 0. -1.
<mgrwt>
<rscale>  0 0.13771647E+03</rscale>
<asrwt>0</asrwt>
<pdfrwt beam="2">  1        2 0.12725522E+00 0.14302651E+03</pdfrwt>
<pdfrwt beam="1">  1       -2 0.45484805E-02 0.14302651E+03</pdfrwt>
<totfact> 0.74409305E+03</totfact>
</mgrwt>
</event>
<event>
 7    1  0.6387485E-006  0.1442044E+03  0.7546771E-02  0.1217430E+00
         -1   -1    0    0    0  501 -0.00000000000E+00  0.00000000000E+00  0.37857809332E+03  0.37857809332E+03  0.00000000000E+00 0.  1.
          1   -1    0    0  501    0  0.00000000000E+00 -0.00000000000E+00 -0.45608430762E+02  0.45608430762E+02  0.00000000000E+00 0. -1.
         23    2    1    2    0    0 -0.69378623240E+02 -0.18906819008E+02  0.20297969160E+03  0.24898926941E+03  0.12499615959E+03 0.  0.
          5    1    3    3  502    0 -0.80333911580E+02  0.30369013859E+02  0.86641504605E+02  0.12208462095E+03  0.47000000000E+01 0.  1.
         -5    1    3    3    0  502  0.10955288340E+02 -0.49275832867E+02  0.11633818699E+03  0.12690464846E+03  0.47000000000E+01 0.  1.
        -11    1    1    2    0    0  0.64225751773E+02  0.52815533265E+02  0.91082283008E+02  0.12333049105E+03  0.00000000000E+00 0.  1.
         11    1    1    2    0    0  0.51528714664E+01 -0.33908714257E+02  0.38907687955E+02  0.51866763625E+02  0.00000000000E+00 0. -1.
<mgrwt>
<rscale>  0 0.13699530E+03</rscale>
<asrwt>0</asrwt>
<pdfrwt beam="2">  1        1 0.70166819E-02 0.14420437E+03</pdfrwt>
<pdfrwt beam="1">  1       -1 0.58242782E-01 0.14420437E+03</pdfrwt>
<totfact> 0.30970896E+03</totfact>
</mgrwt>
</event>
<event>
 7    1  0.6387485E-006  0.1491360E+03  0.7546771E-02  0.1210552E+00
         -4   -1    0    0    0  501 -0.00000000000E+00  0.00000000000E+00  0.20926323439E+03  0.20926323439E+03  0.00000000000E+00 0.  1.
          4   -1    0    0  501    0  0.00000000000E+00 -0.00000000000E+00 -0.16042471383E+03  0.16042471383E+03  0.00000000000E+00 0. -1.
         23    2    1    2    0    0  0.77158321603E+02 -0.25720289059E+02  0.14926505284E+03  0.21100140498E+03  0.12500638800E+03 0.  0.
          5    1    3    3  502    0  0.10613415660E+03 -0.19747979018E+02  0.76745237617E+02  0.13253815816E+03  0.47000000000E+01 0. -1.
         -5    1    3    3    0  502 -0.28975834995E+02 -0.59723100411E+01  0.72519815223E+02  0.78463246816E+02  0.47000000000E+01 0. -1.
        -11    1    1    2    0    0 -0.47929772843E+02  0.19904972536E+01 -0.10985772827E+03  0.11987470819E+03  0.00000000000E+00 0. -1.
         11    1    1    2    0    0 -0.29228548760E+02  0.23729791805E+02  0.94311959894E+01  0.38811835045E+02  0.00000000000E+00 0.  1.
<mgrwt>
<rscale>  0 0.14208371E+03</rscale>
<asrwt>0</asrwt>
<pdfrwt beam="2">  1        4 0.24680725E-01 0.14913597E+03</pdfrwt>
<pdfrwt beam="1">  1       -4 0.32194344E-01 0.14913597E+03</pdfrwt>
<totfact> 0.24162221E+02</totfact>
</mgrwt>
</event>
<event>
 7    1  0.6387485E-006  0.1337229E+03  0.7546771E-02  0.1233712E+00
         -1   -1    0    0    0  501 -0.00000000000E+00  0.00000000000E+00  0.10585262484E+03  0.10585262484E+03  0.00000000000E+00 0.  1.
          1   -1    0    0  501    0  0.00000000000E+00 -0.00000000000E+00 -0.13563656940E+03  0.13563656940E+03  0.00000000000E+00 0. -1.
         23    2    1    2    0    0  0.47321612681E+02 -0.42363257279E+01 -0.60445010863E+01  0.13385946773E+03  0.12499815849E+03 0.  0.
          5    1    3    3  502    0  0.45089091786E+02 -0.11396149346E+01 -0.62423421368E+02  0.77156324793E+02  0.47000000000E+01 0. -1.
         -5    1    3    3    0  502  0.22325208948E+01 -0.30967107933E+01  0.56378920282E+02  0.56703142941E+02  0.47000000000E+01 0. -1.
        -11    1    1    2    0    0  0.23122867380E+02  0.11595136194E+02 -0.26121302561E+02  0.36761890957E+02  0.00000000000E+00 0. -1.
         11    1    1    2    0    0 -0.70444480061E+02 -0.73588104665E+01  0.23818590900E+01  0.70867835548E+02  0.00000000000E+00 0.  1.
<mgrwt>
<rscale>  0 0.12587226E+03</rscale>
<asrwt>0</asrwt>
<pdfrwt beam="2">  1        1 0.20867164E-01 0.13372293E+03</pdfrwt>
<pdfrwt beam="1">  1       -1 0.16285019E-01 0.13372293E+03</pdfrwt>
<totfact> 0.64565779E+03</totfact>
</mgrwt>
</event>
<event>
 7    1  0.6387485E-006  0.2010220E+03  0.7546771E-02  0.1152922E+00
         -2   -1    0    0    0  501 -0.00000000000E+00  0.00000000000E+00  0.67433811994E+03  0.67433811994E+03  0.00000000000E+00 0.  1.
          2   -1    0    0  501    0  0.00000000000E+00 -0.00000000000E+00 -0.59873213267E+02  0.59873213267E+02  0.00000000000E+00 0. -1.
         23    2    1    2    0    0 -0.37239550801E+02 -0.15296325499E+03  0.42961293685E+03  0.47431753142E+03  0.12500121433E+03 0.  0.
          5    1    3    3  502    0 -0.55531182874E+02 -0.15578055779E+02  0.17596087087E+03  0.18523149346E+03  0.47000000000E+01 0. -1.
         -5    1    3    3    0  502  0.18291632073E+02 -0.13738519921E+03  0.25365206599E+03  0.28908603796E+03  0.47000000000E+01 0. -1.
        -11    1    1    2    0    0  0.41349588704E+02  0.34694513209E+02  0.21320244062E+02  0.58034907940E+02  0.00000000000E+00 0. -1.
         11    1    1    2    0    0 -0.41100379022E+01  0.11826874178E+03  0.16353172576E+03  0.20185889384E+03  0.00000000000E+00 0.  1.
<mgrwt>
<rscale>  0 0.19627257E+03</rscale>
<asrwt>0</asrwt>
<pdfrwt beam="2">  1        2 0.92112641E-02 0.20102200E+03</pdfrwt>
<pdfrwt beam="1">  1       -2 0.10374432E+00 0.20102200E+03</pdfrwt>
<totfact> 0.55559933E+02</totfact>
</mgrwt>
</event>
<event>
 7    1  0.6387485E-006  0.1455150E+03  0.7546771E-02  0.1211202E+00
         -2   -1    0    0    0  501 -0.00000000000E+00  0.00000000000E+00  0.20097245160E+03  0.20097245160E+03  0.00000000000E+00 0. -1.
          2   -1    0    0  501    0  0.00000000000E+00 -0.00000000000E+00 -0.96659423686E+02  0.96659423686E+02  0.00000000000E+00 0.  1.
         23    2    1    2    0    0 -0.13887898791E+02 -0.73189954525E+02  0.75920840480E+02  0.16412980148E+03  0.12499989815E+03 0.  0.
          5    1    3    3  502    0 -0.18363268515E+02 -0.10134086842E+03  0.85242013827E+02  0.13377395921E+03  0.47000000000E+01 0. -1.
         -5    1    3    3    0  502  0.44753697241E+01  0.28150913892E+02 -0.93211733472E+01  0.30355842266E+02  0.47000000000E+01 0. -1.
        -11    1    1    2    0    0  0.42793864610E+02  0.58023379311E+01 -0.17941643474E+02  0.46764137373E+02  0.00000000000E+00 0.  1.
         11    1    1    2    0    0 -0.28905965818E+02  0.67387616594E+02  0.46333830905E+02  0.86737936432E+02  0.00000000000E+00 0. -1.
<mgrwt>
<rscale>  0 0.14159249E+03</rscale>
<asrwt>0</asrwt>
<pdfrwt beam="2">  1        2 0.14870681E-01 0.14551501E+03</pdfrwt>
<pdfrwt beam="1">  1       -2 0.30918839E-01 0.14551501E+03</pdfrwt>
<totfact> 0.36664008E+03</totfact>
</mgrwt>
</event>
<event>
 7    1  0.6387485E-006  0.1424881E+03  0.7546771E-02  0.1220308E+00
         -1   -1    0    0    0  501 -0.00000000000E+00  0.00000000000E+00  0.46241660171E+03  0.46241660171E+03  0.00000000000E+00 0.  1.
          1   -1    0    0  501    0  0.00000000000E+00 -0.00000000000E+00 -0.37866271819E+02  0.37866271819E+02  0.00000000000E+00 0. -1.
         23    2    1    2    0    0 -0.68371122749E+02 -0.14761525247E+01  0.29303125172E+03  0.32583766271E+03  0.12500431394E+03 0.  0.
          5    1    3    3  502    0 -0.38675125720E+02  0.53303082414E+02  0.79446400116E+02  0.10329958584E+03  0.47000000000E+01 0.  1.
         -5    1    3    3    0  502 -0.29695997030E+02 -0.54779234939E+02  0.21358485160E+03  0.22253807686E+03  0.47000000000E+01 0.  1.
        -11    1    1    2    0    0  0.36128632169E+02  0.38510850679E+02  0.27768001205E+02  0.59660921660E+02  0.00000000000E+00 0. -1.
         11    1    1    2    0    0  0.32242490581E+02 -0.37034698154E+02  0.10375107697E+03  0.11478428916E+03  0.00000000000E+00 0.  1.
<mgrwt>
<rscale>  0 0.13493763E+03</rscale>
<asrwt>0</asrwt>
<pdfrwt beam="2">  1        1 0.58255806E-02 0.14248813E+03</pdfrwt>
<pdfrwt beam="1">  1       -1 0.71141012E-01 0.14248813E+03</pdfrwt>
<totfact> 0.27049256E+03</totfact>
</mgrwt>
</event>
<event>
 7    1  0.6387485E-006  0.1436956E+03  0.7546771E-02  0.1219246E+00
         -1   -1    0    0    0  501 -0.00000000000E+00  0.00000000000E+00  0.28666065765E+02  0.28666065765E+02  0.00000000000E+00 0.  1.
          1   -1    0    0  501    0  0.00000000000E+00 -0.00000000000E+00 -0.85022844945E+03  0.85022844945E+03  0.00000000000E+00 0. -1.
         23    2    1    2    0    0 -0.13878357778E+02 -0.69507913787E+02 -0.19627461120E+03  0.24325326231E+03  0.12499787090E+03 0.  0.
          5    1    3    3  502    0 -0.51723984686E+02 -0.87298076836E+02 -0.14118007634E+03  0.17392592897E+03  0.47000000000E+01 0.  1.
         -5    1    3    3    0  502  0.37845626907E+02  0.17790163050E+02 -0.55094534860E+02  0.69327333346E+02  0.47000000000E+01 0.  1.
        -11    1    1    2    0    0 -0.37514964988E+02  0.40253071971E+02 -0.28827195122E+03  0.29347640495E+03  0.00000000000E+00 0. -1.
         11    1    1    2    0    0  0.51393322766E+02  0.29254841816E+02 -0.33701582126E+03  0.34216484795E+03  0.00000000000E+00 0.  1.
<mgrwt>
<rscale>  0 0.13569215E+03</rscale>
<asrwt>0</asrwt>
<pdfrwt beam="2">  1        1 0.13080437E+00 0.14369560E+03</pdfrwt>
<pdfrwt beam="1">  1       -1 0.44101640E-02 0.14369560E+03</pdfrwt>
<totfact> 0.43493056E+03</totfact>
</mgrwt>
</event>
<event>
 7    1  0.6387485E-006  0.1420739E+03  0.7546771E-02  0.1220113E+00
         -2   -1    0    0    0  501 -0.00000000000E+00  0.00000000000E+00  0.43725202331E+02  0.43725202331E+02  0.00000000000E+00 0.  1.
          2   -1    0    0  501    0  0.00000000000E+00 -0.00000000000E+00 -0.54329717645E+03  0.54329717645E+03  0.00000000000E+00 0. -1.
         23    2    1    2    0    0  0.49333205229E+02  0.46092328456E+02 -0.10759503205E+03  0.17821805489E+03  0.12500686496E+03 0.  0.
          5    1    3    3  502    0 -0.56161495868E+01  0.76658186732E+02 -0.73880253470E+02  0.10671644944E+03  0.47000000000E+01 0. -1.
         -5    1    3    3    0  502  0.54949354816E+02 -0.30565858276E+02 -0.33714778577E+02  0.71501605445E+02  0.47000000000E+01 0. -1.
        -11    1    1    2    0    0 -0.45365200013E+02 -0.68238050735E+02 -0.36291895035E+03  0.37205456249E+03  0.00000000000E+00 0. -1.
         11    1    1    2    0    0 -0.39680052153E+01  0.22145722279E+02 -0.29057991719E+02  0.36749761406E+02  0.00000000000E+00 0.  1.
<mgrwt>
<rscale>  0 0.13507562E+03</rscale>
<asrwt>0</asrwt>
<pdfrwt beam="2">  1        2 0.83584180E-01 0.14207387E+03</pdfrwt>
<pdfrwt beam="1">  1       -2 0.67269543E-02 0.14207387E+03</pdfrwt>
<totfact> 0.67579624E+03</totfact>
</mgrwt>
</event>
<event>
 6    1  0.6387485E-006  0.1395445E+03  0.7546771E-02  0.1232006E+00
          1   -1    0    0  501    0  0.00000000000E+00  0.00000000000E+00  0.40258320318E+03  0.40258320318E+03  0.00000000000E+00 0. -1.
         -1   -1    0    0    0  501 -0.00000000000E+00 -0.00000000000E+00 -0.35808683869E+02  0.35808683869E+02  0.00000000000E+00 0.  1.
          5    1    1    2  502    0  0.27238073495E+02  0.60109476935E+02  0.10636497512E+03  0.12526236385E+03  0.47000000000E+01 0. -1.
         -5    1    1    2    0  502 -0.48367271865E+02 -0.51039348280E+02  0.66479499988E+02  0.96881484192E+02  0.47000000000E+01 0.  1.
        -11    1    1    2    0    0 -0.32907588842E+02  0.11731878137E+02  0.48998870266E+02  0.60178365343E+02  0.00000000000E+00 0. -1.
         11    1    1    2    0    0  0.54036787213E+02 -0.20802006791E+02  0.14493117393E+03  0.15606967366E+03  0.00000000000E+00 0.  1.
<mgrwt>
<rscale>  0 0.12698080E+03</rscale>
<asrwt>0</asrwt>
<pdfrwt beam="1">  1        1 0.61935874E-01 0.13954453E+03</pdfrwt>
<pdfrwt beam="2">  1       -1 0.55090286E-02 0.13954453E+03</pdfrwt>
<totfact> 0.87105481E+03</totfact>
</mgrwt>
</event>
<event>
 7    1  0.6387485E-006  0.1978194E+03  0.7546771E-02  0.1155677E+00
         -2   -1    0    0    0  501 -0.00000000000E+00  0.00000000000E+00  0.91559315835E+02  0.91559315835E+02  0.00000000000E+00 0.  1.
          2   -1    0    0  501    0  0.00000000000E+00 -0.00000000000E+00 -0.39721641576E+03  0.39721641576E+03  0.00000000000E+00 0. -1.
         23    2    1    2    0    0  0.10597122566E+03  0.11079351029E+03 -0.19489605191E+03  0.27769944886E+03  0.12500964066E+03 0.  0.
          5    1    3    3  502    0  0.43054104656E+02  0.31828111870E+02 -0.16312066478E+03  0.17174727337E+03  0.47000000000E+01 0. -1.
         -5    1    3    3    0  502  0.62917121008E+02  0.78965398421E+02 -0.31775387129E+02  0.10595217549E+03  0.47000000000E+01 0. -1.
        -11    1    1    2    0    0 -0.66969659789E+02 -0.10158434523E+03 -0.11896895281E+03  0.17017028607E+03  0.00000000000E+00 0. -1.
         11    1    1    2    0    0 -0.39001565876E+02 -0.92091650641E+01  0.82079047944E+01  0.40905996664E+02  0.00000000000E+00 0.  1.
<mgrwt>
<rscale>  0 0.19311992E+03</rscale>
<asrwt>0</asrwt>
<pdfrwt beam="2">  1        2 0.61110219E-01 0.19781939E+03</pdfrwt>
<pdfrwt beam="1">  1       -2 0.14086048E-01 0.19781939E+03</pdfrwt>
<totfact> 0.30133267E+03</totfact>
</mgrwt>
</event>
<event>
 7    1  0.6387485E-006  0.1445983E+03  0.7546771E-02  0.1217563E+00
          2   -1    0    0  501    0  0.00000000000E+00  0.00000000000E+00  0.24954871869E+03  0.24954871869E+03  0.00000000000E+00 0. -1.
         -2   -1    0    0    0  501 -0.00000000000E+00 -0.00000000000E+00 -0.73851757855E+02  0.73851757855E+02  0.00000000000E+00 0.  1.
         23    2    1    2    0    0 -0.69639831757E+02  0.20866114959E+02  0.51906176276E+02  0.15363239021E+03  0.12499423693E+03 0.  0.
          5    1    3    3  502    0 -0.32579604614E+01 -0.24200338558E+02 -0.29941511058E+02  0.38921135353E+02  0.47000000000E+01 0. -1.
         -5    1    3    3    0  502 -0.66381871296E+02  0.45066453518E+02  0.81847687334E+02  0.11471125486E+03  0.47000000000E+01 0. -1.
        -11    1    1    2    0    0  0.61466176730E+02  0.17085225662E+02  0.34783263574E+02  0.72662722510E+02  0.00000000000E+00 0.  1.
         11    1    1    2    0    0  0.81736550274E+01 -0.37951340622E+02  0.89007520983E+02  0.97105363822E+02  0.00000000000E+00 0. -1.
<mgrwt>
<rscale>  0 0.13689959E+03</rscale>
<asrwt>0</asrwt>
<pdfrwt beam="1">  1        2 0.38392110E-01 0.14459827E+03</pdfrwt>
<pdfrwt beam="2">  1       -2 0.11361809E-01 0.14459827E+03</pdfrwt>
<totfact> 0.68982899E+03</totfact>
</mgrwt>
</event>
<event>
 7    1  0.6387485E-006  0.1323637E+03  0.7546771E-02  0.1237176E+00
          2   -1    0    0  501    0  0.00000000000E+00  0.00000000000E+00  0.27596456039E+02  0.27596456039E+02  0.00000000000E+00 0. -1.
         -2   -1    0    0    0  501 -0.00000000000E+00 -0.00000000000E+00 -0.55259968820E+03  0.55259968820E+03  0.00000000000E+00 0.  1.
         23    2    1    2    0    0  0.12152555979E+02  0.41811632481E+02 -0.38889247016E+03  0.41080104762E+03  0.12499700058E+03 0.  0.
          5    1    3    3  502    0  0.19202213994E+02  0.47541338101E+02 -0.50053400425E+02  0.71807637092E+02  0.47000000000E+01 0.  1.
         -5    1    3    3    0  502 -0.70496580145E+01 -0.57297056203E+01 -0.33883906973E+03  0.33899341053E+03  0.47000000000E+01 0.  1.
        -11    1    1    2    0    0 -0.33204362676E+02 -0.92681124147E+01 -0.12412781730E+03  0.12882601693E+03  0.00000000000E+00 0.  1.
         11    1    1    2    0    0  0.21051806697E+02 -0.32543520066E+02 -0.11982944701E+02  0.40569079694E+02  0.00000000000E+00 0. -1.
<mgrwt>
<rscale>  0 0.12366138E+03</rscale>
<asrwt>0</asrwt>
<pdfrwt beam="1">  1        2 0.42456087E-02 0.13236369E+03</pdfrwt>
<pdfrwt beam="2">  1       -2 0.85015334E-01 0.13236369E+03</pdfrwt>
<totfact> 0.23273731E+03</totfact>
</mgrwt>
</event>
<event>
 6    1  0.6387485E-006  0.3263250E+03  0.7546771E-02  0.1072775E+00
          1   -1    0    0  501    0  0.00000000000E+00  0.00000000000E+00  0.77526009808E+03  0.77526009808E+03  0.00000000000E+00 0. -1.
         -1   -1    0    0    0  501 -0.00000000000E+00 -0.00000000000E+00 -0.34339436896E+02  0.34339436896E+02  0.00000000000E+00 0.  1.
          5    1    1    2  502    0 -0.17213863136E+02 -0.73261588426E+01  0.17292400833E+03  0.17399652969E+03  0.47000000000E+01 0. -1.
         -5    1    1    2    0  502 -0.54673593696E+01 -0.79913521540E+02  0.34993041896E+02  0.87536654748E+02  0.47000000000E+01 0.  1.
        -11    1    1    2    0    0 -0.34730666110E+02  0.42093347299E+02  0.22746307588E+03  0.23391776321E+03  0.00000000000E+00 0.  1.
         11    1    1    2    0    0  0.57411888615E+02  0.45146333084E+02  0.30554053508E+03  0.31414858733E+03  0.00000000000E+00 0. -1.
<mgrwt>
<rscale>  0 0.32632496E+03</rscale>
<asrwt>0</asrwt>
<pdfrwt beam="1">  1        1 0.11927077E+00 0.32632496E+03</pdfrwt>
<pdfrwt beam="2">  1       -1 0.52829909E-02 0.32632496E+03</pdfrwt>
<totfact> 0.39262764E+03</totfact>
</mgrwt>
</event>
<event>
 7    1  0.6387485E-006  0.2322698E+03  0.7546771E-02  0.1127937E+00
          2   -1    0    0  501    0  0.00000000000E+00  0.00000000000E+00  0.79510684877E+03  0.79510684877E+03  0.00000000000E+00 0. -1.
         -2   -1    0    0    0  501 -0.00000000000E+00 -0.00000000000E+00 -0.63840817920E+02  0.63840817920E+02  0.00000000000E+00 0.  1.
         23    2    1    2    0    0  0.18625442828E+03  0.60290334862E+02  0.33768327118E+03  0.40985270198E+03  0.12499443649E+03 0.  0.
          5    1    3    3  502    0  0.54140778878E+01  0.37985368512E+02  0.19827891178E+02  0.43444628310E+02  0.47000000000E+01 0.  1.
         -5    1    3    3    0  502  0.18084035040E+03  0.22304966349E+02  0.31785538001E+03  0.36640807367E+03  0.47000000000E+01 0.  1.
        -11    1    1    2    0    0 -0.14691780588E+03 -0.34986768046E+01  0.27744301223E+03  0.31396131523E+03  0.00000000000E+00 0. -1.
         11    1    1    2    0    0 -0.39336622404E+02 -0.56791658057E+02  0.11613974743E+03  0.13513364948E+03  0.00000000000E+00 0.  1.
<mgrwt>
<rscale>  0 0.22816591E+03</rscale>
<asrwt>0</asrwt>
<pdfrwt beam="1">  1        2 0.12232412E+00 0.23226977E+03</pdfrwt>
<pdfrwt beam="2">  1       -2 0.98216649E-02 0.23226977E+03</pdfrwt>
<totfact> 0.24319508E+03</totfact>
</mgrwt>
</event>
<event>
 7    1  0.6387485E-006  0.1272967E+03  0.7546771E-02  0.1245512E+00
         -1   -1    0    0    0  501 -0.00000000000E+00  0.00000000000E+00  0.57483111430E+03  0.57483111430E+03  0.00000000000E+00 0.  1.
          1   -1    0    0  501    0  0.00000000000E+00 -0.00000000000E+00 -0.22174198268E+02  0.22174198268E+02  0.00000000000E+00 0. -1.
         23    2    1    2    0    0 -0.23386778525E+01 -0.23984601782E+02  0.36051892772E+03  0.38233276967E+03  0.12499487583E+03 0.  0.
          5    1    3    3  502    0 -0.94711555364E+01 -0.72906010379E+02  0.16669647721E+03  0.18224926516E+03  0.47000000000E+01 0.  1.
         -5    1    3    3    0  502  0.71324776839E+01  0.48921408597E+02  0.19382245051E+03  0.20008350452E+03  0.47000000000E+01 0.  1.
        -11    1    1    2    0    0  0.12445826151E+01  0.58371560898E+02  0.93762212167E+02  0.11045424636E+03  0.00000000000E+00 0. -1.
         11    1    1    2    0    0  0.10940952374E+01 -0.34386959116E+02  0.98375776141E+02  0.10421829654E+03  0.00000000000E+00 0.  1.
<mgrwt>
<rscale>  0 0.11854766E+03</rscale>
<asrwt>0</asrwt>
<pdfrwt beam="2">  1        1 0.34114156E-02 0.12729670E+03</pdfrwt>
<pdfrwt beam="1">  1       -1 0.88435545E-01 0.12729670E+03</pdfrwt>
<totfact> 0.35885325E+03</totfact>
</mgrwt>
</event>
<event>
 7    1  0.6387485E-006  0.1676903E+03  0.7546771E-02  0.1187107E+00
         -2   -1    0    0    0  501 -0.00000000000E+00  0.00000000000E+00  0.48466675063E+02  0.48466675063E+02  0.00000000000E+00 0.  1.
          2   -1    0    0  501    0  0.00000000000E+00 -0.00000000000E+00 -0.51797940323E+03  0.51797940323E+03  0.00000000000E+00 0. -1.
         23    2    1    2    0    0 -0.39576617302E+01  0.11171095374E+03 -0.20093968448E+03  0.26171892809E+03  0.12500016101E+03 0.  0.
          5    1    3    3  502    0 -0.59034300649E+02  0.60256951691E+02 -0.14470174336E+03  0.16756083496E+03  0.47000000000E+01 0. -1.
         -5    1    3    3    0  502  0.55076638919E+02  0.51454002049E+02 -0.56237941115E+02  0.94158093133E+02  0.47000000000E+01 0. -1.
        -11    1    1    2    0    0 -0.24366717674E+02 -0.57977768085E+02 -0.21407284827E+03  0.22311957084E+03  0.00000000000E+00 0. -1.
         11    1    1    2    0    0  0.28324379404E+02 -0.53733185655E+02 -0.54500195413E+02  0.81607579362E+02  0.00000000000E+00 0.  1.
<mgrwt>
<rscale>  0 0.16141669E+03</rscale>
<asrwt>0</asrwt>
<pdfrwt beam="2">  1        2 0.79689139E-01 0.16769031E+03</pdfrwt>
<pdfrwt beam="1">  1       -2 0.74564116E-02 0.16769031E+03</pdfrwt>
<totfact> 0.61391858E+03</totfact>
</mgrwt>
</event>
<event>
 7    1  0.6387485E-006  0.1495013E+03  0.7546771E-02  0.1216264E+00
         -1   -1    0    0    0  501 -0.00000000000E+00  0.00000000000E+00  0.52064654697E+03  0.52064654697E+03  0.00000000000E+00 0.  1.
          1   -1    0    0  501    0  0.00000000000E+00 -0.00000000000E+00 -0.36277950967E+02  0.36277950967E+02  0.00000000000E+00 0. -1.
         23    2    1    2    0    0  0.48393128109E+02  0.66203062434E+02  0.37260235442E+03  0.40147622732E+03  0.12500362498E+03 0.  0.
          5    1    3    3  502    0  0.36598447196E+01 -0.32403514622E+02  0.40916387794E+02  0.52532114114E+02  0.47000000000E+01 0. -1.
         -5    1    3    3    0  502  0.44733283389E+02  0.98606577056E+02  0.33168596663E+03  0.34894411320E+03  0.47000000000E+01 0. -1.
        -11    1    1    2    0    0 -0.18116844496E+02 -0.19505257955E+02  0.92969862843E+02  0.96706103941E+02  0.00000000000E+00 0.  1.
         11    1    1    2    0    0 -0.30276283613E+02 -0.46697804478E+02  0.18796378741E+02  0.58742166680E+02  0.00000000000E+00 0. -1.
<mgrwt>
<rscale>  0 0.13784123E+03</rscale>
<asrwt>0</asrwt>
<pdfrwt beam="2">  1        1 0.55812236E-02 0.14950133E+03</pdfrwt>
<pdfrwt beam="1">  1       -1 0.80099463E-01 0.14950133E+03</pdfrwt>
<totfact> 0.22628503E+03</totfact>
</mgrwt>
</event>
<event>
 7    1  0.6387485E-006  0.1799656E+03  0.7546771E-02  0.1173169E+00
          2   -1    0    0  501    0  0.00000000000E+00  0.00000000000E+00  0.19711682573E+03  0.19711682573E+03  0.00000000000E+00 0. -1.
         -2   -1    0    0    0  501 -0.00000000000E+00 -0.00000000000E+00 -0.20085219739E+03  0.20085219739E+03  0.00000000000E+00 0.  1.
         23    2    1    2    0    0 -0.35202206698E+01 -0.12942233593E+03 -0.10580007322E+03  0.20876128025E+03  0.12500033458E+03 0.  0.
          5    1    3    3  502    0 -0.67251938982E+01 -0.10869889884E+03 -0.13436052342E+03  0.17301884029E+03  0.47000000000E+01 0. -1.
         -5    1    3    3    0  502  0.32049732284E+01 -0.20723437088E+02  0.28560450201E+02  0.35742439953E+02  0.47000000000E+01 0. -1.
        -11    1    1    2    0    0 -0.27626478563E+02  0.74618369015E+02  0.13818012429E+02  0.80759276741E+02  0.00000000000E+00 0.  1.
         11    1    1    2    0    0  0.31146699233E+02  0.54803966915E+02  0.88246689131E+02  0.10844846613E+03  0.00000000000E+00 0. -1.
<mgrwt>
<rscale>  0 0.17456559E+03</rscale>
<asrwt>0</asrwt>
<pdfrwt beam="1">  1        2 0.30325666E-01 0.17996560E+03</pdfrwt>
<pdfrwt beam="2">  1       -2 0.30900338E-01 0.17996560E+03</pdfrwt>
<totfact> 0.16561516E+03</totfact>
</mgrwt>
</event>
<event>
 7    1  0.6387485E-006  0.1307520E+03  0.7546771E-02  0.1239771E+00
          1   -1    0    0  501    0  0.00000000000E+00  0.00000000000E+00  0.19944769776E+03  0.19944769776E+03  0.00000000000E+00 0. -1.
         -1   -1    0    0    0  501 -0.00000000000E+00 -0.00000000000E+00 -0.66809032834E+02  0.66809032834E+02  0.00000000000E+00 0.  1.
         23    2    1    2    0    0 -0.37777546336E+02  0.67815112049E+01  0.63811653665E+02  0.14549234924E+03  0.12499185831E+03 0.  0.
          5    1    3    3  502    0  0.29639208300E+02  0.27781807250E+02  0.62526565060E+02  0.74712601487E+02  0.47000000000E+01 0.  1.
         -5    1    3    3    0  502 -0.67416754636E+02 -0.21000296045E+02  0.12850886047E+01  0.70779747755E+02  0.47000000000E+01 0.  1.
        -11    1    1    2    0    0  0.66393902892E+02 -0.12163165253E+02  0.60071238712E+02  0.90358434307E+02  0.00000000000E+00 0.  1.
         11    1    1    2    0    0 -0.28616356556E+02  0.53816540478E+01  0.87557725525E+01  0.30405947047E+02  0.00000000000E+00 0. -1.
<mgrwt>
<rscale>  0 0.12203901E+03</rscale>
<asrwt>0</asrwt>
<pdfrwt beam="1">  1        1 0.30684261E-01 0.13075204E+03</pdfrwt>
<pdfrwt beam="2">  1       -1 0.10278313E-01 0.13075204E+03</pdfrwt>
<totfact> 0.81140654E+03</totfact>
</mgrwt>
</event>
<event>
 6    1  0.6387485E-006  0.1738349E+03  0.7546771E-02  0.1191562E+00
          2   -1    0    0  501    0  0.00000000000E+00  0.00000000000E+00  0.21005705586E+03  0.21005705586E+03  0.00000000000E+00 0. -1.
         -2   -1    0    0    0  501 -0.00000000000E+00 -0.00000000000E+00 -0.10522028744E+03  0.10522028744E+03  0.00000000000E+00 0.  1.
          5    1    1    2  502    0  0.77170980676E+02  0.60232535356E+02  0.66163284252E+02  0.11824968819E+03  0.47000000000E+01 0. -1.
         -5    1    1    2    0  502 -0.45407933445E+02  0.40418333388E+01 -0.35879355238E+02  0.58203393104E+02  0.47000000000E+01 0.  1.
        -11    1    1    2    0    0 -0.14219731337E+02 -0.49742033803E+02 -0.87441157650E+01  0.52468373776E+02  0.00000000000E+00 0.  1.
         11    1    1    2    0    0 -0.17543315894E+02 -0.14532334891E+02  0.83296955180E+02  0.86355888231E+02  0.00000000000E+00 0. -1.
<mgrwt>
<rscale>  0 0.15748836E+03</rscale>
<asrwt>0</asrwt>
<pdfrwt beam="1">  1        2 0.32316470E-01 0.17383490E+03</pdfrwt>
<pdfrwt beam="2">  1       -2 0.16187737E-01 0.17383490E+03</pdfrwt>
<totfact> 0.47262167E+03</totfact>
</mgrwt>
</event>
<event>
 7    1  0.6387485E-006  0.1357504E+03  0.7546771E-02  0.1233798E+00
         -2   -1    0    0    0  501 -0.00000000000E+00  0.00000000000E+00  0.12083482015E+02  0.12083482015E+02  0.00000000000E+00 0.  1.
          2   -1    0    0  501    0  0.00000000000E+00 -0.00000000000E+00 -0.11531569537E+04  0.11531569537E+04  0.00000000000E+00 0. -1.
         23    2    1    2    0    0  0.34118636380E+02  0.40477510938E+02 -0.63478343549E+03  0.64913648837E+03  0.12500264122E+03 0.  0.
          5    1    3    3  502    0  0.36604409911E+02  0.73313812719E+02 -0.57406838950E+03  0.57990637502E+03  0.47000000000E+01 0. -1.
         -5    1    3    3    0  502 -0.24857735313E+01 -0.32836301780E+02 -0.60715045988E+02  0.69230113346E+02  0.47000000000E+01 0. -1.
        -11    1    1    2    0    0  0.64988822025E+01 -0.55344963862E+02 -0.24493982374E+03  0.25119876144E+03  0.00000000000E+00 0. -1.
         11    1    1    2    0    0 -0.40617518582E+02  0.14867452923E+02 -0.26135021240E+03  0.26490518586E+03  0.00000000000E+00 0.  1.
<mgrwt>
<rscale>  0 0.12581673E+03</rscale>
<asrwt>0</asrwt>
<pdfrwt beam="2">  1        2 0.17740875E+00 0.13575040E+03</pdfrwt>
<pdfrwt beam="1">  1       -2 0.18589973E-02 0.13575040E+03</pdfrwt>
<totfact> 0.17561168E+04</totfact>
</mgrwt>
</event>
<event>
 7    1  0.6387485E-006  0.1349299E+03  0.7546771E-02  0.1233052E+00
          2   -1    0    0  501    0  0.00000000000E+00  0.00000000000E+00  0.38014510169E+03  0.38014510169E+03  0.00000000000E+00 0. -1.
         -2   -1    0    0    0  501 -0.00000000000E+00 -0.00000000000E+00 -0.42187998623E+02  0.42187998623E+02  0.00000000000E+00 0.  1.
         23    2    1    2    0    0 -0.16510668003E+02 -0.48043863658E+02  0.11817098418E+03  0.17936128279E+03  0.12500109307E+03 0.  0.
          5    1    3    3  502    0  0.77242184533E+01  0.32993643693E+02  0.30684297759E+00  0.34211521853E+02  0.47000000000E+01 0.  1.
         -5    1    3    3    0  502 -0.24234886456E+02 -0.81037507351E+02  0.11786414120E+03  0.14514976094E+03  0.47000000000E+01 0.  1.
        -11    1    1    2    0    0  0.47360116279E+02  0.28736692245E+01  0.12241449736E+03  0.13128803355E+03  0.00000000000E+00 0.  1.
         11    1    1    2    0    0 -0.30849448276E+02  0.45170194433E+02  0.97371621516E+02  0.11168378396E+03  0.00000000000E+00 0. -1.
<mgrwt>
<rscale>  0 0.12629990E+03</rscale>
<asrwt>0</asrwt>
<pdfrwt beam="1">  1        2 0.58483859E-01 0.13492994E+03</pdfrwt>
<pdfrwt beam="2">  1       -2 0.64904616E-02 0.13492994E+03</pdfrwt>
<totfact> 0.10483831E+04</totfact>
</mgrwt>
</event>
<event>
 7    1  0.6387485E-006  0.1311539E+03  0.7546771E-02  0.1239144E+00
          4   -1    0    0  501    0  0.00000000000E+00  0.00000000000E+00  0.97606137680E+02  0.97606137680E+02  0.00000000000E+00 0. -1.
         -4   -1    0    0    0  501 -0.00000000000E+00 -0.00000000000E+00 -0.16476839648E+03  0.16476839648E+03  0.00000000000E+00 0.  1.
         23    2    1    2    0    0  0.38612387694E+02 -0.92344019319E+01 -0.91429639997E+02  0.15987724612E+03  0.12500065638E+03 0.  0.
          5    1    3    3  502    0  0.31406470734E+02 -0.62880776320E+02 -0.75495514711E+02  0.10325706357E+03  0.47000000000E+01 0. -1.
         -5    1    3    3    0  502  0.72059169602E+01  0.53646374388E+02 -0.15934125286E+02  0.56620182558E+02  0.47000000000E+01 0. -1.
        -11    1    1    2    0    0 -0.26796396449E+02 -0.34743020514E+02 -0.10606875269E+02  0.45140116748E+02  0.00000000000E+00 0.  1.
         11    1    1    2    0    0 -0.11815991246E+02  0.43977422446E+02  0.34874256467E+02  0.57357171288E+02  0.00000000000E+00 0. -1.
<mgrwt>
<rscale>  0 0.12242846E+03</rscale>
<asrwt>0</asrwt>
<pdfrwt beam="1">  1        4 0.15016329E-01 0.13115394E+03</pdfrwt>
<pdfrwt beam="2">  1       -4 0.25348984E-01 0.13115394E+03</pdfrwt>
<totfact> 0.90093995E+02</totfact>
</mgrwt>
</event>
<event>
 6    1  0.6387485E-006  0.1318124E+03  0.7546771E-02  0.1238994E+00
          1   -1    0    0  501    0  0.00000000000E+00  0.00000000000E+00  0.39456122263E+03  0.39456122263E+03  0.00000000000E+00 0. -1.
         -1   -1    0    0    0  501 -0.00000000000E+00 -0.00000000000E+00 -0.33589567756E+02  0.33589567756E+02  0.00000000000E+00 0.  1.
          5    1    1    2  502    0 -0.29736014942E+02 -0.66157840055E+02  0.17858489339E+03  0.19281012560E+03  0.47000000000E+01 0. -1.
         -5    1    1    2    0  502  0.16235658960E+02  0.42149017887E+02  0.31735583108E+02  0.55401927457E+02  0.47000000000E+01 0.  1.
        -11    1    1    2    0    0 -0.31306372736E+01 -0.35342444076E+02  0.69506016392E+02  0.78038295456E+02  0.00000000000E+00 0. -1.
         11    1    1    2    0    0  0.16630993256E+02  0.59351266244E+02  0.81145161982E+02  0.10190044188E+03  0.00000000000E+00 0.  1.
<mgrwt>
<rscale>  0 0.12252195E+03</rscale>
<asrwt>0</asrwt>
<pdfrwt beam="1">  1        1 0.60701723E-01 0.13181244E+03</pdfrwt>
<pdfrwt beam="2">  1       -1 0.51676261E-02 0.13181244E+03</pdfrwt>
<totfact> 0.97843345E+03</totfact>
</mgrwt>
</event>
<event>
 7    1  0.6387485E-006  0.1118935E+03  0.7546771E-02  0.1267527E+00
          4   -1    0    0  501    0  0.00000000000E+00  0.00000000000E+00  0.25045270126E+03  0.25045270126E+03  0.00000000000E+00 0.  1.
         -4   -1    0    0    0  501 -0.00000000000E+00 -0.00000000000E+00 -0.72374371043E+02  0.72374371043E+02  0.00000000000E+00 0. -1.
         23    2    1    2    0    0 -0.11493839307E+02 -0.14162711614E+02 -0.11454889021E+02  0.11247832443E+03  0.11039686700E+03 0.  0.
          5    1    3    3  502    0 -0.29981811728E+02 -0.41888099744E+02  0.29439039932E+02  0.59516964025E+02  0.47000000000E+01 0. -1.
         -5    1    3    3    0  502  0.18487972421E+02  0.27725388129E+02 -0.40893928953E+02  0.52961360409E+02  0.47000000000E+01 0.  1.
        -11    1    1    2    0    0  0.44875725974E+02 -0.38567711872E+01  0.14507317423E+03  0.15190434934E+03  0.00000000000E+00 0.  1.
         11    1    1    2    0    0 -0.33381886667E+02  0.18019482802E+02  0.44460045007E+02  0.58444398533E+02  0.00000000000E+00 0. -1.
<mgrwt>
<rscale>  0 0.10632701E+03</rscale>
<asrwt>0</asrwt>
<pdfrwt beam="1">  1        4 0.38531184E-01 0.11189352E+03</pdfrwt>
<pdfrwt beam="2">  1       -4 0.11134519E-01 0.11189352E+03</pdfrwt>
<totfact> 0.65800421E+02</totfact>
</mgrwt>
</event>
<event>
 7    1  0.6387485E-006  0.1396620E+03  0.7546771E-02  0.1227640E+00
         -1   -1    0    0    0  501 -0.00000000000E+00  0.00000000000E+00  0.26430937832E+02  0.26430937832E+02  0.00000000000E+00 0.  1.
          1   -1    0    0  501    0  0.00000000000E+00 -0.00000000000E+00 -0.56483802326E+03  0.56483802326E+03  0.00000000000E+00 0. -1.
         23    2    1    2    0    0 -0.80402286888E+01  0.61766616285E+02 -0.29433335282E+03  0.32578763975E+03  0.12500281382E+03 0.  0.
          5    1    3    3  502    0  0.51128475637E+02  0.61520107780E+02 -0.16095474990E+03  0.17979812624E+03  0.47000000000E+01 0.  1.
         -5    1    3    3    0  502 -0.59168704325E+02  0.24650850512E+00 -0.13337860292E+03  0.14598951351E+03  0.47000000000E+01 0.  1.
        -11    1    1    2    0    0  0.35928366019E+02 -0.41692518613E+02 -0.75441323309E+02  0.93383654114E+02  0.00000000000E+00 0.  1.
         11    1    1    2    0    0 -0.27888137331E+02 -0.20074097672E+02 -0.16863240930E+03  0.17209766723E+03  0.00000000000E+00 0. -1.
<mgrwt>
<rscale>  0 0.12987587E+03</rscale>
<asrwt>0</asrwt>
<pdfrwt beam="2">  1        1 0.86898151E-01 0.13966196E+03</pdfrwt>
<pdfrwt beam="1">  1       -1 0.40662984E-02 0.13966196E+03</pdfrwt>
<totfact> 0.87952110E+03</totfact>
</mgrwt>
</event>
<event>
 7    1  0.6387485E-006  0.1463001E+03  0.7546771E-02  0.1215878E+00
          4   -1    0    0  501    0  0.00000000000E+00  0.00000000000E+00  0.99443867602E+03  0.99443867602E+03  0.00000000000E+00 0. -1.
         -4   -1    0    0    0  501 -0.00000000000E+00 -0.00000000000E+00 -0.17630962154E+02  0.17630962154E+02  0.00000000000E+00 0.  1.
         23    2    1    2    0    0 -0.34356307921E+02  0.68317059595E+02  0.60937926022E+03  0.62669514505E+03  0.12472427796E+03 0.  0.
          5    1    3    3  502    0 -0.27985025201E+02 -0.42769237379E+01  0.25877862133E+02  0.38642042657E+02  0.47000000000E+01 0. -1.
         -5    1    3    3    0  502 -0.63712827202E+01  0.72593983333E+02  0.58350139809E+03  0.58805310239E+03  0.47000000000E+01 0. -1.
        -11    1    1    2    0    0 -0.24182182106E+02 -0.40825296933E+02  0.20767700147E+03  0.21302868291E+03  0.00000000000E+00 0.  1.
         11    1    1    2    0    0  0.58538490027E+02 -0.27491762661E+02  0.15975145217E+03  0.17234581022E+03  0.00000000000E+00 0. -1.
<mgrwt>
<rscale>  0 0.13812260E+03</rscale>
<asrwt>0</asrwt>
<pdfrwt beam="1">  1        4 0.15299052E+00 0.14630011E+03</pdfrwt>
<pdfrwt beam="2">  1       -4 0.27124565E-02 0.14630011E+03</pdfrwt>
<totfact> 0.32352320E+02</totfact>
</mgrwt>
</event>
<event>
 7    1  0.6387485E-006  0.2241119E+03  0.7546771E-02  0.1134128E+00
         -1   -1    0    0    0  501 -0.00000000000E+00  0.00000000000E+00  0.61070011647E+02  0.61070011647E+02  0.00000000000E+00 0.  1.
          1   -1    0    0  501    0  0.00000000000E+00 -0.00000000000E+00 -0.86038199517E+03  0.86038199517E+03  0.00000000000E+00 0. -1.
         23    2    1    2    0    0 -0.30920327441E+02 -0.18343287888E+03 -0.25682634969E+03  0.34086052570E+03  0.12498974510E+03 0.  0.
          5    1    3    3  502    0  0.46950412925E+02 -0.65585265312E+02 -0.11583979966E+03  0.14123284846E+03  0.47000000000E+01 0. -1.
         -5    1    3    3    0  502 -0.77870740366E+02 -0.11784761356E+03 -0.14098655003E+03  0.19962767723E+03  0.47000000000E+01 0. -1.
        -11    1    1    2    0    0  0.12498899904E+02  0.16855168370E+01 -0.62149503788E+01  0.14060194666E+02  0.00000000000E+00 0.  1.
         11    1    1    2    0    0  0.18421427536E+02  0.18174736204E+03 -0.53627068345E+03  0.56653128645E+03  0.00000000000E+00 0. -1.
<mgrwt>
<rscale>  0 0.21967153E+03</rscale>
<asrwt>0</asrwt>
<pdfrwt beam="2">  1        1 0.13236646E+00 0.22411186E+03</pdfrwt>
<pdfrwt beam="1">  1       -1 0.93953867E-02 0.22411186E+03</pdfrwt>
<totfact> 0.13797459E+03</totfact>
</mgrwt>
</event>
<event>
 7    1  0.6387485E-006  0.1665196E+03  0.7546771E-02  0.1188421E+00
         -1   -1    0    0    0  501 -0.00000000000E+00  0.00000000000E+00  0.17995793558E+02  0.17995793558E+02  0.00000000000E+00 0.  1.
          1   -1    0    0  501    0  0.00000000000E+00 -0.00000000000E+00 -0.14067427996E+04  0.14067427996E+04  0.00000000000E+00 0. -1.
         23    2    1    2    0    0  0.10998809153E+03 -0.20812707429E+01 -0.57789245757E+03  0.60140540073E+03  0.12500820590E+03 0.  0.
          5    1    3    3  502    0  0.43960242195E+02 -0.48349242057E+02 -0.12261705979E+03  0.13902224805E+03  0.47000000000E+01 0. -1.
         -5    1    3    3    0  502  0.66027849337E+02  0.46267971314E+02 -0.45527539779E+03  0.46238315268E+03  0.47000000000E+01 0. -1.
        -11    1    1    2    0    0 -0.48035173453E+02  0.46261590568E+02 -0.37186511662E+03  0.37779779990E+03  0.00000000000E+00 0. -1.
         11    1    1    2    0    0 -0.61952918079E+02 -0.44180319825E+02 -0.43898943180E+03  0.44553539248E+03  0.00000000000E+00 0.  1.
<mgrwt>
<rscale>  0 0.16024431E+03</rscale>
<asrwt>0</asrwt>
<pdfrwt beam="2">  1        1 0.21642190E+00 0.16651956E+03</pdfrwt>
<pdfrwt beam="1">  1       -1 0.27685845E-02 0.16651956E+03</pdfrwt>
<totfact> 0.34826739E+03</totfact>
</mgrwt>
</event>
<event>
 7    1  0.6387485E-006  0.3249492E+03  0.7546771E-02  0.1074877E+00
         -1   -1    0    0    0  501 -0.00000000000E+00  0.00000000000E+00  0.14604738552E+03  0.14604738552E+03  0.00000000000E+00 0.  1.
          1   -1    0    0  501    0  0.00000000000E+00 -0.00000000000E+00 -0.69476184449E+03  0.69476184449E+03  0.00000000000E+00 0. -1.
         23    2    1    2    0    0  0.26451657758E+03  0.14142077373E+03 -0.28515469505E+03  0.43232532056E+03  0.12499251031E+03 0.  0.
          5    1    3    3  502    0  0.21123763397E+03  0.16040893651E+03 -0.21111114306E+03  0.33903151718E+03  0.47000000000E+01 0. -1.
         -5    1    3    3    0  502  0.53278943610E+02 -0.18988162784E+02 -0.74043551990E+02  0.93293803382E+02  0.47000000000E+01 0. -1.
        -11    1    1    2    0    0 -0.20001393896E+03 -0.13738959525E+03 -0.17649305016E+03  0.30005211784E+03  0.00000000000E+00 0. -1.
         11    1    1    2    0    0 -0.64502638616E+02 -0.40311784794E+01 -0.87066713761E+02  0.10843179162E+03  0.00000000000E+00 0.  1.
<mgrwt>
<rscale>  0 0.32168357E+03</rscale>
<asrwt>0</asrwt>
<pdfrwt beam="2">  1        1 0.10688644E+00 0.32494920E+03</pdfrwt>
<pdfrwt beam="1">  1       -1 0.22468829E-01 0.32494920E+03</pdfrwt>
<totfact> 0.47528224E+02</totfact>
</mgrwt>
</event>
<event>
 7    1  0.6387485E-006  0.1226890E+03  0.7546771E-02  0.1244187E+00
          3   -1    0    0  501    0  0.00000000000E+00  0.00000000000E+00  0.39485469857E+02  0.39485469857E+02  0.00000000000E+00 0. -1.
         -3   -1    0    0    0  501 -0.00000000000E+00 -0.00000000000E+00 -0.55154270682E+03  0.55154270682E+03  0.00000000000E+00 0.  1.
         23    2    1    2    0    0 -0.43798650382E+02 -0.54214458103E+01 -0.44664218997E+03  0.46318660697E+03  0.11447651796E+03 0.  0.
          5    1    3    3  502    0  0.34636390833E+02  0.78860706762E+00 -0.68383846576E+02  0.76803267792E+02  0.47000000000E+01 0. -1.
         -5    1    3    3    0  502 -0.78435041215E+02 -0.62100528780E+01 -0.37825834339E+03  0.38638333918E+03  0.47000000000E+01 0.  1.
        -11    1    1    2    0    0  0.72341309820E+02  0.16640583134E+02 -0.27698460578E+02  0.79229911220E+02  0.00000000000E+00 0. -1.
         11    1    1    2    0    0 -0.28542659439E+02 -0.11219137324E+02 -0.37716586423E+02  0.48611658494E+02  0.00000000000E+00 0.  1.
<mgrwt>
<rscale>  0 0.11934167E+03</rscale>
<asrwt>0</asrwt>
<pdfrwt beam="1">  1        3 0.60746877E-02 0.12268898E+03</pdfrwt>
<pdfrwt beam="2">  1       -3 0.84852723E-01 0.12268898E+03</pdfrwt>
<totfact> 0.49945650E+02</totfact>
</mgrwt>
</event>
<event>
 7    1  0.6387485E-006  0.1296259E+03  0.7546771E-02  0.1238660E+00
          1   -1    0    0  501    0  0.00000000000E+00  0.00000000000E+00  0.74440455114E+02  0.74440455114E+02  0.00000000000E+00 0. -1.
         -1   -1    0    0    0  501 -0.00000000000E+00 -0.00000000000E+00 -0.41927116874E+03  0.41927116874E+03  0.00000000000E+00 0.  1.
         23    2    1    2    0    0  0.49679277504E+02 -0.14421498569E+02 -0.36524412406E+03  0.38756436457E+03  0.11885645247E+03 0.  0.
          5    1    3    3  502    0  0.13660410290E+02 -0.49176764287E+02 -0.63229959195E+02  0.81394586398E+02  0.47000000000E+01 0. -1.
         -5    1    3    3    0  502  0.36018867214E+02  0.34755265718E+02 -0.30201416486E+03  0.30616977817E+03  0.47000000000E+01 0.  1.
        -11    1    1    2    0    0 -0.11169796279E+02  0.17443278622E+02 -0.33762900266E+02  0.39610172335E+02  0.00000000000E+00 0.  1.
         11    1    1    2    0    0 -0.38509481224E+02 -0.30217800534E+01  0.54176310697E+02  0.66537086948E+02  0.00000000000E+00 0. -1.
<mgrwt>
<rscale>  0 0.12272984E+03</rscale>
<asrwt>0</asrwt>
<pdfrwt beam="1">  1        1 0.11452378E-01 0.12962587E+03</pdfrwt>
<pdfrwt beam="2">  1       -1 0.64503256E-01 0.12962587E+03</pdfrwt>
<totfact> 0.13200667E+03</totfact>
</mgrwt>
</event>
<event>
 7    1  0.6387485E-006  0.1454539E+03  0.7546771E-02  0.1215634E+00
          2   -1    0    0  501    0  0.00000000000E+00  0.00000000000E+00  0.61078938257E+03  0.61078938257E+03  0.00000000000E+00 0. -1.
         -2   -1    0    0    0  501 -0.00000000000E+00 -0.00000000000E+00 -0.35664648931E+02  0.35664648931E+02  0.00000000000E+00 0.  1.
         23    2    1    2    0    0  0.73216480253E+02  0.13090650295E+02  0.16746687057E+03  0.22181523201E+03  0.12499930522E+03 0.  0.
          5    1    3    3  502    0  0.18714612261E+02  0.15501796672E+02  0.16516532018E+03  0.16700962668E+03  0.47000000000E+01 0. -1.
         -5    1    3    3    0  502  0.54501867992E+02 -0.24111463772E+01  0.23015503899E+01  0.54805605331E+02  0.47000000000E+01 0. -1.
        -11    1    1    2    0    0 -0.79101790421E+02  0.19736893537E+02  0.23368647775E+03  0.24749951130E+03  0.00000000000E+00 0.  1.
         11    1    1    2    0    0  0.58853101681E+01 -0.32827543831E+02  0.17397138532E+03  0.17713928819E+03  0.00000000000E+00 0. -1.
<mgrwt>
<rscale>  0 0.13830060E+03</rscale>
<asrwt>0</asrwt>
<pdfrwt beam="1">  1        2 0.93967589E-01 0.14545393E+03</pdfrwt>
<pdfrwt beam="2">  1       -2 0.54868695E-02 0.14545393E+03</pdfrwt>
<totfact> 0.80799738E+03</totfact>
</mgrwt>
</event>
<event>
 7    1  0.6387485E-006  0.1857179E+03  0.7546771E-02  0.1167495E+00
         -1   -1    0    0    0  501 -0.00000000000E+00  0.00000000000E+00  0.51112650409E+02  0.51112650409E+02  0.00000000000E+00 0.  1.
          1   -1    0    0  501    0  0.00000000000E+00 -0.00000000000E+00 -0.77761593040E+03  0.77761593040E+03  0.00000000000E+00 0. -1.
         23    2    1    2    0    0 -0.45012457855E+02  0.12976492250E+03 -0.18304588244E+03  0.26076224536E+03  0.12500438814E+03 0.  0.
          5    1    3    3  502    0  0.29031307450E+02  0.48949951482E+02 -0.13272927713E+02  0.58627426793E+02  0.47000000000E+01 0. -1.
         -5    1    3    3    0  502 -0.74043765305E+02  0.80814971023E+02 -0.16977295472E+03  0.20213481857E+03  0.47000000000E+01 0. -1.
        -11    1    1    2    0    0  0.12731257436E+02 -0.64249876197E+02 -0.10711607518E+03  0.12555470947E+03  0.00000000000E+00 0.  1.
         11    1    1    2    0    0  0.32281200418E+02 -0.65515046308E+02 -0.43634132238E+03  0.44241162598E+03  0.00000000000E+00 0. -1.
<mgrwt>
<rscale>  0 0.18031876E+03</rscale>
<asrwt>0</asrwt>
<pdfrwt beam="2">  1        1 0.11963322E+00 0.18571794E+03</pdfrwt>
<pdfrwt beam="1">  1       -1 0.78634849E-02 0.18571794E+03</pdfrwt>
<totfact> 0.21137726E+03</totfact>
</mgrwt>
</event>
<event>
 7    1  0.6387485E-006  0.1267955E+03  0.7546771E-02  0.1248713E+00
         -3   -1    0    0    0  501 -0.00000000000E+00  0.00000000000E+00  0.94992144030E+03  0.94992144030E+03  0.00000000000E+00 0.  1.
          3   -1    0    0  501    0  0.00000000000E+00 -0.00000000000E+00 -0.12671173195E+02  0.12671173195E+02  0.00000000000E+00 0. -1.
         23    2    1    2    0    0 -0.35274291315E+01  0.21036527981E+02  0.60495503242E+03  0.61810006774E+03  0.12498849635E+03 0.  0.
          5    1    3    3  502    0  0.30375661889E+02 -0.21036059534E+02  0.48529509607E+03  0.48672232012E+03  0.47000000000E+01 0.  1.
         -5    1    3    3    0  502 -0.33903091021E+02  0.42072587514E+02  0.11965993635E+03  0.13137774761E+03  0.47000000000E+01 0.  1.
        -11    1    1    2    0    0  0.42915095232E+02 -0.25994811374E+01  0.21808443594E+03  0.22228199185E+03  0.00000000000E+00 0. -1.
         11    1    1    2    0    0 -0.39387666101E+02 -0.18437046843E+02  0.11421079875E+03  0.12221055391E+03  0.00000000000E+00 0.  1.
<mgrwt>
<rscale>  0 0.11665880E+03</rscale>
<asrwt>0</asrwt>
<pdfrwt beam="2">  1        3 0.19494120E-02 0.12679551E+03</pdfrwt>
<pdfrwt beam="1">  1       -3 0.14614170E+00 0.12679551E+03</pdfrwt>
<totfact> 0.83111421E+02</totfact>
</mgrwt>
</event>
<event>
 7    1  0.6387485E-006  0.1800989E+03  0.7546771E-02  0.1173267E+00
          1   -1    0    0  501    0  0.00000000000E+00  0.00000000000E+00  0.85118804849E+03  0.85118804849E+03  0.00000000000E+00 0. -1.
         -1   -1    0    0    0  501 -0.00000000000E+00 -0.00000000000E+00 -0.34249957048E+02  0.34249957048E+02  0.00000000000E+00 0.  1.
         23    2    1    2    0    0 -0.48584164737E+02 -0.12020340345E+03  0.49019694071E+03  0.52223430044E+03  0.12500537833E+03 0.  0.
          5    1    3    3  502    0 -0.22864300060E+02 -0.51929848834E+02  0.49288025477E+02  0.75305277853E+02  0.47000000000E+01 0. -1.
         -5    1    3    3    0  502 -0.25719864677E+02 -0.68273554615E+02  0.44090891523E+03  0.44692902258E+03  0.47000000000E+01 0. -1.
        -11    1    1    2    0    0  0.66092532475E+02  0.42380630908E+02  0.15039429306E+03  0.16965489710E+03  0.00000000000E+00 0.  1.
         11    1    1    2    0    0 -0.17508367738E+02  0.77822772541E+02  0.17634685767E+03  0.19354880800E+03  0.00000000000E+00 0. -1.
<mgrwt>
<rscale>  0 0.17446810E+03</rscale>
<asrwt>0</asrwt>
<pdfrwt beam="1">  1        1 0.13095199E+00 0.18009893E+03</pdfrwt>
<pdfrwt beam="2">  1       -1 0.52692248E-02 0.18009893E+03</pdfrwt>
<totfact> 0.33589103E+03</totfact>
</mgrwt>
</event>
<event>
 7    1  0.6387485E-006  0.1322934E+03  0.7546771E-02  0.1236627E+00
         -1   -1    0    0    0  501 -0.00000000000E+00  0.00000000000E+00  0.10678693048E+03  0.10678693048E+03  0.00000000000E+00 0.  1.
          1   -1    0    0  501    0  0.00000000000E+00 -0.00000000000E+00 -0.13486945095E+03  0.13486945095E+03  0.00000000000E+00 0. -1.
         23    2    1    2    0    0  0.11081156180E+02 -0.41874862087E+02  0.99463604486E+01  0.13266679179E+03  0.12500100583E+03 0.  0.
          5    1    3    3  502    0 -0.54767735439E+01 -0.85220462808E+02  0.92434968578E+01  0.86023569815E+02  0.47000000000E+01 0.  1.
         -5    1    3    3    0  502  0.16557929724E+02  0.43345600721E+02  0.70286359077E+00  0.46643221971E+02  0.47000000000E+01 0.  1.
        -11    1    1    2    0    0 -0.22186753634E+02  0.10914297694E+01  0.24782163164E+02  0.33280607970E+02  0.00000000000E+00 0.  1.
         11    1    1    2    0    0  0.11105597454E+02  0.40783432318E+02 -0.62811044087E+02  0.75708981671E+02  0.00000000000E+00 0. -1.
<mgrwt>
<rscale>  0 0.12400877E+03</rscale>
<asrwt>0</asrwt>
<pdfrwt beam="2">  1        1 0.20749146E-01 0.13229341E+03</pdfrwt>
<pdfrwt beam="1">  1       -1 0.16428758E-01 0.13229341E+03</pdfrwt>
<totfact> 0.64089703E+03</totfact>
</mgrwt>
</event>
<event>
 7    1  0.6387485E-006  0.1722808E+03  0.7546771E-02  0.1182149E+00
         -1   -1    0    0    0  501 -0.00000000000E+00  0.00000000000E+00  0.21036914899E+03  0.21036914899E+03  0.00000000000E+00 0.  1.
          1   -1    0    0  501    0  0.00000000000E+00 -0.00000000000E+00 -0.12251446298E+03  0.12251446298E+03  0.00000000000E+00 0. -1.
         23    2    1    2    0    0  0.11157824379E+03  0.40087205531E+02  0.37806039814E+02  0.17638022163E+03  0.12499598954E+03 0.  0.
          5    1    3    3  502    0  0.57301210005E+02  0.63598994454E+02  0.68348176807E+02  0.10964407889E+03  0.47000000000E+01 0. -1.
         -5    1    3    3    0  502  0.54277033786E+02 -0.23511788922E+02 -0.30542136993E+02  0.66736142735E+02  0.47000000000E+01 0. -1.
        -11    1    1    2    0    0 -0.67366110541E+02  0.14728597190E+02  0.51497933277E+02  0.86064868305E+02  0.00000000000E+00 0.  1.
         11    1    1    2    0    0 -0.44212133251E+02 -0.54815802722E+02 -0.14492870785E+01  0.70438522044E+02  0.00000000000E+00 0. -1.
<mgrwt>
<rscale>  0 0.16594036E+03</rscale>
<asrwt>0</asrwt>
<pdfrwt beam="2">  1        1 0.18848379E-01 0.17228083E+03</pdfrwt>
<pdfrwt beam="1">  1       -1 0.32364484E-01 0.17228083E+03</pdfrwt>
<totfact> 0.24239402E+03</totfact>
</mgrwt>
</event>
<event>
 7    1  0.6387485E-006  0.1497494E+03  0.7546771E-02  0.1209908E+00
          2   -1    0    0  501    0  0.00000000000E+00  0.00000000000E+00  0.22944105122E+03  0.22944105122E+03  0.00000000000E+00 0. -1.
         -2   -1    0    0    0  501 -0.00000000000E+00 -0.00000000000E+00 -0.86620224254E+02  0.86620224254E+02  0.00000000000E+00 0.  1.
         23    2    1    2    0    0  0.30077336593E+02  0.76778736897E+02  0.38181503728E+02  0.15454035515E+03  0.12500109410E+03 0.  0.
          5    1    3    3  502    0 -0.10147268916E+02  0.10153178966E+03  0.22948378920E+02  0.10469187874E+03  0.47000000000E+01 0.  1.
         -5    1    3    3    0  502  0.40224605509E+02 -0.24753052764E+02  0.15233124808E+02  0.49848476415E+02  0.47000000000E+01 0.  1.
        -11    1    1    2    0    0 -0.37118995514E+02 -0.47434819215E+02  0.85884560573E+01  0.60841133121E+02  0.00000000000E+00 0.  1.
         11    1    1    2    0    0  0.70416589210E+01 -0.29343917681E+02  0.96050867178E+02  0.10067978720E+03  0.00000000000E+00 0. -1.
<mgrwt>
<rscale>  0 0.14257332E+03</rscale>
<asrwt>0</asrwt>
<pdfrwt beam="1">  1        2 0.35298623E-01 0.14974944E+03</pdfrwt>
<pdfrwt beam="2">  1       -2 0.13326188E-01 0.14974944E+03</pdfrwt>
<totfact> 0.58573679E+03</totfact>
</mgrwt>
</event>
<event>
 7    1  0.6387485E-006  0.1948519E+03  0.7546771E-02  0.1158562E+00
         -2   -1    0    0    0  501 -0.00000000000E+00  0.00000000000E+00  0.17451626143E+03  0.17451626143E+03  0.00000000000E+00 0.  1.
          2   -1    0    0  501    0  0.00000000000E+00 -0.00000000000E+00 -0.19829136960E+03  0.19829136960E+03  0.00000000000E+00 0. -1.
         23    2    1    2    0    0 -0.13125399176E+03 -0.71517924822E+02  0.39497910930E+01  0.19489189492E+03  0.12499930372E+03 0.  0.
          5    1    3    3  502    0  0.12733447601E+02 -0.38203178075E+02 -0.19819132370E+02  0.45127724414E+02  0.47000000000E+01 0.  1.
         -5    1    3    3    0  502 -0.14398743936E+03 -0.33314746748E+02  0.23768923463E+02  0.14976417050E+03  0.47000000000E+01 0.  1.
        -11    1    1    2    0    0  0.43249534072E+02  0.73078070063E+02 -0.29454543020E+02  0.89880457420E+02  0.00000000000E+00 0. -1.
         11    1    1    2    0    0  0.88004457686E+02 -0.15601452405E+01  0.17296437590E+01  0.88035278686E+02  0.00000000000E+00 0.  1.
<mgrwt>
<rscale>  0 0.18988798E+03</rscale>
<asrwt>0</asrwt>
<pdfrwt beam="2">  1        2 0.30506364E-01 0.19485187E+03</pdfrwt>
<pdfrwt beam="1">  1       -2 0.26848656E-01 0.19485187E+03</pdfrwt>
<totfact> 0.21243389E+03</totfact>
</mgrwt>
</event>
<event>
 6    1  0.6387485E-006  0.1495600E+03  0.7546771E-02  0.1220418E+00
          1   -1    0    0  501    0  0.00000000000E+00  0.00000000000E+00  0.68083262609E+02  0.68083262609E+02  0.00000000000E+00 0. -1.
         -1   -1    0    0    0  501 -0.00000000000E+00 -0.00000000000E+00 -0.24342037939E+03  0.24342037939E+03  0.00000000000E+00 0.  1.
          5    1    1    2  502    0  0.15649404595E+02 -0.19284699293E+02  0.26125244272E+02  0.36351366952E+02  0.47000000000E+01 0. -1.
         -5    1    1    2    0  502  0.17365611207E+02  0.46341586607E+01 -0.17055044459E+03  0.17155927264E+03  0.47000000000E+01 0.  1.
        -11    1    1    2    0    0 -0.37384348959E+02 -0.21806175184E+02  0.14087489222E+02  0.45514351317E+02  0.00000000000E+00 0.  1.
         11    1    1    2    0    0  0.43693331560E+01  0.36456715816E+02 -0.44999405688E+02  0.58078651091E+02  0.00000000000E+00 0. -1.
<mgrwt>
<rscale>  0 0.13485950E+03</rscale>
<asrwt>0</asrwt>
<pdfrwt beam="1">  1        1 0.10474348E-01 0.14956001E+03</pdfrwt>
<pdfrwt beam="2">  1       -1 0.37449288E-01 0.14956001E+03</pdfrwt>
<totfact> 0.40323127E+03</totfact>
</mgrwt>
</event>
<event>
 7    1  0.6387485E-006  0.1439801E+03  0.7546771E-02  0.1218570E+00
          2   -1    0    0  501    0  0.00000000000E+00  0.00000000000E+00  0.79098477109E+02  0.79098477109E+02  0.00000000000E+00 0.  1.
         -2   -1    0    0    0  501 -0.00000000000E+00 -0.00000000000E+00 -0.21619173113E+03  0.21619173113E+03  0.00000000000E+00 0. -1.
         23    2    1    2    0    0 -0.71182511143E+02  0.61162218080E+01 -0.56399695991E+02  0.15463248815E+03  0.12500369043E+03 0.  0.
          5    1    3    3  502    0  0.15758058579E+02 -0.15723473021E+02  0.24754148530E+02  0.33621449752E+02  0.47000000000E+01 0. -1.
         -5    1    3    3    0  502 -0.86940569722E+02  0.21839694829E+02 -0.81153844521E+02  0.12101103840E+03  0.47000000000E+01 0. -1.
        -11    1    1    2    0    0  0.50742520085E+02  0.22479734437E+02 -0.32307414588E+01  0.55592980629E+02  0.00000000000E+00 0.  1.
         11    1    1    2    0    0  0.20439991058E+02 -0.28595956245E+02 -0.77462816569E+02  0.85064739457E+02  0.00000000000E+00 0. -1.
<mgrwt>
<rscale>  0 0.13617540E+03</rscale>
<asrwt>0</asrwt>
<pdfrwt beam="1">  1        2 0.12168996E-01 0.14398014E+03</pdfrwt>
<pdfrwt beam="2">  1       -2 0.33260267E-01 0.14398014E+03</pdfrwt>
<totfact> 0.40709329E+03</totfact>
</mgrwt>
</event>
<event>
 7    1  0.6387485E-006  0.1579781E+03  0.7546771E-02  0.1198980E+00
          4   -1    0    0  501    0  0.00000000000E+00  0.00000000000E+00  0.32984771576E+02  0.32984771576E+02  0.00000000000E+00 0. -1.
         -4   -1    0    0    0  501 -0.00000000000E+00 -0.00000000000E+00 -0.64929453902E+03  0.64929453902E+03  0.00000000000E+00 0.  1.
         23    2    1    2    0    0 -0.94946075820E+02 -0.17805109678E+02 -0.37505217470E+03  0.40696585811E+03  0.12500118671E+03 0.  0.
          5    1    3    3  502    0 -0.17185079409E+02 -0.43321666056E+02 -0.26836181202E+03  0.27241924648E+03  0.47000000000E+01 0.  1.
         -5    1    3    3    0  502 -0.77760996412E+02  0.25516556378E+02 -0.10669036268E+03  0.13454661163E+03  0.47000000000E+01 0.  1.
        -11    1    1    2    0    0  0.27337584218E+02 -0.34373981374E+02 -0.54798193980E+02  0.70226463458E+02  0.00000000000E+00 0.  1.
         11    1    1    2    0    0  0.67608491602E+02  0.52179091052E+02 -0.18645939877E+03  0.20508698903E+03  0.00000000000E+00 0. -1.
<mgrwt>
<rscale>  0 0.15122127E+03</rscale>
<asrwt>0</asrwt>
<pdfrwt beam="1">  1        4 0.50745806E-02 0.15797809E+03</pdfrwt>
<pdfrwt beam="2">  1       -4 0.99891461E-01 0.15797809E+03</pdfrwt>
<totfact> 0.34241496E+02</totfact>
</mgrwt>
</event>
<event>
 7    1  0.6387485E-006  0.2786020E+03  0.7546771E-02  0.1098387E+00
          2   -1    0    0  501    0  0.00000000000E+00  0.00000000000E+00  0.99621485864E+02  0.99621485864E+02  0.00000000000E+00 0. -1.
         -2   -1    0    0    0  501 -0.00000000000E+00 -0.00000000000E+00 -0.74338386748E+03  0.74338386748E+03  0.00000000000E+00 0.  1.
         23    2    1    2    0    0  0.26406668304E+01  0.24897154380E+03 -0.35204763539E+03  0.44895058265E+03  0.12500114136E+03 0.  0.
          5    1    3    3  502    0 -0.31140158055E+02  0.21698009784E+03 -0.22769730716E+03  0.31609844351E+03  0.47000000000E+01 0. -1.
         -5    1    3    3    0  502  0.33780824885E+02  0.31991445955E+02 -0.12435032823E+03  0.13285213914E+03  0.47000000000E+01 0. -1.
        -11    1    1    2    0    0 -0.13077267798E+02 -0.22518348152E+01 -0.20668872120E+01  0.13429732530E+02  0.00000000000E+00 0. -1.
         11    1    1    2    0    0  0.10436600968E+02 -0.24671970898E+03 -0.28964785901E+03  0.38062503816E+03  0.00000000000E+00 0.  1.
<mgrwt>
<rscale>  0 0.27511620E+03</rscale>
<asrwt>0</asrwt>
<pdfrwt beam="1">  1        2 0.15326382E-01 0.27860202E+03</pdfrwt>
<pdfrwt beam="2">  1       -2 0.11436675E+00 0.27860202E+03</pdfrwt>
<totfact> 0.23751840E+02</totfact>
</mgrwt>
</event>
<event>
 7    1  0.6387485E-006  0.1296772E+03  0.7546771E-02  0.1241016E+00
          2   -1    0    0  501    0  0.00000000000E+00  0.00000000000E+00  0.19477401020E+02  0.19477401020E+02  0.00000000000E+00 0. -1.
         -2   -1    0    0    0  501 -0.00000000000E+00 -0.00000000000E+00 -0.67487557527E+03  0.67487557527E+03  0.00000000000E+00 0.  1.
         23    2    1    2    0    0  0.31149157510E+02 -0.14977226117E+02 -0.39260647921E+03  0.41346827405E+03  0.12498631453E+03 0.  0.
          5    1    3    3  502    0  0.91383915170E+01 -0.68250902717E+02 -0.17011998891E+03  0.18358811658E+03  0.47000000000E+01 0.  1.
         -5    1    3    3    0  502  0.22010765993E+02  0.53273676599E+02 -0.22248649029E+03  0.22988015748E+03  0.47000000000E+01 0.  1.
        -11    1    1    2    0    0 -0.23334934240E+02 -0.37452691243E+02 -0.14812301030E+03  0.15455629854E+03  0.00000000000E+00 0.  1.
         11    1    1    2    0    0 -0.78142232706E+01  0.52429917361E+02 -0.11466868474E+03  0.12632840370E+03  0.00000000000E+00 0. -1.
<mgrwt>
<rscale>  0 0.12127018E+03</rscale>
<asrwt>0</asrwt>
<pdfrwt beam="1">  1        2 0.29965233E-02 0.12967716E+03</pdfrwt>
<pdfrwt beam="2">  1       -2 0.10382701E+00 0.12967716E+03</pdfrwt>
<totfact> 0.23486760E+03</totfact>
</mgrwt>
</event>
<event>
 7    1  0.6387485E-006  0.1622610E+03  0.7546771E-02  0.1194114E+00
          1   -1    0    0  501    0  0.00000000000E+00  0.00000000000E+00  0.38449079368E+03  0.38449079368E+03  0.00000000000E+00 0. -1.
         -1   -1    0    0    0  501 -0.00000000000E+00 -0.00000000000E+00 -0.87665582177E+02  0.87665582177E+02  0.00000000000E+00 0.  1.
         23    2    1    2    0    0  0.22206109208E+02  0.10091893188E+03  0.19770785245E+02  0.16346100423E+03  0.12510345262E+03 0.  0.
          5    1    3    3  502    0 -0.37442444139E+02  0.61025311631E+02  0.47869327612E+02  0.86253045214E+02  0.47000000000E+01 0. -1.
         -5    1    3    3    0  502  0.59648553347E+02  0.39893620249E+02 -0.28098542367E+02  0.77207959020E+02  0.47000000000E+01 0.  1.
        -11    1    1    2    0    0  0.12342618022E+02 -0.87168124511E+02  0.12994842048E+03  0.15696246091E+03  0.00000000000E+00 0.  1.
         11    1    1    2    0    0 -0.34548727230E+02 -0.13750807369E+02  0.14710600577E+03  0.15173291071E+03  0.00000000000E+00 0. -1.
<mgrwt>
<rscale>  0 0.15529437E+03</rscale>
<asrwt>0</asrwt>
<pdfrwt beam="1">  1        1 0.59152429E-01 0.16226095E+03</pdfrwt>
<pdfrwt beam="2">  1       -1 0.13487013E-01 0.16226095E+03</pdfrwt>
<totfact> 0.23853594E+03</totfact>
</mgrwt>
</event>
<event>
 7    1  0.6387485E-006  0.1316624E+03  0.7546771E-02  0.1239879E+00
          1   -1    0    0  501    0  0.00000000000E+00  0.00000000000E+00  0.14547140843E+03  0.14547140843E+03  0.00000000000E+00 0. -1.
         -1   -1    0    0    0  501 -0.00000000000E+00 -0.00000000000E+00 -0.90877001392E+02  0.90877001392E+02  0.00000000000E+00 0.  1.
         23    2    1    2    0    0 -0.35460969007E+02 -0.21385148330E+02  0.18886965233E+02  0.13301012423E+03  0.12498068171E+03 0.  0.
          5    1    3    3  502    0 -0.75140375169E+02  0.38999790476E+01 -0.12273893917E+02  0.76380784816E+02  0.47000000000E+01 0. -1.
         -5    1    3    3    0  502  0.39679406163E+02 -0.25285127377E+02  0.31160859149E+02  0.56629339417E+02  0.47000000000E+01 0. -1.
        -11    1    1    2    0    0  0.28156343201E+02  0.42757468961E+02 -0.10176020874E+02  0.52197051786E+02  0.00000000000E+00 0.  1.
         11    1    1    2    0    0  0.73046258062E+01 -0.21372320631E+02  0.45883462683E+02  0.51141233805E+02  0.00000000000E+00 0. -1.
<mgrwt>
<rscale>  0 0.12197168E+03</rscale>
<asrwt>0</asrwt>
<pdfrwt beam="1">  1        1 0.22380217E-01 0.13166235E+03</pdfrwt>
<pdfrwt beam="2">  1       -1 0.13981077E-01 0.13166235E+03</pdfrwt>
<totfact> 0.74970435E+03</totfact>
</mgrwt>
</event>
<event>
 7    1  0.6387485E-006  0.2458464E+03  0.7546771E-02  0.1119288E+00
          1   -1    0    0  501    0  0.00000000000E+00  0.00000000000E+00  0.12650114693E+03  0.12650114693E+03  0.00000000000E+00 0. -1.
         -1   -1    0    0    0  501 -0.00000000000E+00 -0.00000000000E+00 -0.44127171426E+03  0.44127171426E+03  0.00000000000E+00 0.  1.
         23    2    1    2    0    0 -0.24045736026E+02  0.21032868676E+03 -0.15012600299E+03  0.28805947195E+03  0.12499635480E+03 0.  0.
          5    1    3    3  502    0  0.35182072959E+02  0.13681613909E+03 -0.12865754367E+03  0.19113159790E+03  0.47000000000E+01 0. -1.
         -5    1    3    3    0  502 -0.59227808985E+02  0.73512547676E+02 -0.21468459318E+02  0.96927874053E+02  0.47000000000E+01 0. -1.
        -11    1    1    2    0    0 -0.54103883352E+01 -0.92485333464E+02 -0.11699316843E+03  0.14923206984E+03  0.00000000000E+00 0.  1.
         11    1    1    2    0    0  0.29456124361E+02 -0.11784335330E+03 -0.47651395911E+02  0.13048131940E+03  0.00000000000E+00 0. -1.
<mgrwt>
<rscale>  0 0.24075992E+03</rscale>
<asrwt>0</asrwt>
<pdfrwt beam="1">  1        1 0.19461715E-01 0.24584638E+03</pdfrwt>
<pdfrwt beam="2">  1       -1 0.67887955E-01 0.24584638E+03</pdfrwt>
<totfact> 0.60433807E+02</totfact>
</mgrwt>
</event>
<event>
 7    1  0.6387485E-006  0.1661342E+03  0.7546771E-02  0.1188818E+00
          1   -1    0    0  501    0  0.00000000000E+00  0.00000000000E+00  0.32780478559E+03  0.32780478559E+03  0.00000000000E+00 0. -1.
         -1   -1    0    0    0  501 -0.00000000000E+00 -0.00000000000E+00 -0.76746981426E+02  0.76746981426E+02  0.00000000000E+00 0.  1.
         23    2    1    2    0    0 -0.89854918923E+02  0.62466749415E+02  0.18113177711E+03  0.24578302809E+03  0.12499829993E+03 0.  0.
          5    1    3    3  502    0 -0.13373133856E+02  0.81414217217E+02  0.63938364873E+02  0.10448597981E+03  0.47000000000E+01 0. -1.
         -5    1    3    3    0  502 -0.76481785067E+02 -0.18947467802E+02  0.11719341223E+03  0.14129704829E+03  0.47000000000E+01 0. -1.
        -11    1    1    2    0    0  0.85407331086E+02 -0.34349038776E+02  0.86084729671E+02  0.12603511158E+03  0.00000000000E+00 0. -1.
         11    1    1    2    0    0  0.44475878374E+01 -0.28117710639E+02 -0.16158702611E+02  0.32733627346E+02  0.00000000000E+00 0.  1.
<mgrwt>
<rscale>  0 0.15989286E+03</rscale>
<asrwt>0</asrwt>
<pdfrwt beam="1">  1        1 0.50431505E-01 0.16613421E+03</pdfrwt>
<pdfrwt beam="2">  1       -1 0.11807228E-01 0.16613421E+03</pdfrwt>
<totfact> 0.35878346E+03</totfact>
</mgrwt>
</event>
<event>
 6    1  0.6387485E-006  0.4467614E+03  0.7546771E-02  0.1028692E+00
          3   -1    0    0  501    0  0.00000000000E+00  0.00000000000E+00  0.54214220215E+03  0.54214220215E+03  0.00000000000E+00 0. -1.
         -3   -1    0    0    0  501 -0.00000000000E+00 -0.00000000000E+00 -0.92040303867E+02  0.92040303867E+02  0.00000000000E+00 0.  1.
          5    1    1    2  502    0  0.64906774080E+02  0.85537963006E+02  0.11330071978E+03  0.15616906076E+03  0.47000000000E+01 0. -1.
         -5    1    1    2    0  502  0.53538506088E+01  0.11179129633E+02 -0.55835489192E+02  0.57387529212E+02  0.47000000000E+01 0.  1.
        -11    1    1    2    0    0 -0.72605444743E+02 -0.23021532639E+02  0.17563344692E+03  0.19143836932E+03  0.00000000000E+00 0.  1.
         11    1    1    2    0    0  0.23448200545E+01 -0.73695560000E+02  0.21700322078E+03  0.22918754673E+03  0.00000000000E+00 0. -1.
<mgrwt>
<rscale>  0 0.44676138E+03</rscale>
<asrwt>0</asrwt>
<pdfrwt beam="1">  1        3 0.83406491E-01 0.44676138E+03</pdfrwt>
<pdfrwt beam="2">  1       -3 0.14160047E-01 0.44676138E+03</pdfrwt>
<totfact> 0.14545373E+02</totfact>
</mgrwt>
</event>
<event>
 6    1  0.6387485E-006  0.2290914E+03  0.7546771E-02  0.1162645E+00
          1   -1    0    0  501    0  0.00000000000E+00  0.00000000000E+00  0.16944063368E+03  0.16944063368E+03  0.00000000000E+00 0. -1.
         -1   -1    0    0    0  501 -0.00000000000E+00 -0.00000000000E+00 -0.16229187371E+03  0.16229187371E+03  0.00000000000E+00 0.  1.
          5    1    1    2  502    0  0.29895888227E+02 -0.54116074245E+02  0.73590892357E+02  0.96229013621E+02  0.47000000000E+01 0. -1.
         -5    1    1    2    0  502 -0.46870159497E+02  0.83806701633E+02 -0.92875793613E+02  0.13367265288E+03  0.47000000000E+01 0.  1.
        -11    1    1    2    0    0 -0.16518028895E+02  0.25738984013E+02 -0.29282263877E+01  0.30723201109E+02  0.00000000000E+00 0. -1.
         11    1    1    2    0    0  0.33492300165E+02 -0.55429611401E+02  0.29361887618E+02  0.71107639779E+02  0.00000000000E+00 0.  1.
<mgrwt>
<rscale>  0 0.18543397E+03</rscale>
<asrwt>0</asrwt>
<pdfrwt beam="1">  1        1 0.26067790E-01 0.22909140E+03</pdfrwt>
<pdfrwt beam="2">  1       -1 0.24967981E-01 0.22909140E+03</pdfrwt>
<totfact> 0.25060986E+03</totfact>
</mgrwt>
</event>
<event>
 7    1  0.6387485E-006  0.2321214E+03  0.7546771E-02  0.1128031E+00
         -1   -1    0    0    0  501 -0.00000000000E+00  0.00000000000E+00  0.72026330466E+02  0.72026330466E+02  0.00000000000E+00 0.  1.
          1   -1    0    0  501    0  0.00000000000E+00 -0.00000000000E+00 -0.69763966628E+03  0.69763966628E+03  0.00000000000E+00 0. -1.
         23    2    1    2    0    0  0.18707113253E+03 -0.57152007743E+02 -0.32307843287E+03  0.39781905271E+03  0.12497345438E+03 0.  0.
          5    1    3    3  502    0  0.10802497098E+03 -0.97521299268E+01 -0.71882252172E+02  0.13020616948E+03  0.47000000000E+01 0. -1.
         -5    1    3    3    0  502  0.79046161546E+02 -0.47399877816E+02 -0.25119618070E+03  0.26761288323E+03  0.47000000000E+01 0. -1.
        -11    1    1    2    0    0 -0.83338632040E+02 -0.20216716818E+02 -0.10305555317E+03  0.13406897579E+03  0.00000000000E+00 0.  1.
         11    1    1    2    0    0 -0.10373250049E+03  0.77368724561E+02 -0.19947934977E+03  0.23777796824E+03  0.00000000000E+00 0. -1.
<mgrwt>
<rscale>  0 0.22803455E+03</rscale>
<asrwt>0</asrwt>
<pdfrwt beam="2">  1        1 0.10732918E+00 0.23212136E+03</pdfrwt>
<pdfrwt beam="1">  1       -1 0.11080974E-01 0.23212136E+03</pdfrwt>
<totfact> 0.14693556E+03</totfact>
</mgrwt>
</event>
<event>
 7    1  0.6387485E-006  0.1719865E+03  0.7546771E-02  0.1182002E+00
         -2   -1    0    0    0  501 -0.00000000000E+00  0.00000000000E+00  0.10235171482E+04  0.10235171482E+04  0.00000000000E+00 0.  1.
          2   -1    0    0  501    0  0.00000000000E+00 -0.00000000000E+00 -0.27674658295E+02  0.27674658295E+02  0.00000000000E+00 0. -1.
         23    2    1    2    0    0 -0.24767490601E+02 -0.11547439048E+03  0.68483503525E+03  0.70610082054E+03  0.12502631647E+03 0.  0.
          5    1    3    3  502    0  0.37391252133E+02  0.24952176658E+01  0.12471804302E+03  0.13031121249E+03  0.47000000000E+01 0. -1.
         -5    1    3    3    0  502 -0.62158742734E+02 -0.11796960814E+03  0.56011699223E+03  0.57578960805E+03  0.47000000000E+01 0. -1.
        -11    1    1    2    0    0  0.35308980065E+02  0.98602882108E+02  0.30755589095E+03  0.32489979762E+03  0.00000000000E+00 0. -1.
         11    1    1    2    0    0 -0.10541489464E+02  0.16871508370E+02  0.34515637093E+01  0.20191188347E+02  0.00000000000E+00 0.  1.
<mgrwt>
<rscale>  0 0.16607715E+03</rscale>
<asrwt>0</asrwt>
<pdfrwt beam="2">  1        2 0.42576405E-02 0.17198646E+03</pdfrwt>
<pdfrwt beam="1">  1       -2 0.15746415E+00 0.17198646E+03</pdfrwt>
<totfact> 0.53703116E+02</totfact>
</mgrwt>
</event>
<event>
 7    1  0.6387485E-006  0.1897609E+03  0.7546771E-02  0.1163782E+00
          2   -1    0    0  501    0  0.00000000000E+00  0.00000000000E+00  0.10403286403E+04  0.10403286403E+04  0.00000000000E+00 0. -1.
         -2   -1    0    0    0  501 -0.00000000000E+00 -0.00000000000E+00 -0.32291054039E+02  0.32291054039E+02  0.00000000000E+00 0.  1.
         23    2    1    2    0    0  0.12805587242E+03 -0.63145149394E+02  0.64559798040E+03  0.67290856711E+03  0.12499428402E+03 0.  0.
          5    1    3    3  502    0 -0.95051421837E+01 -0.44588906258E+02  0.23585614639E+03  0.24026803798E+03  0.47000000000E+01 0.  1.
         -5    1    3    3    0  502  0.13756101461E+03 -0.18556243136E+02  0.40974183401E+03  0.43264052912E+03  0.47000000000E+01 0.  1.
        -11    1    1    2    0    0 -0.95231471589E+02  0.81246091434E+02  0.22754192144E+03  0.25970230373E+03  0.00000000000E+00 0.  1.
         11    1    1    2    0    0 -0.32824400834E+02 -0.18100942040E+02  0.13489768438E+03  0.14000882345E+03  0.00000000000E+00 0. -1.
<mgrwt>
<rscale>  0 0.18421808E+03</rscale>
<asrwt>0</asrwt>
<pdfrwt beam="1">  1        2 0.16005053E+00 0.18976087E+03</pdfrwt>
<pdfrwt beam="2">  1       -2 0.49678553E-02 0.18976087E+03</pdfrwt>
<totfact> 0.48484977E+03</totfact>
</mgrwt>
</event>
<event>
 7    1  0.6387485E-006  0.1725452E+03  0.7546771E-02  0.1181901E+00
         -3   -1    0    0    0  501 -0.00000000000E+00  0.00000000000E+00  0.52109982466E+03  0.52109982466E+03  0.00000000000E+00 0.  1.
          3   -1    0    0  501    0  0.00000000000E+00 -0.00000000000E+00 -0.50534840538E+02  0.50534840538E+02  0.00000000000E+00 0. -1.
         23    2    1    2    0    0 -0.87200560991E+02  0.80893389386E+02  0.29480171684E+03  0.34158441024E+03  0.12499671510E+03 0.  0.
          5    1    3    3  502    0  0.68342539554E+01  0.43321178744E+02  0.19526610768E+02  0.48237019839E+02  0.47000000000E+01 0.  1.
         -5    1    3    3    0  502 -0.94034814946E+02  0.37572210642E+02  0.27527510607E+03  0.29334739040E+03  0.47000000000E+01 0.  1.
        -11    1    1    2    0    0  0.35456103266E+02  0.10511142849E+02  0.19611118489E+02  0.41859471463E+02  0.00000000000E+00 0.  1.
         11    1    1    2    0    0  0.51744457725E+02 -0.91404532235E+02  0.15615214880E+03  0.18819078350E+03  0.00000000000E+00 0. -1.
<mgrwt>
<rscale>  0 0.16617091E+03</rscale>
<asrwt>0</asrwt>
<pdfrwt beam="2">  1        3 0.77745912E-02 0.17254523E+03</pdfrwt>
<pdfrwt beam="1">  1       -3 0.80169200E-01 0.17254523E+03</pdfrwt>
<totfact> 0.39795230E+02</totfact>
</mgrwt>
</event>
<event>
 7    1  0.6387485E-006  0.3349502E+03  0.7546771E-02  0.1070204E+00
          2   -1    0    0  501    0  0.00000000000E+00  0.00000000000E+00  0.50328712875E+03  0.50328712875E+03  0.00000000000E+00 0. -1.
         -2   -1    0    0    0  501 -0.00000000000E+00 -0.00000000000E+00 -0.24778804057E+03  0.24778804057E+03  0.00000000000E+00 0.  1.
         23    2    1    2    0    0 -0.16672320387E+03 -0.26223602523E+03 -0.58402000707E+01  0.33500110983E+03  0.12500910373E+03 0.  0.
          5    1    3    3  502    0 -0.12594967266E+03 -0.22500288902E+03 -0.51749066944E+02  0.26303930512E+03  0.47000000000E+01 0. -1.
         -5    1    3    3    0  502 -0.40773531215E+02 -0.37233136209E+02  0.45908866873E+02  0.71961804711E+02  0.47000000000E+01 0. -1.
        -11    1    1    2    0    0  0.15616899384E+03  0.26596031725E+03  0.23594114513E+03  0.38831928738E+03  0.00000000000E+00 0.  1.
         11    1    1    2    0    0  0.10554210031E+02 -0.37242920249E+01  0.25398143117E+02  0.27754772099E+02  0.00000000000E+00 0. -1.
<mgrwt>
<rscale>  0 0.33211645E+03</rscale>
<asrwt>0</asrwt>
<pdfrwt beam="1">  1        2 0.77428789E-01 0.33495020E+03</pdfrwt>
<pdfrwt beam="2">  1       -2 0.38121237E-01 0.33495020E+03</pdfrwt>
<totfact> 0.40511152E+02</totfact>
</mgrwt>
</event>
<event>
 7    1  0.6387485E-006  0.1935632E+03  0.7546771E-02  0.1159821E+00
          2   -1    0    0  501    0  0.00000000000E+00  0.00000000000E+00  0.51921656399E+03  0.51921656399E+03  0.00000000000E+00 0.  1.
         -2   -1    0    0    0  501 -0.00000000000E+00 -0.00000000000E+00 -0.66783063545E+02  0.66783063545E+02  0.00000000000E+00 0. -1.
         23    2    1    2    0    0 -0.43959901856E+02 -0.14107393463E+03  0.19122565194E+03  0.27209184000E+03  0.12502956222E+03 0.  0.
          5    1    3    3  502    0 -0.46222205827E+02 -0.15433590411E+02  0.11514156826E+03  0.12511737995E+03  0.47000000000E+01 0.  1.
         -5    1    3    3    0  502  0.22623039710E+01 -0.12564034422E+03  0.76084083678E+02  0.14697446004E+03  0.47000000000E+01 0.  1.
        -11    1    1    2    0    0  0.48224749469E+02  0.30129831395E+02  0.51952868977E+02  0.77022943311E+02  0.00000000000E+00 0. -1.
         11    1    1    2    0    0 -0.42648476135E+01  0.11094410324E+03  0.20925497953E+03  0.23688484423E+03  0.00000000000E+00 0.  1.
<mgrwt>
<rscale>  0 0.18850062E+03</rscale>
<asrwt>0</asrwt>
<pdfrwt beam="1">  1        2 0.79879469E-01 0.19356322E+03</pdfrwt>
<pdfrwt beam="2">  1       -2 0.10274318E-01 0.19356322E+03</pdfrwt>
<totfact> 0.37304182E+03</totfact>
</mgrwt>
</event>
<event>
 6    1  0.6387485E-006  0.1492493E+03  0.7546771E-02  0.1221987E+00
         -1   -1    0    0    0  501 -0.00000000000E+00  0.00000000000E+00  0.25191737164E+03  0.25191737164E+03  0.00000000000E+00 0.  1.
          1   -1    0    0  501    0  0.00000000000E+00 -0.00000000000E+00 -0.61685082088E+02  0.61685082088E+02  0.00000000000E+00 0. -1.
          5    1    1    2  502    0  0.77222657940E+02  0.30047629763E+02  0.78359865259E+02  0.11414270646E+03  0.47000000000E+01 0. -1.
         -5    1    1    2    0  502 -0.66076074100E+02 -0.11181127392E+01  0.63280374203E+02  0.91617648431E+02  0.47000000000E+01 0.  1.
        -11    1    1    2    0    0 -0.41801808399E+02  0.13413647944E+02  0.24607097222E+02  0.50327193150E+02  0.00000000000E+00 0.  1.
         11    1    1    2    0    0  0.30655224560E+02 -0.42343164968E+02  0.23984952864E+02  0.57514905688E+02  0.00000000000E+00 0. -1.
<mgrwt>
<rscale>  0 0.13375556E+03</rscale>
<asrwt>0</asrwt>
<pdfrwt beam="2">  1        1 0.94900128E-02 0.14924934E+03</pdfrwt>
<pdfrwt beam="1">  1       -1 0.38756518E-01 0.14924934E+03</pdfrwt>
<totfact> 0.43303495E+03</totfact>
</mgrwt>
</event>
<event>
 7    1  0.6387485E-006  0.1195890E+03  0.7546771E-02  0.1255266E+00
         -2   -1    0    0    0  501 -0.00000000000E+00  0.00000000000E+00  0.92370641605E+02  0.92370641605E+02  0.00000000000E+00 0.  1.
          2   -1    0    0  501    0  0.00000000000E+00 -0.00000000000E+00 -0.19295017096E+03  0.19295017096E+03  0.00000000000E+00 0. -1.
         23    2    1    2    0    0  0.74624807193E+01  0.30131712779E+02  0.30493370991E+02  0.12341549370E+03  0.11548995487E+03 0.  0.
          5    1    3    3  502    0 -0.46901958581E+02 -0.13944530630E+02  0.16790738839E+02  0.51944803051E+02  0.47000000000E+01 0. -1.
         -5    1    3    3    0  502  0.54364439301E+02  0.44076243409E+02  0.13702632152E+02  0.71470690646E+02  0.47000000000E+01 0.  1.
        -11    1    1    2    0    0 -0.44593290313E+02 -0.14850516929E+02 -0.37657357273E+02  0.60226040470E+02  0.00000000000E+00 0. -1.
         11    1    1    2    0    0  0.37130809593E+02 -0.15281195849E+02 -0.93415543075E+02  0.10167927840E+03  0.00000000000E+00 0.  1.
<mgrwt>
<rscale>  0 0.11291429E+03</rscale>
<asrwt>0</asrwt>
<pdfrwt beam="2">  1        2 0.29684642E-01 0.11958904E+03</pdfrwt>
<pdfrwt beam="1">  1       -2 0.14210868E-01 0.11958904E+03</pdfrwt>
<totfact> 0.62674052E+03</totfact>
</mgrwt>
</event>
<event>
 7    1  0.6387485E-006  0.1754667E+03  0.7546771E-02  0.1178418E+00
          3   -1    0    0  501    0  0.00000000000E+00  0.00000000000E+00  0.34067658095E+02  0.34067658095E+02  0.00000000000E+00 0. -1.
         -3   -1    0    0    0  501 -0.00000000000E+00 -0.00000000000E+00 -0.81522073207E+03  0.81522073207E+03  0.00000000000E+00 0.  1.
         23    2    1    2    0    0 -0.10625954073E+02  0.12268043303E+03 -0.49152625754E+03  0.52190671256E+03  0.12500062087E+03 0.  0.
          5    1    3    3  502    0  0.93001301298E+01  0.13629301144E+02  0.85581768379E+00  0.17177680112E+02  0.47000000000E+01 0. -1.
         -5    1    3    3    0  502 -0.19926084203E+02  0.10905113189E+03 -0.49238207522E+03  0.50472903245E+03  0.47000000000E+01 0. -1.
        -11    1    1    2    0    0 -0.15449043358E+02  0.45882820426E+01 -0.73239783141E+02  0.74991940282E+02  0.00000000000E+00 0.  1.
         11    1    1    2    0    0  0.26074997431E+02 -0.12726871507E+03 -0.21638703329E+03  0.25238973732E+03  0.00000000000E+00 0. -1.
<mgrwt>
<rscale>  0 0.16945485E+03</rscale>
<asrwt>0</asrwt>
<pdfrwt beam="1">  1        3 0.52411785E-02 0.17546668E+03</pdfrwt>
<pdfrwt beam="2">  1       -3 0.12541857E+00 0.17546668E+03</pdfrwt>
<totfact> 0.27080863E+02</totfact>
</mgrwt>
</event>
<event>
 7    1  0.6387485E-006  0.1785338E+03  0.7546771E-02  0.1175371E+00
         -2   -1    0    0    0  501 -0.00000000000E+00  0.00000000000E+00  0.50710146329E+02  0.50710146329E+02  0.00000000000E+00 0.  1.
          2   -1    0    0  501    0  0.00000000000E+00 -0.00000000000E+00 -0.55464386789E+03  0.55464386789E+03  0.00000000000E+00 0. -1.
         23    2    1    2    0    0  0.55215243486E+02  0.11487969828E+03 -0.23938793694E+03  0.29863170803E+03  0.12501297733E+03 0.  0.
          5    1    3    3  502    0  0.46713192674E+02  0.59928577455E+02 -0.22970861576E+03  0.24199523739E+03  0.47000000000E+01 0. -1.
         -5    1    3    3    0  502  0.85020508117E+01  0.54951120830E+02 -0.96793211804E+01  0.56636470644E+02  0.47000000000E+01 0. -1.
        -11    1    1    2    0    0 -0.47163594529E+02 -0.35526394739E+02 -0.48461925201E+02  0.76387744869E+02  0.00000000000E+00 0.  1.
         11    1    1    2    0    0 -0.80516489565E+01 -0.79353303546E+02 -0.21608385943E+03  0.23033456132E+03  0.00000000000E+00 0. -1.
<mgrwt>
<rscale>  0 0.17239678E+03</rscale>
<asrwt>0</asrwt>
<pdfrwt beam="2">  1        2 0.85329827E-01 0.17853379E+03</pdfrwt>
<pdfrwt beam="1">  1       -2 0.78015608E-02 0.17853379E+03</pdfrwt>
<totfact> 0.53172742E+03</totfact>
</mgrwt>
</event>
<event>
 6    1  0.6387485E-006  0.2687509E+03  0.7546771E-02  0.1115971E+00
         -2   -1    0    0    0  501 -0.00000000000E+00  0.00000000000E+00  0.29994186753E+02  0.29994186753E+02  0.00000000000E+00 0.  1.
          2   -1    0    0  501    0  0.00000000000E+00 -0.00000000000E+00 -0.17408843470E+04  0.17408843470E+04  0.00000000000E+00 0. -1.
          5    1    1    2  502    0 -0.15650861988E+03  0.75306689322E+02 -0.99196144339E+03  0.10070628782E+04  0.47000000000E+01 0. -1.
         -5    1    1    2    0  502  0.11401387920E+02  0.19528081988E+01  0.67173166729E+01  0.14178062267E+02  0.47000000000E+01 0.  1.
        -11    1    1    2    0    0  0.21928126545E+02  0.79309793999E+01 -0.29707267400E+02  0.37765922528E+02  0.00000000000E+00 0.  1.
         11    1    1    2    0    0  0.12317910542E+03 -0.85190476921E+02 -0.69593876614E+03  0.71187167073E+03  0.00000000000E+00 0. -1.
<mgrwt>
<rscale>  0 0.24582681E+03</rscale>
<asrwt>0</asrwt>
<pdfrwt beam="2">  1        2 0.26782838E+00 0.26875094E+03</pdfrwt>
<pdfrwt beam="1">  1       -2 0.46144899E-02 0.26875094E+03</pdfrwt>
<totfact> 0.22492728E+03</totfact>
</mgrwt>
</event>
<event>
 7    1  0.6387485E-006  0.1438092E+03  0.7546771E-02  0.1218153E+00
          1   -1    0    0  501    0  0.00000000000E+00  0.00000000000E+00  0.12454795872E+03  0.12454795872E+03  0.00000000000E+00 0. -1.
         -1   -1    0    0    0  501 -0.00000000000E+00 -0.00000000000E+00 -0.16141017805E+03  0.16141017805E+03  0.00000000000E+00 0.  1.
         23    2    1    2    0    0  0.64465993652E+02 -0.29985400312E+02 -0.76344186891E+02  0.16281748419E+03  0.12500443879E+03 0.  0.
          5    1    3    3  502    0  0.32880208836E+02 -0.46631949693E+01  0.32432728471E+02  0.46656461465E+02  0.47000000000E+01 0.  1.
         -5    1    3    3    0  502  0.31585784816E+02 -0.25322205343E+02 -0.10877691536E+03  0.11616102273E+03  0.47000000000E+01 0.  1.
        -11    1    1    2    0    0 -0.31052004609E+02  0.61977134855E+02  0.31722745026E+02  0.76234669194E+02  0.00000000000E+00 0.  1.
         11    1    1    2    0    0 -0.33413989043E+02 -0.31991734543E+02  0.77592225289E+01  0.46905983382E+02  0.00000000000E+00 0. -1.
<mgrwt>
<rscale>  0 0.13647453E+03</rscale>
<asrwt>0</asrwt>
<pdfrwt beam="1">  1        1 0.19161225E-01 0.14380924E+03</pdfrwt>
<pdfrwt beam="2">  1       -1 0.24832335E-01 0.14380924E+03</pdfrwt>
<totfact> 0.36673462E+03</totfact>
</mgrwt>
</event>
<event>
 7    1  0.6387485E-006  0.1262467E+03  0.7546771E-02  0.1247395E+00
         -1   -1    0    0    0  501 -0.00000000000E+00  0.00000000000E+00  0.82318617884E+02  0.82318617884E+02  0.00000000000E+00 0.  1.
          1   -1    0    0  501    0  0.00000000000E+00 -0.00000000000E+00 -0.14800407016E+03  0.14800407016E+03  0.00000000000E+00 0. -1.
         23    2    1    2    0    0 -0.72430133952E+01  0.16174171515E+02 -0.37357215972E+02  0.13165786584E+03  0.12499666790E+03 0.  0.
          5    1    3    3  502    0 -0.16741438090E+02 -0.12305133253E+02  0.41774455369E+02  0.46892293345E+02  0.47000000000E+01 0. -1.
         -5    1    3    3    0  502  0.94984246950E+01  0.28479304769E+02 -0.79131671341E+02  0.84765572499E+02  0.47000000000E+01 0. -1.
        -11    1    1    2    0    0  0.18690042891E+02 -0.52316563783E+01  0.31377376242E+02  0.36894819034E+02  0.00000000000E+00 0.  1.
         11    1    1    2    0    0 -0.11447029496E+02 -0.10942515137E+02 -0.59705612544E+02  0.61770003165E+02  0.00000000000E+00 0. -1.
<mgrwt>
<rscale>  0 0.11743166E+03</rscale>
<asrwt>0</asrwt>
<pdfrwt beam="2">  1        1 0.22769857E-01 0.12624671E+03</pdfrwt>
<pdfrwt beam="1">  1       -1 0.12664403E-01 0.12624671E+03</pdfrwt>
<totfact> 0.85249477E+03</totfact>
</mgrwt>
</event>
<event>
 7    1  0.6387485E-006  0.2662191E+03  0.7546771E-02  0.1105500E+00
         -2   -1    0    0    0  501 -0.00000000000E+00  0.00000000000E+00  0.98104854205E+02  0.98104854205E+02  0.00000000000E+00 0.  1.
          2   -1    0    0  501    0  0.00000000000E+00 -0.00000000000E+00 -0.69109479473E+03  0.69109479473E+03  0.00000000000E+00 0. -1.
         23    2    1    2    0    0 -0.20061696360E+03  0.12246990581E+03 -0.27036231335E+03  0.37943169124E+03  0.12500633554E+03 0.  0.
          5    1    3    3  502    0  0.15219712852E+02  0.13655049213E+02 -0.74586106517E+01  0.22267036200E+02  0.47000000000E+01 0.  1.
         -5    1    3    3    0  502 -0.21583667645E+03  0.10881485660E+03 -0.26290370270E+03  0.35716465504E+03  0.47000000000E+01 0.  1.
        -11    1    1    2    0    0  0.12752688601E+03 -0.12474014899E+03 -0.24569494540E+03  0.30362677356E+03  0.00000000000E+00 0. -1.
         11    1    1    2    0    0  0.73090077584E+02  0.22702431736E+01 -0.76932681766E+02  0.10614118413E+03  0.00000000000E+00 0.  1.
<mgrwt>
<rscale>  0 0.26275444E+03</rscale>
<asrwt>0</asrwt>
<pdfrwt beam="2">  1        2 0.10632228E+00 0.26621913E+03</pdfrwt>
<pdfrwt beam="1">  1       -2 0.15093055E-01 0.26621913E+03</pdfrwt>
<totfact> 0.14435523E+03</totfact>
</mgrwt>
</event>
<event>
 7    1  0.6387485E-006  0.1204824E+03  0.7546771E-02  0.1255175E+00
          1   -1    0    0  501    0  0.00000000000E+00  0.00000000000E+00  0.50147825346E+02  0.50147825346E+02  0.00000000000E+00 0. -1.
         -1   -1    0    0    0  501 -0.00000000000E+00 -0.00000000000E+00 -0.23617490240E+03  0.23617490240E+03  0.00000000000E+00 0.  1.
         23    2    1    2    0    0  0.74428649603E+01 -0.88755426689E+01 -0.13179853035E+03  0.17856892085E+03  0.11992429026E+03 0.  0.
          5    1    3    3  502    0  0.22541128878E+02  0.51925957856E+02 -0.73239821998E+02  0.92685323092E+02  0.47000000000E+01 0. -1.
         -5    1    3    3    0  502 -0.15098263918E+02 -0.60801500525E+02 -0.58558708356E+02  0.85883597757E+02  0.47000000000E+01 0.  1.
        -11    1    1    2    0    0  0.41981225873E+02  0.77824908552E+01 -0.17392934167E+02  0.46103195645E+02  0.00000000000E+00 0.  1.
         11    1    1    2    0    0 -0.49424090834E+02  0.10930518137E+01 -0.36835612534E+02  0.61650611252E+02  0.00000000000E+00 0. -1.
<mgrwt>
<rscale>  0 0.11296554E+03</rscale>
<asrwt>0</asrwt>
<pdfrwt beam="1">  1        1 0.77150502E-02 0.12048239E+03</pdfrwt>
<pdfrwt beam="2">  1       -1 0.36334599E-01 0.12048239E+03</pdfrwt>
<totfact> 0.62940362E+03</totfact>
</mgrwt>
</event>
<event>
 7    1  0.6387485E-006  0.1683358E+03  0.7546771E-02  0.1185985E+00
         -2   -1    0    0    0  501 -0.00000000000E+00  0.00000000000E+00  0.13448636153E+03  0.13448636153E+03  0.00000000000E+00 0.  1.
          2   -1    0    0  501    0  0.00000000000E+00 -0.00000000000E+00 -0.39053263060E+03  0.39053263060E+03  0.00000000000E+00 0. -1.
         23    2    1    2    0    0 -0.52276240483E+01 -0.11262137729E+03  0.58553943525E+02  0.17822884767E+03  0.12500422058E+03 0.  0.
          5    1    3    3  502    0 -0.62216537512E+02 -0.79078227965E+02  0.24348868749E+02  0.10363021320E+03  0.47000000000E+01 0. -1.
         -5    1    3    3    0  502  0.56988913464E+02 -0.33543149323E+02  0.34205074776E+02  0.74598634470E+02  0.47000000000E+01 0. -1.
        -11    1    1    2    0    0 -0.26953096604E+02  0.10486102172E+03 -0.27259126061E+03  0.29330581081E+03  0.00000000000E+00 0. -1.
         11    1    1    2    0    0  0.32180720652E+02  0.77603555648E+01 -0.42008951981E+02  0.53484333657E+02  0.00000000000E+00 0.  1.
<mgrwt>
<rscale>  0 0.16242568E+03</rscale>
<asrwt>0</asrwt>
<pdfrwt beam="2">  1        2 0.60081942E-01 0.16833585E+03</pdfrwt>
<pdfrwt beam="1">  1       -2 0.20690210E-01 0.16833585E+03</pdfrwt>
<totfact> 0.16067831E+03</totfact>
</mgrwt>
</event>
<event>
 7    1  0.6387485E-006  0.1325253E+03  0.7546771E-02  0.1237579E+00
         -1   -1    0    0    0  501 -0.00000000000E+00  0.00000000000E+00  0.38877667403E+03  0.38877667403E+03  0.00000000000E+00 0.  1.
          1   -1    0    0  501    0  0.00000000000E+00 -0.00000000000E+00 -0.34856364045E+02  0.34856364045E+02  0.00000000000E+00 0. -1.
         23    2    1    2    0    0  0.34960830620E+02 -0.26736224169E+02  0.21750184819E+03  0.25469589066E+03  0.12500342952E+03 0.  0.
          5    1    3    3  502    0 -0.16199326939E+02 -0.40977355470E+02  0.18923252282E+03  0.19435174182E+03  0.47000000000E+01 0. -1.
         -5    1    3    3    0  502  0.51160157559E+02  0.14241131301E+02  0.28269325369E+02  0.60344148839E+02  0.47000000000E+01 0. -1.
        -11    1    1    2    0    0 -0.51820805219E+01  0.14001485113E+02 -0.10653686455E+02  0.18341117168E+02  0.00000000000E+00 0. -1.
         11    1    1    2    0    0 -0.29778750098E+02  0.12734739056E+02  0.14707214825E+03  0.15059603025E+03  0.00000000000E+00 0.  1.
<mgrwt>
<rscale>  0 0.12340744E+03</rscale>
<asrwt>0</asrwt>
<pdfrwt beam="2">  1        1 0.53625178E-02 0.13252525E+03</pdfrwt>
<pdfrwt beam="1">  1       -1 0.59811793E-01 0.13252525E+03</pdfrwt>
<totfact> 0.42210300E+03</totfact>
</mgrwt>
</event>
<event>
 7    1  0.6387485E-006  0.1349179E+03  0.7546771E-02  0.1232767E+00
          2   -1    0    0  501    0  0.00000000000E+00  0.00000000000E+00  0.55530825729E+03  0.55530825729E+03  0.00000000000E+00 0. -1.
         -2   -1    0    0    0  501 -0.00000000000E+00 -0.00000000000E+00 -0.26873735217E+02  0.26873735217E+02  0.00000000000E+00 0.  1.
         23    2    1    2    0    0 -0.50015505413E+02  0.87108345623E+01  0.23753605436E+03  0.27317797571E+03  0.12500159949E+03 0.  0.
          5    1    3    3  502    0  0.11807943356E+02  0.53536227976E+02  0.13034770716E+03  0.14148558228E+03  0.47000000000E+01 0.  1.
         -5    1    3    3    0  502 -0.61823448769E+02 -0.44825393414E+02  0.10718834720E+03  0.13169239343E+03  0.47000000000E+01 0.  1.
        -11    1    1    2    0    0  0.59275526496E+02 -0.27748689740E+02  0.27458488560E+03  0.28227723469E+03  0.00000000000E+00 0. -1.
         11    1    1    2    0    0 -0.92600210833E+01  0.19037855178E+02  0.16313582118E+02  0.26726782107E+02  0.00000000000E+00 0.  1.
<mgrwt>
<rscale>  0 0.12648489E+03</rscale>
<asrwt>0</asrwt>
<pdfrwt beam="1">  1        2 0.85432031E-01 0.13491786E+03</pdfrwt>
<pdfrwt beam="2">  1       -2 0.41344212E-02 0.13491786E+03</pdfrwt>
<totfact> 0.13687331E+04</totfact>
</mgrwt>
</event>
<event>
 7    1  0.6387485E-006  0.1349212E+03  0.7546771E-02  0.1232583E+00
          1   -1    0    0  501    0  0.00000000000E+00  0.00000000000E+00  0.57659392758E+03  0.57659392758E+03  0.00000000000E+00 0. -1.
         -1   -1    0    0    0  501 -0.00000000000E+00 -0.00000000000E+00 -0.27372655029E+02  0.27372655029E+02  0.00000000000E+00 0.  1.
         23    2    1    2    0    0 -0.38578929206E+02  0.32996913525E+02  0.21565978700E+03  0.25438725036E+03  0.12500639717E+03 0.  0.
          5    1    3    3  502    0  0.17829029024E+02 -0.17026581698E+01  0.17616490848E+03  0.17713536716E+03  0.47000000000E+01 0. -1.
         -5    1    3    3    0  502 -0.56407958231E+02  0.34699571695E+02  0.39494878523E+02  0.77251883194E+02  0.47000000000E+01 0. -1.
        -11    1    1    2    0    0  0.60432828409E+02 -0.33560523434E+02  0.30926169128E+03  0.31689308793E+03  0.00000000000E+00 0. -1.
         11    1    1    2    0    0 -0.21853899203E+02  0.56360990887E+00  0.24299794273E+02  0.32686244327E+02  0.00000000000E+00 0.  1.
<mgrwt>
<rscale>  0 0.12660459E+03</rscale>
<asrwt>0</asrwt>
<pdfrwt beam="1">  1        1 0.88706749E-01 0.13492120E+03</pdfrwt>
<pdfrwt beam="2">  1       -1 0.42111781E-02 0.13492120E+03</pdfrwt>
<totfact> 0.81083309E+03</totfact>
</mgrwt>
</event>
<event>
 7    1  0.6387485E-006  0.1371998E+03  0.7546771E-02  0.1228985E+00
         -2   -1    0    0    0  501 -0.00000000000E+00  0.00000000000E+00  0.60167627456E+02  0.60167627456E+02  0.00000000000E+00 0.  1.
          2   -1    0    0  501    0  0.00000000000E+00 -0.00000000000E+00 -0.25018599281E+03  0.25018599281E+03  0.00000000000E+00 0. -1.
         23    2    1    2    0    0 -0.50587764222E+00  0.56567478660E+02 -0.92423222691E+02  0.16542626169E+03  0.12499464153E+03 0.  0.
          5    1    3    3  502    0 -0.17747052640E+02  0.89875749232E+02 -0.88432833924E+02  0.12741689171E+03  0.47000000000E+01 0. -1.
         -5    1    3    3    0  502  0.17241174997E+02 -0.33308270573E+02 -0.39903887675E+01  0.38009369981E+02  0.47000000000E+01 0. -1.
        -11    1    1    2    0    0  0.24105939773E+02 -0.52168713067E+02 -0.10509076487E+03  0.11977787699E+03  0.00000000000E+00 0. -1.
         11    1    1    2    0    0 -0.23600062131E+02 -0.43987655925E+01  0.74956222117E+01  0.25149481578E+02  0.00000000000E+00 0.  1.
<mgrwt>
<rscale>  0 0.12897449E+03</rscale>
<asrwt>0</asrwt>
<pdfrwt beam="2">  1        2 0.38490152E-01 0.13719984E+03</pdfrwt>
<pdfrwt beam="1">  1       -2 0.92565583E-02 0.13719984E+03</pdfrwt>
<totfact> 0.94678910E+03</totfact>
</mgrwt>
</event>
<event>
 7    1  0.6387485E-006  0.1354435E+03  0.7546771E-02  0.1232959E+00
          1   -1    0    0  501    0  0.00000000000E+00  0.00000000000E+00  0.54349364737E+03  0.54349364737E+03  0.00000000000E+00 0. -1.
         -1   -1    0    0    0  501 -0.00000000000E+00 -0.00000000000E+00 -0.26089678042E+02  0.26089678042E+02  0.00000000000E+00 0.  1.
         23    2    1    2    0    0 -0.46789285776E+02 -0.23028503720E+02  0.28584674162E+03  0.31631203013E+03  0.12500156585E+03 0.  0.
          5    1    3    3  502    0 -0.30412126989E+00 -0.13760901521E+02  0.26314445734E+03  0.26354610664E+03  0.47000000000E+01 0. -1.
         -5    1    3    3    0  502 -0.46485164506E+02 -0.92676021988E+01  0.22702284282E+02  0.52765923486E+02  0.47000000000E+01 0. -1.
        -11    1    1    2    0    0  0.12836991364E+02 -0.29044979483E+02  0.13306674819E+03  0.13680335762E+03  0.00000000000E+00 0.  1.
         11    1    1    2    0    0  0.33952294412E+02  0.52073483203E+02  0.98490479520E+02  0.11646793767E+03  0.00000000000E+00 0. -1.
<mgrwt>
<rscale>  0 0.12636005E+03</rscale>
<asrwt>0</asrwt>
<pdfrwt beam="1">  1        1 0.83614399E-01 0.13544350E+03</pdfrwt>
<pdfrwt beam="2">  1       -1 0.40137970E-02 0.13544350E+03</pdfrwt>
<totfact> 0.94187459E+03</totfact>
</mgrwt>
</event>
<event>
 7    1  0.6387485E-006  0.4436389E+03  0.7546771E-02  0.1030229E+00
          2   -1    0    0  501    0  0.00000000000E+00  0.00000000000E+00  0.10567865695E+04  0.10567865695E+04  0.00000000000E+00 0.  1.
         -2   -1    0    0    0  501 -0.00000000000E+00 -0.00000000000E+00 -0.19733765836E+03  0.19733765836E+03  0.00000000000E+00 0. -1.
         23    2    1    2    0    0 -0.36580788516E+03 -0.21765949177E+03  0.26425880739E+03  0.51637988810E+03  0.12499763338E+03 0.  0.
          5    1    3    3  502    0 -0.51445440647E+02 -0.90655801941E+02  0.55409075179E+02  0.11814128576E+03  0.47000000000E+01 0.  1.
         -5    1    3    3    0  502 -0.31436244451E+03 -0.12700368983E+03  0.20884973221E+03  0.39823860234E+03  0.47000000000E+01 0.  1.
        -11    1    1    2    0    0  0.25694802778E+03  0.19846189365E+03  0.46174508151E+03  0.56446251648E+03  0.00000000000E+00 0.  1.
         11    1    1    2    0    0  0.10885985738E+03  0.19197598122E+02  0.13344502227E+03  0.17328182331E+03  0.00000000000E+00 0. -1.
<mgrwt>
<rscale>  0 0.44169332E+03</rscale>
<asrwt>0</asrwt>
<pdfrwt beam="1">  1        2 0.16258255E+00 0.44363890E+03</pdfrwt>
<pdfrwt beam="2">  1       -2 0.30359640E-01 0.44363890E+03</pdfrwt>
<totfact> 0.23989170E+02</totfact>
</mgrwt>
</event>
<event>
 7    1  0.6387485E-006  0.1344517E+03  0.7546771E-02  0.1233304E+00
          2   -1    0    0  501    0  0.00000000000E+00  0.00000000000E+00  0.61828252289E+02  0.61828252289E+02  0.00000000000E+00 0. -1.
         -2   -1    0    0    0  501 -0.00000000000E+00 -0.00000000000E+00 -0.23927433514E+03  0.23927433514E+03  0.00000000000E+00 0.  1.
         23    2    1    2    0    0 -0.43519978195E+02  0.23711242216E+02 -0.12865746129E+03  0.18609137726E+03  0.12498418635E+03 0.  0.
          5    1    3    3  502    0 -0.57644560606E+02  0.60153780723E+02 -0.11936887471E+03  0.14564474227E+03  0.47000000000E+01 0.  1.
         -5    1    3    3    0  502  0.14124582411E+02 -0.36442538507E+02 -0.92885865769E+01  0.40446634986E+02  0.47000000000E+01 0.  1.
        -11    1    1    2    0    0  0.20278351008E+02 -0.31729946337E+02 -0.71966078714E+02  0.81222641545E+02  0.00000000000E+00 0.  1.
         11    1    1    2    0    0  0.23241627188E+02  0.80187041210E+01  0.23177457146E+02  0.33788568627E+02  0.00000000000E+00 0. -1.
<mgrwt>
<rscale>  0 0.12613618E+03</rscale>
<asrwt>0</asrwt>
<pdfrwt beam="1">  1        2 0.95120388E-02 0.13445170E+03</pdfrwt>
<pdfrwt beam="2">  1       -2 0.36811436E-01 0.13445170E+03</pdfrwt>
<totfact> 0.45358712E+03</totfact>
</mgrwt>
</event>
<event>
 7    1  0.6387485E-006  0.1281091E+03  0.7546771E-02  0.1244460E+00
          3   -1    0    0  501    0  0.00000000000E+00  0.00000000000E+00  0.14520727467E+03  0.14520727467E+03  0.00000000000E+00 0. -1.
         -3   -1    0    0    0  501 -0.00000000000E+00 -0.00000000000E+00 -0.12020648748E+03  0.12020648748E+03  0.00000000000E+00 0.  1.
         23    2    1    2    0    0  0.12015918898E+02  0.25370567517E+02 -0.56031427497E+02  0.13982657848E+03  0.12499561264E+03 0.  0.
          5    1    3    3  502    0  0.96415180273E+01  0.33339577819E+02  0.34282577102E+02  0.49008891151E+02  0.47000000000E+01 0.  1.
         -5    1    3    3    0  502  0.23744008712E+01 -0.79690103022E+01 -0.90314004600E+02  0.90817687328E+02  0.47000000000E+01 0.  1.
        -11    1    1    2    0    0 -0.75778398843E+00  0.28482788308E+02  0.60481128946E+02  0.66856640844E+02  0.00000000000E+00 0. -1.
         11    1    1    2    0    0 -0.11258134910E+02 -0.53853355825E+02  0.20551085740E+02  0.58730542824E+02  0.00000000000E+00 0.  1.
<mgrwt>
<rscale>  0 0.11917728E+03</rscale>
<asrwt>0</asrwt>
<pdfrwt beam="1">  1        3 0.22339581E-01 0.12810914E+03</pdfrwt>
<pdfrwt beam="2">  1       -3 0.18493306E-01 0.12810914E+03</pdfrwt>
<totfact> 0.10835909E+03</totfact>
</mgrwt>
</event>
<event>
 7    1  0.6387485E-006  0.2475165E+03  0.7546771E-02  0.1117468E+00
          2   -1    0    0  501    0  0.00000000000E+00  0.00000000000E+00  0.14929221399E+03  0.14929221399E+03  0.00000000000E+00 0. -1.
         -2   -1    0    0    0  501 -0.00000000000E+00 -0.00000000000E+00 -0.44671829140E+03  0.44671829140E+03  0.00000000000E+00 0.  1.
         23    2    1    2    0    0  0.21328107998E+03 -0.12258172567E+02 -0.26366406663E+03  0.36163952988E+03  0.12500131066E+03 0.  0.
          5    1    3    3  502    0  0.22814588935E+03 -0.11367596588E+02 -0.25893245453E+03  0.34532285631E+03  0.47000000000E+01 0.  1.
         -5    1    3    3    0  502 -0.14864809375E+02 -0.89057597845E+00 -0.47316121017E+01  0.16316673570E+02  0.47000000000E+01 0.  1.
        -11    1    1    2    0    0 -0.11595383276E+03 -0.28519401829E+02  0.10645748564E+02  0.11988319138E+03  0.00000000000E+00 0. -1.
         11    1    1    2    0    0 -0.97327247218E+02  0.40777574396E+02 -0.44407759347E+02  0.11448778413E+03  0.00000000000E+00 0.  1.
<mgrwt>
<rscale>  0 0.24352338E+03</rscale>
<asrwt>0</asrwt>
<pdfrwt beam="1">  1        2 0.22968033E-01 0.24751648E+03</pdfrwt>
<pdfrwt beam="2">  1       -2 0.68725892E-01 0.24751648E+03</pdfrwt>
<totfact> 0.47100121E+02</totfact>
</mgrwt>
</event>
<event>
 7    1  0.6387485E-006  0.2065048E+03  0.7546771E-02  0.1149047E+00
         -2   -1    0    0    0  501 -0.00000000000E+00  0.00000000000E+00  0.24206994367E+03  0.24206994367E+03  0.00000000000E+00 0.  1.
          2   -1    0    0  501    0  0.00000000000E+00 -0.00000000000E+00 -0.15992492914E+03  0.15992492914E+03  0.00000000000E+00 0. -1.
         23    2    1    2    0    0 -0.14799633010E+03 -0.71539209100E+02  0.65053092561E+02  0.21650896610E+03  0.12499382141E+03 0.  0.
          5    1    3    3  502    0 -0.64832240467E+02  0.46720920203E+01 -0.27290418733E+02  0.70653413240E+02  0.47000000000E+01 0.  1.
         -5    1    3    3    0  502 -0.83164089634E+02 -0.76211301121E+02  0.92343511294E+02  0.14585555286E+03  0.47000000000E+01 0.  1.
        -11    1    1    2    0    0  0.18324419589E+02 -0.60635304198E+01 -0.22125128431E+02  0.29361063716E+02  0.00000000000E+00 0. -1.
         11    1    1    2    0    0  0.12967191051E+03  0.77602739520E+02  0.39217050402E+02  0.15612484299E+03  0.00000000000E+00 0.  1.
<mgrwt>
<rscale>  0 0.20082252E+03</rscale>
<asrwt>0</asrwt>
<pdfrwt beam="2">  1        2 0.24603835E-01 0.20650479E+03</pdfrwt>
<pdfrwt beam="1">  1       -2 0.37241530E-01 0.20650479E+03</pdfrwt>
<totfact> 0.14833241E+03</totfact>
</mgrwt>
</event>
<event>
 7    1  0.6387485E-006  0.1426338E+03  0.7546771E-02  0.1220392E+00
         -1   -1    0    0    0  501 -0.00000000000E+00  0.00000000000E+00  0.11728093596E+03  0.11728093596E+03  0.00000000000E+00 0.  1.
          1   -1    0    0  501    0  0.00000000000E+00 -0.00000000000E+00 -0.15423986554E+03  0.15423986554E+03  0.00000000000E+00 0. -1.
         23    2    1    2    0    0  0.43255196890E+02 -0.53363989900E+02  0.20015584678E+02  0.14403129552E+03  0.12500265190E+03 0.  0.
          5    1    3    3  502    0  0.13595672599E+02  0.35283646888E+02  0.31887123665E+02  0.49685578459E+02  0.47000000000E+01 0.  1.
         -5    1    3    3    0  502  0.29659524291E+02 -0.88647636788E+02 -0.11871538988E+02  0.94345717058E+02  0.47000000000E+01 0.  1.
        -11    1    1    2    0    0  0.13650270430E+02  0.25636696099E+02  0.14122641337E+02  0.32295805734E+02  0.00000000000E+00 0.  1.
         11    1    1    2    0    0 -0.56905467320E+02  0.27727293801E+02 -0.71097155601E+02  0.95193700248E+02  0.00000000000E+00 0. -1.
<mgrwt>
<rscale>  0 0.13487793E+03</rscale>
<asrwt>0</asrwt>
<pdfrwt beam="2">  1        1 0.23729210E-01 0.14263376E+03</pdfrwt>
<pdfrwt beam="1">  1       -1 0.18043221E-01 0.14263376E+03</pdfrwt>
<totfact> 0.46846697E+03</totfact>
</mgrwt>
</event>
<event>
 7    1  0.6387485E-006  0.1301649E+03  0.7546771E-02  0.1236898E+00
          3   -1    0    0  501    0  0.00000000000E+00  0.00000000000E+00  0.25130727583E+03  0.25130727583E+03  0.00000000000E+00 0. -1.
         -3   -1    0    0    0  501 -0.00000000000E+00 -0.00000000000E+00 -0.65581784791E+02  0.65581784791E+02  0.00000000000E+00 0.  1.
         23    2    1    2    0    0 -0.35864346422E+02 -0.57300075525E+01  0.39728935687E+02  0.13609297086E+03  0.12499529614E+03 0.  0.
          5    1    3    3  502    0 -0.49787454408E+02  0.38545285871E+02  0.58245721888E+02  0.85902175744E+02  0.47000000000E+01 0. -1.
         -5    1    3    3    0  502  0.13923107986E+02 -0.44275293423E+02 -0.18516786201E+02  0.50190795121E+02  0.47000000000E+01 0. -1.
        -11    1    1    2    0    0  0.53226669567E+01  0.50078750960E+02  0.89850576130E+02  0.10300164131E+03  0.00000000000E+00 0.  1.
         11    1    1    2    0    0  0.30541679465E+02 -0.44348743407E+02  0.56145979220E+02  0.77794448445E+02  0.00000000000E+00 0. -1.
<mgrwt>
<rscale>  0 0.12383722E+03</rscale>
<asrwt>0</asrwt>
<pdfrwt beam="1">  1        3 0.38662657E-01 0.13016493E+03</pdfrwt>
<pdfrwt beam="2">  1       -3 0.10089505E-01 0.13016493E+03</pdfrwt>
<totfact> 0.11038340E+03</totfact>
</mgrwt>
</event>
<event>
 7    1  0.8467010E-006  0.1994833E+03  0.7546771E-02  0.1154568E+00
          1   -1    0    0  501    0  0.00000000000E+00  0.00000000000E+00  0.16015388852E+03  0.16015388852E+03  0.00000000000E+00 0. -1.
         -1   -1    0    0    0  501 -0.00000000000E+00 -0.00000000000E+00 -0.26556409527E+03  0.26556409527E+03  0.00000000000E+00 0.  1.
         23    2    1    2    0    0  0.76792016256E+02 -0.13517382108E+03 -0.13850708079E+03  0.24285348554E+03  0.12499851336E+03 0.  0.
          5    1    3    3  502    0  0.20723102529E+02  0.11975749008E+02  0.99900193222E+01  0.26358225069E+02  0.47000000000E+01 0. -1.
         -5    1    3    3    0  502  0.56068913727E+02 -0.14714957009E+03 -0.14849710011E+03  0.21649526047E+03  0.47000000000E+01 0. -1.
        -11    1    1    2    0    0 -0.36011756646E+02  0.63765299160E+02  0.61741623510E+02  0.95785636018E+02  0.00000000000E+00 0. -1.
         11    1    1    2    0    0 -0.40780259609E+02  0.71408521918E+02 -0.28644749461E+02  0.87078862234E+02  0.00000000000E+00 0.  1.
<mgrwt>
<rscale>  0 0.19438119E+03</rscale>
<asrwt>0</asrwt>
<pdfrwt beam="1">  1        1 0.24639060E-01 0.19948334E+03</pdfrwt>
<pdfrwt beam="2">  1       -1 0.40856014E-01 0.19948334E+03</pdfrwt>
<totfact> 0.11528109E+03</totfact>
</mgrwt>
</event>
<event>
 7    1  0.6387485E-006  0.1969893E+03  0.7546771E-02  0.1156875E+00
         -2   -1    0    0    0  501 -0.00000000000E+00  0.00000000000E+00  0.74815958188E+02  0.74815958188E+02  0.00000000000E+00 0.  1.
          2   -1    0    0  501    0  0.00000000000E+00 -0.00000000000E+00 -0.47448690559E+03  0.47448690559E+03  0.00000000000E+00 0. -1.
         23    2    1    2    0    0 -0.10297902412E+03 -0.11213675207E+03 -0.24440844007E+03  0.31391126527E+03  0.12500186524E+03 0.  0.
          5    1    3    3  502    0 -0.36930208761E+02 -0.12286972939E+03 -0.17845711485E+03  0.21984049345E+03  0.47000000000E+01 0. -1.
         -5    1    3    3    0  502 -0.66048815357E+02  0.10732977324E+02 -0.65951325218E+02  0.94070771817E+02  0.47000000000E+01 0. -1.
        -11    1    1    2    0    0 -0.13384984890E+02  0.34568084611E+02 -0.31580830268E+02  0.48697629661E+02  0.00000000000E+00 0.  1.
         11    1    1    2    0    0  0.11636400901E+03  0.77568667454E+02 -0.12368167706E+03  0.18669396885E+03  0.00000000000E+00 0. -1.
<mgrwt>
<rscale>  0 0.19176964E+03</rscale>
<asrwt>0</asrwt>
<pdfrwt beam="2">  1        2 0.72997985E-01 0.19698933E+03</pdfrwt>
<pdfrwt beam="1">  1       -2 0.11510147E-01 0.19698933E+03</pdfrwt>
<totfact> 0.34418087E+03</totfact>
</mgrwt>
</event>
<event>
 7    1  0.6387485E-006  0.2412193E+03  0.7546771E-02  0.1121548E+00
          1   -1    0    0  501    0  0.00000000000E+00  0.00000000000E+00  0.24483805277E+03  0.24483805277E+03  0.00000000000E+00 0. -1.
         -1   -1    0    0    0  501 -0.00000000000E+00 -0.00000000000E+00 -0.78019364384E+03  0.78019364384E+03  0.00000000000E+00 0.  1.
         23    2    1    2    0    0 -0.12661742090E+03 -0.16287936750E+03 -0.70313868288E+03  0.74336449465E+03  0.12500041963E+03 0.  0.
          5    1    3    3  502    0 -0.34991344927E+02 -0.11880343350E+03 -0.25126717516E+03  0.28017125717E+03  0.47000000000E+01 0. -1.
         -5    1    3    3    0  502 -0.91626075975E+02 -0.44075934005E+02 -0.45187150772E+03  0.46319323748E+03  0.47000000000E+01 0. -1.
        -11    1    1    2    0    0  0.53243711653E+02  0.28552423610E+02  0.89292645215E+01  0.61072624715E+02  0.00000000000E+00 0.  1.
         11    1    1    2    0    0  0.73373709249E+02  0.13432694389E+03  0.15885382729E+03  0.22059457724E+03  0.00000000000E+00 0. -1.
<mgrwt>
<rscale>  0 0.23738440E+03</rscale>
<asrwt>0</asrwt>
<pdfrwt beam="1">  1        1 0.37667393E-01 0.24121933E+03</pdfrwt>
<pdfrwt beam="2">  1       -1 0.12002979E+00 0.24121933E+03</pdfrwt>
<totfact> 0.76082080E+01</totfact>
</mgrwt>
</event>
<event>
 7    1  0.6387485E-006  0.1536171E+03  0.7546771E-02  0.1204913E+00
          1   -1    0    0  501    0  0.00000000000E+00  0.00000000000E+00  0.30245428723E+03  0.30245428723E+03  0.00000000000E+00 0. -1.
         -1   -1    0    0    0  501 -0.00000000000E+00 -0.00000000000E+00 -0.65264655344E+02  0.65264655344E+02  0.00000000000E+00 0.  1.
         23    2    1    2    0    0  0.73197796444E+02  0.51122559793E+02  0.11886270237E+03  0.19423324930E+03  0.12500711818E+03 0.  0.
          5    1    3    3  502    0 -0.79788528455E+01  0.30403670754E+02 -0.15856736499E+02  0.35518606116E+02  0.47000000000E+01 0.  1.
         -5    1    3    3    0  502  0.81176649289E+02  0.20718889039E+02  0.13471943887E+03  0.15871464319E+03  0.47000000000E+01 0.  1.
        -11    1    1    2    0    0  0.61673728841E+01 -0.33276402215E+02  0.72760449841E+02  0.80246112017E+02  0.00000000000E+00 0. -1.
         11    1    1    2    0    0 -0.79365169328E+02 -0.17846157578E+02  0.45566479681E+02  0.93239581258E+02  0.00000000000E+00 0.  1.
<mgrwt>
<rscale>  0 0.14644330E+03</rscale>
<asrwt>0</asrwt>
<pdfrwt beam="1">  1        1 0.46531428E-01 0.15361710E+03</pdfrwt>
<pdfrwt beam="2">  1       -1 0.10040716E-01 0.15361710E+03</pdfrwt>
<totfact> 0.50713289E+03</totfact>
</mgrwt>
</event>
<event>
 7    1  0.6387485E-006  0.2187863E+03  0.7546771E-02  0.1136733E+00
          2   -1    0    0  501    0  0.00000000000E+00  0.00000000000E+00  0.67460330915E+03  0.67460330915E+03  0.00000000000E+00 0. -1.
         -2   -1    0    0    0  501 -0.00000000000E+00 -0.00000000000E+00 -0.68846423632E+02  0.68846423632E+02  0.00000000000E+00 0.  1.
         23    2    1    2    0    0 -0.17815505619E+03  0.22460079640E+02  0.26242224935E+03  0.34166192426E+03  0.12499501715E+03 0.  0.
          5    1    3    3  502    0 -0.15390845450E+03 -0.19458472677E+02  0.13658386950E+03  0.20674546653E+03  0.47000000000E+01 0. -1.
         -5    1    3    3    0  502 -0.24246601691E+02  0.41918552316E+02  0.12583837985E+03  0.13491645773E+03  0.47000000000E+01 0. -1.
        -11    1    1    2    0    0  0.12897829283E+03  0.84298169203E+01  0.30746827882E+03  0.33353141428E+03  0.00000000000E+00 0.  1.
         11    1    1    2    0    0  0.49176763365E+02 -0.30889896560E+02  0.35866357350E+02  0.68256394236E+02  0.00000000000E+00 0. -1.
<mgrwt>
<rscale>  0 0.21621933E+03</rscale>
<asrwt>0</asrwt>
<pdfrwt beam="1">  1        2 0.10378512E+00 0.21878627E+03</pdfrwt>
<pdfrwt beam="2">  1       -2 0.10591758E-01 0.21878627E+03</pdfrwt>
<totfact> 0.26365620E+03</totfact>
</mgrwt>
</event>
<event>
 7    1  0.6387485E-006  0.1285241E+03  0.7546771E-02  0.1243576E+00
          1   -1    0    0  501    0  0.00000000000E+00  0.00000000000E+00  0.24805282149E+02  0.24805282149E+02  0.00000000000E+00 0. -1.
         -1   -1    0    0    0  501 -0.00000000000E+00 -0.00000000000E+00 -0.68443904298E+03  0.68443904298E+03  0.00000000000E+00 0.  1.
         23    2    1    2    0    0  0.12574707698E+02  0.27107837496E+02 -0.54158282766E+03  0.55662411050E+03  0.12500193215E+03 0.  0.
          5    1    3    3  502    0  0.42392458204E+02  0.50589004402E+02 -0.16018691548E+03  0.17331562471E+03  0.47000000000E+01 0. -1.
         -5    1    3    3    0  502 -0.29817750506E+02 -0.23481166905E+02 -0.38139591219E+03  0.38330848579E+03  0.47000000000E+01 0. -1.
        -11    1    1    2    0    0 -0.38514383254E+02  0.72986537725E+01 -0.16926242965E+02  0.42698076833E+02  0.00000000000E+00 0. -1.
         11    1    1    2    0    0  0.25939675556E+02 -0.34406491269E+02 -0.10112469020E+03  0.10992213779E+03  0.00000000000E+00 0.  1.
<mgrwt>
<rscale>  0 0.11970986E+03</rscale>
<asrwt>0</asrwt>
<pdfrwt beam="1">  1        1 0.38161973E-02 0.12852409E+03</pdfrwt>
<pdfrwt beam="2">  1       -1 0.10529831E+00 0.12852409E+03</pdfrwt>
<totfact> 0.21068715E+03</totfact>
</mgrwt>
</event>
<event>
 7    1  0.6387485E-006  0.1440165E+03  0.7546771E-02  0.1218179E+00
         -3   -1    0    0    0  501 -0.00000000000E+00  0.00000000000E+00  0.21965490844E+04  0.21965490844E+04  0.00000000000E+00 0.  1.
          3   -1    0    0  501    0  0.00000000000E+00 -0.00000000000E+00 -0.19360652992E+02  0.19360652992E+02  0.00000000000E+00 0. -1.
         23    2    1    2    0    0  0.65948401686E+02 -0.27706152487E+02  0.19930132493E+04  0.19982098418E+04  0.12499574963E+03 0.  0.
          5    1    3    3  502    0 -0.25705054639E+02  0.20099003402E+02  0.81300601748E+03  0.81367413270E+03  0.47000000000E+01 0. -1.
         -5    1    3    3    0  502  0.91653456325E+02 -0.47805155889E+02  0.11800072318E+04  0.11845357091E+04  0.47000000000E+01 0. -1.
        -11    1    1    2    0    0 -0.33407974694E+02 -0.30825478679E+02  0.10215780467E+03  0.11181466793E+03  0.00000000000E+00 0.  1.
         11    1    1    2    0    0 -0.32540426992E+02  0.58531631166E+02  0.82017377455E+02  0.10588522768E+03  0.00000000000E+00 0. -1.
<mgrwt>
<rscale>  0 0.13645557E+03</rscale>
<asrwt>0</asrwt>
<pdfrwt beam="2">  1        3 0.29785637E-02 0.14401653E+03</pdfrwt>
<pdfrwt beam="1">  1       -3 0.33793043E+00 0.14401653E+03</pdfrwt>
<totfact> 0.34839249E+01</totfact>
</mgrwt>
</event>
<event>
 7    1  0.6387485E-006  0.1560197E+03  0.7546771E-02  0.1201145E+00
          2   -1    0    0  501    0  0.00000000000E+00  0.00000000000E+00  0.46251935080E+03  0.46251935080E+03  0.00000000000E+00 0. -1.
         -2   -1    0    0    0  501 -0.00000000000E+00 -0.00000000000E+00 -0.56792766184E+02  0.56792766184E+02  0.00000000000E+00 0.  1.
         23    2    1    2    0    0  0.13326068468E+02 -0.92409174429E+02  0.96789158725E+02  0.18360358573E+03  0.12500038330E+03 0.  0.
          5    1    3    3  502    0  0.58892311250E+02 -0.47713305345E+02  0.92186669522E+02  0.11943758148E+03  0.47000000000E+01 0.  1.
         -5    1    3    3    0  502 -0.45566242782E+02 -0.44695869085E+02  0.46024892024E+01  0.64166004249E+02  0.47000000000E+01 0.  1.
        -11    1    1    2    0    0  0.25556782535E+02  0.88211652112E+02  0.22857454441E+03  0.24633466474E+03  0.00000000000E+00 0.  1.
         11    1    1    2    0    0 -0.38882851003E+02  0.41975223173E+01  0.80362881481E+02  0.89373866514E+02  0.00000000000E+00 0. -1.
<mgrwt>
<rscale>  0 0.14945414E+03</rscale>
<asrwt>0</asrwt>
<pdfrwt beam="1">  1        2 0.71156821E-01 0.15601966E+03</pdfrwt>
<pdfrwt beam="2">  1       -2 0.87373490E-02 0.15601966E+03</pdfrwt>
<totfact> 0.54180613E+03</totfact>
</mgrwt>
</event>
<event>
 6    1  0.6387485E-006  0.1476145E+03  0.7546771E-02  0.1238853E+00
         -2   -1    0    0    0  501 -0.00000000000E+00  0.00000000000E+00  0.80382625448E+02  0.80382625448E+02  0.00000000000E+00 0.  1.
          2   -1    0    0  501    0  0.00000000000E+00 -0.00000000000E+00 -0.14958563561E+03  0.14958563561E+03  0.00000000000E+00 0. -1.
          5    1    1    2  502    0  0.20957022489E+02 -0.51382548078E+01 -0.60291029631E+02  0.64208229286E+02  0.47000000000E+01 0. -1.
         -5    1    1    2    0  502 -0.80215891218E+02  0.22555108541E+02  0.25850395954E+02  0.87370790864E+02  0.47000000000E+01 0.  1.
        -11    1    1    2    0    0  0.45270473013E+02  0.20876517960E+01 -0.28670167092E+02  0.53626043094E+02  0.00000000000E+00 0. -1.
         11    1    1    2    0    0  0.13988395716E+02 -0.19504505529E+02 -0.60922093919E+01  0.24763197813E+02  0.00000000000E+00 0.  1.
<mgrwt>
<rscale>  0 0.12260936E+03</rscale>
<asrwt>0</asrwt>
<pdfrwt beam="2">  1        2 0.23013175E-01 0.14761451E+03</pdfrwt>
<pdfrwt beam="1">  1       -2 0.12366558E-01 0.14761451E+03</pdfrwt>
<totfact> 0.10531789E+04</totfact>
</mgrwt>
</event>
<event>
 7    1  0.6387485E-006  0.1323349E+03  0.7546771E-02  0.1237079E+00
         -4   -1    0    0    0  501 -0.00000000000E+00  0.00000000000E+00  0.31194040874E+03  0.31194040874E+03  0.00000000000E+00 0.  1.
          4   -1    0    0  501    0  0.00000000000E+00 -0.00000000000E+00 -0.44475964186E+02  0.44475964186E+02  0.00000000000E+00 0. -1.
         23    2    1    2    0    0 -0.43220243860E+02  0.42886763322E+01  0.17502529380E+03  0.21942285325E+03  0.12500461125E+03 0.  0.
          5    1    3    3  502    0 -0.88335923414E+00  0.33467200480E+02  0.16291984670E+03  0.16639050538E+03  0.47000000000E+01 0.  1.
         -5    1    3    3    0  502 -0.42336884626E+02 -0.29178524147E+02  0.12105447102E+02  0.53032347872E+02  0.47000000000E+01 0.  1.
        -11    1    1    2    0    0 -0.11835537861E+02 -0.32528529146E+02  0.54025319867E+02  0.64163232085E+02  0.00000000000E+00 0. -1.
         11    1    1    2    0    0  0.55055781720E+02  0.28239852814E+02  0.38413830892E+02  0.72830287598E+02  0.00000000000E+00 0.  1.
<mgrwt>
<rscale>  0 0.12372261E+03</rscale>
<asrwt>0</asrwt>
<pdfrwt beam="2">  1        4 0.68424562E-02 0.13233494E+03</pdfrwt>
<pdfrwt beam="1">  1       -4 0.47990831E-01 0.13233494E+03</pdfrwt>
<totfact> 0.99196021E+02</totfact>
</mgrwt>
</event>
<event>
 7    1  0.6387485E-006  0.1308427E+03  0.7546771E-02  0.1243520E+00
          1   -1    0    0  501    0  0.00000000000E+00  0.00000000000E+00  0.47304770862E+03  0.47304770862E+03  0.00000000000E+00 0. -1.
         -1   -1    0    0    0  501 -0.00000000000E+00 -0.00000000000E+00 -0.27412636245E+02  0.27412636245E+02  0.00000000000E+00 0.  1.
         23    2    1    2    0    0  0.38622389548E+02  0.17522674961E+01  0.20817861188E+03  0.24588237889E+03  0.12500020155E+03 0.  0.
          5    1    3    3  502    0  0.40618961933E+02 -0.51560574154E+02  0.62843715291E+02  0.90993491126E+02  0.47000000000E+01 0.  1.
         -5    1    3    3    0  502 -0.19965723859E+01  0.53312841650E+02  0.14533489659E+03  0.15488888777E+03  0.47000000000E+01 0.  1.
        -11    1    1    2    0    0  0.11772508020E+02  0.24453324670E+02  0.13236222380E+03  0.13511593289E+03  0.00000000000E+00 0.  1.
         11    1    1    2    0    0 -0.50394897567E+02 -0.26205592166E+02  0.10509423670E+03  0.11946203309E+03  0.00000000000E+00 0. -1.
<mgrwt>
<rscale>  0 0.11974414E+03</rscale>
<asrwt>0</asrwt>
<pdfrwt beam="1">  1        1 0.72776565E-01 0.13084269E+03</pdfrwt>
<pdfrwt beam="2">  1       -1 0.42173290E-02 0.13084269E+03</pdfrwt>
<totfact> 0.10476292E+04</totfact>
</mgrwt>
</event>
<event>
 7    1  0.6387485E-006  0.1449835E+03  0.7546771E-02  0.1216432E+00
         -3   -1    0    0    0  501 -0.00000000000E+00  0.00000000000E+00  0.66957219082E+03  0.66957219082E+03  0.00000000000E+00 0.  1.
          3   -1    0    0  501    0  0.00000000000E+00 -0.00000000000E+00 -0.25996134479E+02  0.25996134479E+02  0.00000000000E+00 0. -1.
         23    2    1    2    0    0 -0.70435315844E+02  0.20743225627E+02  0.38220800898E+03  0.40878255697E+03  0.12501520561E+03 0.  0.
          5    1    3    3  502    0 -0.32992762590E+02 -0.49307900092E+02  0.22290887380E+03  0.23071681216E+03  0.47000000000E+01 0.  1.
         -5    1    3    3    0  502 -0.37442553255E+02  0.70051125719E+02  0.15929913518E+03  0.17806574482E+03  0.47000000000E+01 0.  1.
        -11    1    1    2    0    0  0.49285604920E+02 -0.36211817854E+02  0.25143052913E+03  0.25876181632E+03  0.00000000000E+00 0.  1.
         11    1    1    2    0    0  0.21149710924E+02  0.15468592227E+02  0.99375182399E+01  0.28023952013E+02  0.00000000000E+00 0. -1.
<mgrwt>
<rscale>  0 0.13771899E+03</rscale>
<asrwt>0</asrwt>
<pdfrwt beam="2">  1        3 0.39994058E-02 0.14498351E+03</pdfrwt>
<pdfrwt beam="1">  1       -3 0.10301109E+00 0.14498351E+03</pdfrwt>
<totfact> 0.64211036E+02</totfact>
</mgrwt>
</event>
<event>
 7    1  0.6387485E-006  0.1356203E+03  0.7546771E-02  0.1231359E+00
         -1   -1    0    0    0  501 -0.00000000000E+00  0.00000000000E+00  0.40394054680E+03  0.40394054680E+03  0.00000000000E+00 0.  1.
          1   -1    0    0  501    0  0.00000000000E+00 -0.00000000000E+00 -0.36020721058E+02  0.36020721058E+02  0.00000000000E+00 0. -1.
         23    2    1    2    0    0 -0.11367623707E+02  0.51362500770E+02  0.20537490945E+03  0.24611322087E+03  0.12500213878E+03 0.  0.
          5    1    3    3  502    0  0.25528455090E+02  0.53292170193E+02  0.29265048415E+02  0.66108172580E+02  0.47000000000E+01 0. -1.
         -5    1    3    3    0  502 -0.36896078798E+02 -0.19296694227E+01  0.17610986104E+03  0.18000504829E+03  0.47000000000E+01 0. -1.
        -11    1    1    2    0    0 -0.90663964271E+01 -0.27663355804E+02  0.15980641326E+03  0.16243629680E+03  0.00000000000E+00 0.  1.
         11    1    1    2    0    0  0.20434020134E+02 -0.23699144966E+02  0.27385030257E+01  0.31411750187E+02  0.00000000000E+00 0. -1.
<mgrwt>
<rscale>  0 0.12740402E+03</rscale>
<asrwt>0</asrwt>
<pdfrwt beam="2">  1        1 0.55416497E-02 0.13562029E+03</pdfrwt>
<pdfrwt beam="1">  1       -1 0.62144697E-01 0.13562029E+03</pdfrwt>
<totfact> 0.37577068E+03</totfact>
</mgrwt>
</event>
<event>
 7    1  0.6387485E-006  0.1694284E+03  0.7546771E-02  0.1185259E+00
         -1   -1    0    0    0  501 -0.00000000000E+00  0.00000000000E+00  0.68132873826E+03  0.68132873826E+03  0.00000000000E+00 0.  1.
          1   -1    0    0  501    0  0.00000000000E+00 -0.00000000000E+00 -0.36811984849E+02  0.36811984849E+02  0.00000000000E+00 0. -1.
         23    2    1    2    0    0 -0.89874657891E+02 -0.70680607373E+02  0.38540129270E+03  0.42099897970E+03  0.12503112455E+03 0.  0.
          5    1    3    3  502    0 -0.15650083510E+02  0.79416600000E+01 -0.24485011139E+01  0.18332491242E+02  0.47000000000E+01 0.  1.
         -5    1    3    3    0  502 -0.74224574381E+02 -0.78622267373E+02  0.38784979381E+03  0.40266648846E+03  0.47000000000E+01 0.  1.
        -11    1    1    2    0    0  0.74231986133E+02  0.29045350558E+02  0.23137967864E+03  0.24472551122E+03  0.00000000000E+00 0.  1.
         11    1    1    2    0    0  0.15642671757E+02  0.41635256814E+02  0.27735782078E+02  0.52416232192E+02  0.00000000000E+00 0. -1.
<mgrwt>
<rscale>  0 0.16308334E+03</rscale>
<asrwt>0</asrwt>
<pdfrwt beam="2">  1        1 0.56633828E-02 0.16942841E+03</pdfrwt>
<pdfrwt beam="1">  1       -1 0.10481980E+00 0.16942841E+03</pdfrwt>
<totfact> 0.12517302E+03</totfact>
</mgrwt>
</event>
<event>
 7    1  0.6387485E-006  0.1273097E+03  0.7546771E-02  0.1248542E+00
         -1   -1    0    0    0  501 -0.00000000000E+00  0.00000000000E+00  0.16525526192E+03  0.16525526192E+03  0.00000000000E+00 0.  1.
          1   -1    0    0  501    0  0.00000000000E+00 -0.00000000000E+00 -0.90060983907E+02  0.90060983907E+02  0.00000000000E+00 0. -1.
         23    2    1    2    0    0  0.19058974537E+02 -0.14722255831E+02  0.10000794702E+03  0.16189302639E+03  0.12501109230E+03 0.  0.
          5    1    3    3  502    0 -0.10645801781E+01 -0.52625724468E+02 -0.12955126764E+00  0.52846068825E+02  0.47000000000E+01 0.  1.
         -5    1    3    3    0  502  0.20123554715E+02  0.37903468637E+02  0.10013749829E+03  0.10904695756E+03  0.47000000000E+01 0.  1.
        -11    1    1    2    0    0 -0.35602506034E+02  0.41056650961E+01  0.22412406911E+02  0.42269503254E+02  0.00000000000E+00 0.  1.
         11    1    1    2    0    0  0.16543531497E+02  0.10616590735E+02 -0.47226075920E+02  0.51153716190E+02  0.00000000000E+00 0. -1.
<mgrwt>
<rscale>  0 0.11675846E+03</rscale>
<asrwt>0</asrwt>
<pdfrwt beam="2">  1        1 0.13855536E-01 0.12730971E+03</pdfrwt>
<pdfrwt beam="1">  1       -1 0.25423886E-01 0.12730971E+03</pdfrwt>
<totfact> 0.53168093E+03</totfact>
</mgrwt>
</event>
<event>
 7    1  0.6387485E-006  0.1287545E+03  0.7546771E-02  0.1249360E+00
          1   -1    0    0  501    0  0.00000000000E+00  0.00000000000E+00  0.24655861821E+03  0.24655861821E+03  0.00000000000E+00 0. -1.
         -1   -1    0    0    0  501 -0.00000000000E+00 -0.00000000000E+00 -0.46648417834E+02  0.46648417834E+02  0.00000000000E+00 0.  1.
         23    2    1    2    0    0  0.22302055724E+02  0.21385874563E+02  0.12392911076E+03  0.17870686839E+03  0.12499193172E+03 0.  0.
          5    1    3    3  502    0 -0.35560227701E+01  0.70978218039E+02  0.56072593248E+02  0.90646447518E+02  0.47000000000E+01 0. -1.
         -5    1    3    3    0  502  0.25858078494E+02 -0.49592343477E+02  0.67856517509E+02  0.88060420867E+02  0.47000000000E+01 0. -1.
        -11    1    1    2    0    0  0.11312700411E+01  0.15223868962E+02 -0.99352004655E+01  0.18214119973E+02  0.00000000000E+00 0.  1.
         11    1    1    2    0    0 -0.23433325765E+02 -0.36609743525E+02  0.85916290083E+02  0.96286047686E+02  0.00000000000E+00 0. -1.
<mgrwt>
<rscale>  0 0.11628209E+03</rscale>
<asrwt>0</asrwt>
<pdfrwt beam="1">  1        1 0.37932094E-01 0.12875450E+03</pdfrwt>
<pdfrwt beam="2">  1       -1 0.71766798E-02 0.12875450E+03</pdfrwt>
<totfact> 0.10731813E+04</totfact>
</mgrwt>
</event>
<event>
 7    1  0.6387485E-006  0.1806062E+03  0.7546771E-02  0.1172865E+00
         -2   -1    0    0    0  501 -0.00000000000E+00  0.00000000000E+00  0.35677962637E+02  0.35677962637E+02  0.00000000000E+00 0.  1.
          2   -1    0    0  501    0  0.00000000000E+00 -0.00000000000E+00 -0.99773354314E+03  0.99773354314E+03  0.00000000000E+00 0. -1.
         23    2    1    2    0    0 -0.13022395942E+03  0.60354107998E+01 -0.28047334330E+03  0.33359241448E+03  0.12499558755E+03 0.  0.
          5    1    3    3  502    0 -0.67237056789E+02 -0.48663079337E+02 -0.75723499091E+02  0.11245023526E+03  0.47000000000E+01 0. -1.
         -5    1    3    3    0  502 -0.62986902627E+02  0.54698490137E+02 -0.20474984420E+03  0.22114217921E+03  0.47000000000E+01 0. -1.
        -11    1    1    2    0    0 -0.14021599718E+02  0.14865905169E+01 -0.51758681401E+02  0.53644909455E+02  0.00000000000E+00 0.  1.
         11    1    1    2    0    0  0.14424555913E+03 -0.75220013166E+01 -0.62982355581E+03  0.64617418185E+03  0.00000000000E+00 0. -1.
<mgrwt>
<rscale>  0 0.17486715E+03</rscale>
<asrwt>0</asrwt>
<pdfrwt beam="2">  1        2 0.15349745E+00 0.18060621E+03</pdfrwt>
<pdfrwt beam="1">  1       -2 0.54889180E-02 0.18060621E+03</pdfrwt>
<totfact> 0.44141716E+03</totfact>
</mgrwt>
</event>
<event>
 7    1  0.6387485E-006  0.1386395E+03  0.7546771E-02  0.1216232E+00
          1   -1    0    0  501    0  0.00000000000E+00  0.00000000000E+00  0.43737337508E+02  0.43737337508E+02  0.00000000000E+00 0. -1.
         -1   -1    0    0    0  501 -0.00000000000E+00 -0.00000000000E+00 -0.50834515674E+03  0.50834515674E+03  0.00000000000E+00 0.  1.
         23    2    1    2    0    0 -0.58244909227E+02 -0.13463157289E+02 -0.34303170245E+03  0.36998871747E+03  0.12508867302E+03 0.  0.
          5    1    3    3  502    0 -0.41840298832E+01  0.22859425889E+02 -0.31817053272E+01  0.23922222030E+02  0.47000000000E+01 0.  1.
         -5    1    3    3    0  502 -0.54060879344E+02 -0.36322583179E+02 -0.33984999712E+03  0.34606649544E+03  0.47000000000E+01 0.  1.
        -11    1    1    2    0    0  0.39161900244E+02 -0.84475268820E+01  0.14760572246E+02  0.42695311618E+02  0.00000000000E+00 0. -1.
         11    1    1    2    0    0  0.19083008983E+02  0.21910684171E+02 -0.13633668902E+03  0.13939846515E+03  0.00000000000E+00 0.  1.
<mgrwt>
<rscale>  0 0.13786393E+03</rscale>
<asrwt>0</asrwt>
<pdfrwt beam="1">  1        1 0.67288212E-02 0.13863947E+03</pdfrwt>
<pdfrwt beam="2">  1       -1 0.78206946E-01 0.13863947E+03</pdfrwt>
<totfact> 0.18367987E+03</totfact>
</mgrwt>
</event>
<event>
 7    1  0.7445891E-006  0.3712941E+03  0.7546771E-02  0.1055143E+00
          1   -1    0    0  501    0  0.00000000000E+00  0.00000000000E+00  0.46910691478E+03  0.46910691478E+03  0.00000000000E+00 0. -1.
         -1   -1    0    0    0  501 -0.00000000000E+00 -0.00000000000E+00 -0.28688474894E+03  0.28688474894E+03  0.00000000000E+00 0.  1.
         23    2    1    2    0    0  0.29234910445E+03 -0.19174769055E+03  0.73681499074E+02  0.37853438920E+03  0.12499657916E+03 0.  0.
          5    1    3    3  502    0  0.18459819622E+03 -0.18740166981E+03  0.45788962082E+02  0.26704793380E+03  0.47000000000E+01 0. -1.
         -5    1    3    3    0  502  0.10775090822E+03 -0.43460207365E+01  0.27892536992E+02  0.11148645540E+03  0.47000000000E+01 0. -1.
        -11    1    1    2    0    0 -0.58206199029E+02  0.66915848159E+01 -0.34550587983E+01  0.58691365158E+02  0.00000000000E+00 0.  1.
         11    1    1    2    0    0 -0.23414290542E+03  0.18505610573E+03  0.11199572556E+03  0.31876590936E+03  0.00000000000E+00 0. -1.
<mgrwt>
<rscale>  0 0.36882475E+03</rscale>
<asrwt>0</asrwt>
<pdfrwt beam="1">  1        1 0.72170295E-01 0.37129412E+03</pdfrwt>
<pdfrwt beam="2">  1       -1 0.44136115E-01 0.37129412E+03</pdfrwt>
<totfact> 0.25407553E+02</totfact>
</mgrwt>
</event>
<event>
 7    1  0.6387485E-006  0.1281959E+03  0.7546771E-02  0.1243577E+00
         -1   -1    0    0    0  501 -0.00000000000E+00  0.00000000000E+00  0.20040340415E+03  0.20040340415E+03  0.00000000000E+00 0.  1.
          1   -1    0    0  501    0  0.00000000000E+00 -0.00000000000E+00 -0.63811173875E+02  0.63811173875E+02  0.00000000000E+00 0. -1.
         23    2    1    2    0    0 -0.26851586519E+02  0.93915801613E+01  0.86234347696E+02  0.15450095835E+03  0.12499989572E+03 0.  0.
          5    1    3    3  502    0 -0.56736971357E+02 -0.13330800462E+02 -0.19907680135E+01  0.58505105050E+02  0.47000000000E+01 0.  1.
         -5    1    3    3    0  502  0.29885384838E+02  0.22722380623E+02  0.88225115709E+02  0.95995853296E+02  0.47000000000E+01 0.  1.
        -11    1    1    2    0    0 -0.18450402871E+02  0.29474291380E+02  0.58602738053E+01  0.35263210681E+02  0.00000000000E+00 0. -1.
         11    1    1    2    0    0  0.45301989390E+02 -0.38865871541E+02  0.44497608774E+02  0.74450408997E+02  0.00000000000E+00 0.  1.
<mgrwt>
<rscale>  0 0.11970923E+03</rscale>
<asrwt>0</asrwt>
<pdfrwt beam="2">  1        1 0.98171038E-02 0.12819588E+03</pdfrwt>
<pdfrwt beam="1">  1       -1 0.30831293E-01 0.12819588E+03</pdfrwt>
<totfact> 0.60662316E+03</totfact>
</mgrwt>
</event>
<event>
 7    1  0.6387485E-006  0.2185698E+03  0.7546771E-02  0.1138234E+00
         -1   -1    0    0    0  501 -0.00000000000E+00  0.00000000000E+00  0.28186663122E+03  0.28186663122E+03  0.00000000000E+00 0.  1.
          1   -1    0    0  501    0  0.00000000000E+00 -0.00000000000E+00 -0.15866003430E+03  0.15866003430E+03  0.00000000000E+00 0. -1.
         23    2    1    2    0    0 -0.45469059081E+02 -0.17344021622E+03  0.88065343547E+02  0.23564436352E+03  0.12499526946E+03 0.  0.
          5    1    3    3  502    0  0.41422397308E+02 -0.32730358336E+02  0.17979299500E+02  0.55968174582E+02  0.47000000000E+01 0. -1.
         -5    1    3    3    0  502 -0.86891456389E+02 -0.14070985789E+03  0.70086044048E+02  0.17967618894E+03  0.47000000000E+01 0. -1.
        -11    1    1    2    0    0  0.45390697009E+02  0.13034599431E+03 -0.14920220789E+02  0.13882725451E+03  0.00000000000E+00 0. -1.
         11    1    1    2    0    0  0.78362072149E-01  0.43094221918E+02  0.50061474164E+02  0.66055047489E+02  0.00000000000E+00 0.  1.
<mgrwt>
<rscale>  0 0.21426327E+03</rscale>
<asrwt>0</asrwt>
<pdfrwt beam="2">  1        1 0.24409236E-01 0.21856981E+03</pdfrwt>
<pdfrwt beam="1">  1       -1 0.43364097E-01 0.21856981E+03</pdfrwt>
<totfact> 0.10503747E+03</totfact>
</mgrwt>
</event>
<event>
 7    1  0.6387485E-006  0.1363586E+03  0.7546771E-02  0.1232145E+00
          3   -1    0    0  501    0  0.00000000000E+00  0.00000000000E+00  0.23392924084E+03  0.23392924084E+03  0.00000000000E+00 0. -1.
         -3   -1    0    0    0  501 -0.00000000000E+00 -0.00000000000E+00 -0.62890007617E+02  0.62890007617E+02  0.00000000000E+00 0.  1.
         23    2    1    2    0    0  0.24949655701E+02 -0.48437161694E+02  0.70848385897E+02  0.15366572687E+03  0.12500007150E+03 0.  0.
          5    1    3    3  502    0  0.58949317146E+02 -0.72286727262E+02  0.58005719861E+02  0.10994155932E+03  0.47000000000E+01 0. -1.
         -5    1    3    3    0  502 -0.33999661445E+02  0.23849565568E+02  0.12842666037E+02  0.43724167540E+02  0.47000000000E+01 0. -1.
        -11    1    1    2    0    0  0.21152178762E+02  0.47762486680E+02  0.72540712673E+02  0.89391413432E+02  0.00000000000E+00 0.  1.
         11    1    1    2    0    0 -0.46101834463E+02  0.67467501384E+00  0.27650134649E+02  0.53762108156E+02  0.00000000000E+00 0. -1.
<mgrwt>
<rscale>  0 0.12688957E+03</rscale>
<asrwt>0</asrwt>
<pdfrwt beam="1">  1        3 0.35989114E-01 0.13635858E+03</pdfrwt>
<pdfrwt beam="2">  1       -3 0.96753859E-02 0.13635858E+03</pdfrwt>
<totfact> 0.13662131E+03</totfact>
</mgrwt>
</event>
<event>
 7    1  0.6387485E-006  0.1343758E+03  0.7546771E-02  0.1232600E+00
          1   -1    0    0  501    0  0.00000000000E+00  0.00000000000E+00  0.28859319717E+03  0.28859319717E+03  0.00000000000E+00 0. -1.
         -1   -1    0    0    0  501 -0.00000000000E+00 -0.00000000000E+00 -0.63862299328E+02  0.63862299328E+02  0.00000000000E+00 0.  1.
         23    2    1    2    0    0 -0.17675498290E+02  0.46068430802E+02  0.41131429136E+02  0.14052989504E+03  0.12498853299E+03 0.  0.
          5    1    3    3  502    0 -0.47805497641E+02  0.62491526729E+02 -0.92820566206E+01  0.79364999167E+02  0.47000000000E+01 0.  1.
         -5    1    3    3    0  502  0.30129999351E+02 -0.16423095927E+02  0.50413485756E+02  0.61164895870E+02  0.47000000000E+01 0.  1.
        -11    1    1    2    0    0  0.10823770110E+02 -0.14782020461E+02 -0.62772641278E+01  0.19366625241E+02  0.00000000000E+00 0.  1.
         11    1    1    2    0    0  0.68517281807E+01 -0.31286410340E+02  0.18987673283E+03  0.19255897622E+03  0.00000000000E+00 0. -1.
<mgrwt>
<rscale>  0 0.12659337E+03</rscale>
<asrwt>0</asrwt>
<pdfrwt beam="1">  1        1 0.44398952E-01 0.13437580E+03</pdfrwt>
<pdfrwt beam="2">  1       -1 0.98249694E-02 0.13437580E+03</pdfrwt>
<totfact> 0.55138193E+03</totfact>
</mgrwt>
</event>
<event>
 7    1  0.6387485E-006  0.1795796E+03  0.7546771E-02  0.1173905E+00
          2   -1    0    0  501    0  0.00000000000E+00  0.00000000000E+00  0.66109082907E+03  0.66109082907E+03  0.00000000000E+00 0. -1.
         -2   -1    0    0    0  501 -0.00000000000E+00 -0.00000000000E+00 -0.44858159616E+02  0.44858159616E+02  0.00000000000E+00 0.  1.
         23    2    1    2    0    0  0.12869513282E+03 -0.74975986916E+01  0.39868514164E+03  0.43726270558E+03  0.12502071959E+03 0.  0.
          5    1    3    3  502    0  0.86803609222E+02 -0.61068227304E+00  0.88155424829E+02  0.12380916135E+03  0.47000000000E+01 0.  1.
         -5    1    3    3    0  502  0.41891523601E+02 -0.68869164185E+01  0.31052971681E+03  0.31345354423E+03  0.47000000000E+01 0.  1.
        -11    1    1    2    0    0 -0.50865423226E+02 -0.12957146584E+02  0.21421456569E+02  0.56692660275E+02  0.00000000000E+00 0.  1.
         11    1    1    2    0    0 -0.77829709597E+02  0.20454745276E+02  0.19612607125E+03  0.21199362284E+03  0.00000000000E+00 0. -1.
<mgrwt>
<rscale>  0 0.17383698E+03</rscale>
<asrwt>0</asrwt>
<pdfrwt beam="1">  1        2 0.10170627E+00 0.17957960E+03</pdfrwt>
<pdfrwt beam="2">  1       -2 0.69012558E-02 0.17957960E+03</pdfrwt>
<totfact> 0.52499093E+03</totfact>
</mgrwt>
</event>
<event>
 7    1  0.6387485E-006  0.1387707E+03  0.7546771E-02  0.1226132E+00
         -1   -1    0    0    0  501 -0.00000000000E+00  0.00000000000E+00  0.26970001196E+03  0.26970001196E+03  0.00000000000E+00 0.  1.
          1   -1    0    0  501    0  0.00000000000E+00 -0.00000000000E+00 -0.79431476814E+02  0.79431476814E+02  0.00000000000E+00 0. -1.
         23    2    1    2    0    0 -0.46396274666E+02 -0.38466220321E+02  0.19481172532E+03  0.23918384194E+03  0.12500015005E+03 0.  0.
          5    1    3    3  502    0  0.35634751890E+02 -0.42347672370E+02  0.92627391779E+02  0.10800502120E+03  0.47000000000E+01 0. -1.
         -5    1    3    3    0  502 -0.82031026556E+02  0.38814520491E+01  0.10218433354E+03  0.13117882073E+03  0.47000000000E+01 0. -1.
        -11    1    1    2    0    0  0.30509161314E+02  0.48009222166E+02  0.34641500295E+02  0.66601260347E+02  0.00000000000E+00 0.  1.
         11    1    1    2    0    0  0.15887113352E+02 -0.95430018450E+01 -0.39184690467E+02  0.43346386492E+02  0.00000000000E+00 0. -1.
<mgrwt>
<rscale>  0 0.13089619E+03</rscale>
<asrwt>0</asrwt>
<pdfrwt beam="2">  1        1 0.12220227E-01 0.13877068E+03</pdfrwt>
<pdfrwt beam="1">  1       -1 0.41492309E-01 0.13877068E+03</pdfrwt>
<totfact> 0.27387603E+03</totfact>
</mgrwt>
</event>
<event>
 7    1  0.6387485E-006  0.1342122E+03  0.7546771E-02  0.1235019E+00
         -1   -1    0    0    0  501 -0.00000000000E+00  0.00000000000E+00  0.64037557539E+02  0.64037557539E+02  0.00000000000E+00 0.  1.
          1   -1    0    0  501    0  0.00000000000E+00 -0.00000000000E+00 -0.23570788570E+03  0.23570788570E+03  0.00000000000E+00 0. -1.
         23    2    1    2    0    0  0.22125927900E+02  0.43570389571E+02 -0.54141648612E+02  0.14472123668E+03  0.12499993079E+03 0.  0.
          5    1    3    3  502    0 -0.28142715783E+02 -0.68332999059E+01  0.24729927058E+02  0.38371418158E+02  0.47000000000E+01 0.  1.
         -5    1    3    3    0  502  0.50268643682E+02  0.50403689477E+02 -0.78871575670E+02  0.10634981852E+03  0.47000000000E+01 0.  1.
        -11    1    1    2    0    0 -0.56564050584E+02 -0.26693437731E+02 -0.77464038968E+02  0.99562587198E+02  0.00000000000E+00 0.  1.
         11    1    1    2    0    0  0.34438122684E+02 -0.16876951840E+02 -0.40064640583E+02  0.55461619364E+02  0.00000000000E+00 0. -1.
<mgrwt>
<rscale>  0 0.12503247E+03</rscale>
<asrwt>0</asrwt>
<pdfrwt beam="2">  1        1 0.36262751E-01 0.13421221E+03</pdfrwt>
<pdfrwt beam="1">  1       -1 0.98519320E-02 0.13421221E+03</pdfrwt>
<totfact> 0.70508882E+03</totfact>
</mgrwt>
</event>
<event>
 7    1  0.6387485E-006  0.1395500E+03  0.7546771E-02  0.1224564E+00
          3   -1    0    0  501    0  0.00000000000E+00  0.00000000000E+00  0.88187809935E+03  0.88187809935E+03  0.00000000000E+00 0. -1.
         -3   -1    0    0    0  501 -0.00000000000E+00 -0.00000000000E+00 -0.17937680720E+02  0.17937680720E+02  0.00000000000E+00 0.  1.
         23    2    1    2    0    0  0.19693253243E+02 -0.58850753461E+02  0.45500602939E+03  0.47592509858E+03  0.12499190883E+03 0.  0.
          5    1    3    3  502    0  0.20093438523E+02 -0.74128108482E+02  0.13400090460E+03  0.15452202164E+03  0.47000000000E+01 0. -1.
         -5    1    3    3    0  502 -0.40018528040E+00  0.15277355022E+02  0.32100512479E+03  0.32140307694E+03  0.47000000000E+01 0. -1.
        -11    1    1    2    0    0 -0.25004882130E+02 -0.17609125267E+02  0.69845331666E+02  0.76247595232E+02  0.00000000000E+00 0.  1.
         11    1    1    2    0    0  0.53116288878E+01  0.76459878727E+02  0.33908905757E+03  0.34764308625E+03  0.00000000000E+00 0. -1.
<mgrwt>
<rscale>  0 0.13196832E+03</rscale>
<asrwt>0</asrwt>
<pdfrwt beam="1">  1        3 0.13567352E+00 0.13955004E+03</pdfrwt>
<pdfrwt beam="2">  1       -3 0.27596439E-02 0.13955004E+03</pdfrwt>
<totfact> 0.59631357E+02</totfact>
</mgrwt>
</event>
<event>
 7    1  0.6387485E-006  0.2599340E+03  0.7546771E-02  0.1109308E+00
         -2   -1    0    0    0  501 -0.00000000000E+00  0.00000000000E+00  0.16126349565E+03  0.16126349565E+03  0.00000000000E+00 0.  1.
          2   -1    0    0  501    0  0.00000000000E+00 -0.00000000000E+00 -0.40635789474E+03  0.40635789474E+03  0.00000000000E+00 0. -1.
         23    2    1    2    0    0 -0.35345304970E+02 -0.22514997113E+03 -0.16856301120E+03  0.30980501683E+03  0.12499543844E+03 0.  0.
          5    1    3    3  502    0  0.34039240359E+02 -0.20446748764E+02 -0.47258903423E+02  0.61905035110E+02  0.47000000000E+01 0.  1.
         -5    1    3    3    0  502 -0.69384545330E+02 -0.20470322236E+03 -0.12130410777E+03  0.24789998172E+03  0.47000000000E+01 0.  1.
        -11    1    1    2    0    0  0.23988787815E+02  0.10807315043E+03  0.10923451050E+02  0.11124113253E+03  0.00000000000E+00 0.  1.
         11    1    1    2    0    0  0.11356517155E+02  0.11707682070E+03 -0.87454838938E+02  0.14657524102E+03  0.00000000000E+00 0. -1.
<mgrwt>
<rscale>  0 0.25642909E+03</rscale>
<asrwt>0</asrwt>
<pdfrwt beam="2">  1        2 0.62516598E-01 0.25993395E+03</pdfrwt>
<pdfrwt beam="1">  1       -2 0.24809769E-01 0.25993395E+03</pdfrwt>
<totfact> 0.11310234E+03</totfact>
</mgrwt>
</event>
<event>
 7    1  0.6387485E-006  0.1584617E+03  0.7546771E-02  0.1198241E+00
         -2   -1    0    0    0  501 -0.00000000000E+00  0.00000000000E+00  0.56645776289E+02  0.56645776289E+02  0.00000000000E+00 0.  1.
          2   -1    0    0  501    0  0.00000000000E+00 -0.00000000000E+00 -0.37635467684E+03  0.37635467684E+03  0.00000000000E+00 0. -1.
         23    2    1    2    0    0  0.97198444254E+02 -0.62836828329E+01 -0.17313856159E+03  0.23470636981E+03  0.12499238491E+03 0.  0.
          5    1    3    3  502    0 -0.14962797994E+02 -0.36611476831E+02 -0.63050465728E+02  0.74577052690E+02  0.47000000000E+01 0. -1.
         -5    1    3    3    0  502  0.11216124225E+03  0.30327793998E+02 -0.11008809586E+03  0.16012931712E+03  0.47000000000E+01 0. -1.
        -11    1    1    2    0    0 -0.18978918514E+02 -0.31786594159E+02 -0.13691456520E+02  0.39472052111E+02  0.00000000000E+00 0.  1.
         11    1    1    2    0    0 -0.78219525740E+02  0.38070276992E+02 -0.13287888244E+03  0.15882203120E+03  0.00000000000E+00 0. -1.
<mgrwt>
<rscale>  0 0.15183104E+03</rscale>
<asrwt>0</asrwt>
<pdfrwt beam="2">  1        2 0.57900720E-01 0.15846173E+03</pdfrwt>
<pdfrwt beam="1">  1       -2 0.87147348E-02 0.15846173E+03</pdfrwt>
<totfact> 0.68014107E+03</totfact>
</mgrwt>
</event>
<event>
 7    1  0.6387485E-006  0.1260579E+03  0.7546771E-02  0.1249714E+00
         -2   -1    0    0    0  501 -0.00000000000E+00  0.00000000000E+00  0.32186933247E+02  0.32186933247E+02  0.00000000000E+00 0.  1.
          2   -1    0    0  501    0  0.00000000000E+00 -0.00000000000E+00 -0.37227719203E+03  0.37227719203E+03  0.00000000000E+00 0. -1.
         23    2    1    2    0    0 -0.89538095193E+01  0.13601818997E+02 -0.22577350951E+03  0.25858124720E+03  0.12500161447E+03 0.  0.
          5    1    3    3  502    0 -0.49753003683E+02  0.35126088800E+02 -0.56978442063E+02  0.83533444499E+02  0.47000000000E+01 0. -1.
         -5    1    3    3    0  502  0.40799194164E+02 -0.21524269803E+02 -0.16879506745E+03  0.17504780270E+03  0.47000000000E+01 0. -1.
        -11    1    1    2    0    0  0.14890862491E+02  0.31247566581E+02 -0.16998297934E+02  0.38562810266E+02  0.00000000000E+00 0.  1.
         11    1    1    2    0    0 -0.59370529713E+01 -0.44849385578E+02 -0.97318451335E+02  0.10732006781E+03  0.00000000000E+00 0. -1.
<mgrwt>
<rscale>  0 0.11607627E+03</rscale>
<asrwt>0</asrwt>
<pdfrwt beam="2">  1        2 0.57273413E-01 0.12605786E+03</pdfrwt>
<pdfrwt beam="1">  1       -2 0.49518360E-02 0.12605786E+03</pdfrwt>
<totfact> 0.16041165E+04</totfact>
</mgrwt>
</event>
<event>
 6    1  0.6387485E-006  0.1644011E+03  0.7546771E-02  0.1209086E+00
          2   -1    0    0  501    0  0.00000000000E+00  0.00000000000E+00  0.48142545131E+03  0.48142545131E+03  0.00000000000E+00 0. -1.
         -2   -1    0    0    0  501 -0.00000000000E+00 -0.00000000000E+00 -0.46722248402E+02  0.46722248402E+02  0.00000000000E+00 0.  1.
          5    1    1    2  502    0  0.15850004598E+02  0.26396899609E+02  0.16582026527E+03  0.16872009165E+03  0.47000000000E+01 0. -1.
         -5    1    1    2    0  502 -0.23425416732E+02  0.75579498866E+00 -0.34305334509E+02  0.41812287081E+02  0.47000000000E+01 0.  1.
        -11    1    1    2    0    0  0.23862192897E+02 -0.55890514484E+02  0.21575588961E+03  0.22415119397E+03  0.00000000000E+00 0. -1.
         11    1    1    2    0    0 -0.16286780763E+02  0.28737819886E+02  0.87432382550E+02  0.93464127010E+02  0.00000000000E+00 0.  1.
<mgrwt>
<rscale>  0 0.14320062E+03</rscale>
<asrwt>0</asrwt>
<pdfrwt beam="1">  1        2 0.74065450E-01 0.16440105E+03</pdfrwt>
<pdfrwt beam="2">  1       -2 0.71880386E-02 0.16440105E+03</pdfrwt>
<totfact> 0.70367550E+03</totfact>
</mgrwt>
</event>
<event>
 7    1  0.6387485E-006  0.1260620E+03  0.7546771E-02  0.1248794E+00
         -2   -1    0    0    0  501 -0.00000000000E+00  0.00000000000E+00  0.62596282900E+02  0.62596282900E+02  0.00000000000E+00 0.  1.
          2   -1    0    0  501    0  0.00000000000E+00 -0.00000000000E+00 -0.20113838150E+03  0.20113838150E+03  0.00000000000E+00 0. -1.
         23    2    1    2    0    0  0.43467592192E+01  0.15727262064E+02 -0.49341718736E+02  0.13537438425E+03  0.12500151045E+03 0.  0.
          5    1    3    3  502    0  0.67196399810E+01  0.69270579702E+02 -0.14409155460E+02  0.71226964942E+02  0.47000000000E+01 0. -1.
         -5    1    3    3    0  502 -0.23728807618E+01 -0.53543317639E+02 -0.34932563276E+02  0.64147419308E+02  0.47000000000E+01 0. -1.
        -11    1    1    2    0    0 -0.43302276627E+02  0.59818790034E+01 -0.25521717131E+02  0.50618455951E+02  0.00000000000E+00 0.  1.
         11    1    1    2    0    0  0.38955517408E+02 -0.21709141067E+02 -0.63678662737E+02  0.77741824202E+02  0.00000000000E+00 0. -1.
<mgrwt>
<rscale>  0 0.11661134E+03</rscale>
<asrwt>0</asrwt>
<pdfrwt beam="2">  1        2 0.30944366E-01 0.12606196E+03</pdfrwt>
<pdfrwt beam="1">  1       -2 0.96301975E-02 0.12606196E+03</pdfrwt>
<totfact> 0.11169445E+04</totfact>
</mgrwt>
</event>
<event>
 7    1  0.6387485E-006  0.2006650E+03  0.7546771E-02  0.1155865E+00
          1   -1    0    0  501    0  0.00000000000E+00  0.00000000000E+00  0.38651510119E+03  0.38651510119E+03  0.00000000000E+00 0. -1.
         -1   -1    0    0    0  501 -0.00000000000E+00 -0.00000000000E+00 -0.92110627777E+02  0.92110627777E+02  0.00000000000E+00 0.  1.
         23    2    1    2    0    0 -0.14849424420E+03  0.50903124804E+02  0.11854966403E+03  0.23306747727E+03  0.12499902977E+03 0.  0.
          5    1    3    3  502    0 -0.38713237606E+02  0.68219276578E+02  0.87442594918E+02  0.11756224678E+03  0.47000000000E+01 0. -1.
         -5    1    3    3    0  502 -0.10978100659E+03 -0.17316151775E+02  0.31107069117E+02  0.11550523048E+03  0.47000000000E+01 0. -1.
        -11    1    1    2    0    0  0.53274262363E+02 -0.47627503733E+02  0.10417689341E+03  0.12633032598E+03  0.00000000000E+00 0. -1.
         11    1    1    2    0    0  0.95219981833E+02 -0.32756210710E+01  0.71677915970E+02  0.11922792572E+03  0.00000000000E+00 0.  1.
<mgrwt>
<rscale>  0 0.19290742E+03</rscale>
<asrwt>0</asrwt>
<pdfrwt beam="1">  1        1 0.59463861E-01 0.20066496E+03</pdfrwt>
<pdfrwt beam="2">  1       -1 0.14170866E-01 0.20066496E+03</pdfrwt>
<totfact> 0.22066225E+03</totfact>
</mgrwt>
</event>
<event>
 7    1  0.6387485E-006  0.2895705E+03  0.7546771E-02  0.1092336E+00
         -1   -1    0    0    0  501 -0.00000000000E+00  0.00000000000E+00  0.23820684133E+04  0.23820684133E+04  0.00000000000E+00 0.  1.
          1   -1    0    0  501    0  0.00000000000E+00 -0.00000000000E+00 -0.35042556878E+02  0.35042556878E+02  0.00000000000E+00 0. -1.
         23    2    1    2    0    0  0.17468811943E+03  0.19418734206E+03  0.14430559388E+04  0.14718225237E+04  0.12500574367E+03 0.  0.
          5    1    3    3  502    0  0.13192448364E+03  0.15769687897E+03  0.13263301642E+04  0.13421796338E+04  0.47000000000E+01 0. -1.
         -5    1    3    3    0  502  0.42763635792E+02  0.36490463093E+02  0.11672577461E+03  0.12964288990E+03  0.47000000000E+01 0. -1.
        -11    1    1    2    0    0 -0.67408493686E+02 -0.13464586507E+03  0.56783253850E+03  0.58745825875E+03  0.00000000000E+00 0.  1.
         11    1    1    2    0    0 -0.10727962575E+03 -0.59541476996E+02  0.33613737911E+03  0.35783018768E+03  0.00000000000E+00 0. -1.
<mgrwt>
<rscale>  0 0.28622568E+03</rscale>
<asrwt>0</asrwt>
<pdfrwt beam="2">  1        1 0.53911645E-02 0.28957054E+03</pdfrwt>
<pdfrwt beam="1">  1       -1 0.36647194E+00 0.28957054E+03</pdfrwt>
<totfact> 0.21787065E+01</totfact>
</mgrwt>
</event>
<event>
 7    1  0.6387485E-006  0.1340204E+03  0.7546771E-02  0.1234441E+00
         -1   -1    0    0    0  501 -0.00000000000E+00  0.00000000000E+00  0.69297949415E+03  0.69297949415E+03  0.00000000000E+00 0.  1.
          1   -1    0    0  501    0  0.00000000000E+00 -0.00000000000E+00 -0.26344884530E+02  0.26344884530E+02  0.00000000000E+00 0. -1.
         23    2    1    2    0    0 -0.28202788341E+02 -0.39252947338E+02  0.53935704745E+03  0.55575848065E+03  0.12500109212E+03 0.  0.
          5    1    3    3  502    0  0.30743386029E+02  0.23553605453E+02  0.88416195870E+02  0.96640787489E+02  0.47000000000E+01 0.  1.
         -5    1    3    3    0  502 -0.58946174370E+02 -0.62806552791E+02  0.45094085158E+03  0.45911769316E+03  0.47000000000E+01 0.  1.
        -11    1    1    2    0    0  0.50932510996E+02  0.46262779905E+02  0.12062075072E+03  0.13886587408E+03  0.00000000000E+00 0.  1.
         11    1    1    2    0    0 -0.22729722655E+02 -0.70098325674E+01  0.66568114561E+01  0.24700023955E+02  0.00000000000E+00 0. -1.
<mgrwt>
<rscale>  0 0.12540257E+03</rscale>
<asrwt>0</asrwt>
<pdfrwt beam="2">  1        1 0.40530597E-02 0.13402039E+03</pdfrwt>
<pdfrwt beam="1">  1       -1 0.10661222E+00 0.13402039E+03</pdfrwt>
<totfact> 0.18900859E+03</totfact>
</mgrwt>
</event>
<event>
 7    1  0.6387485E-006  0.2235022E+03  0.7546771E-02  0.1133532E+00
         -3   -1    0    0    0  501 -0.00000000000E+00  0.00000000000E+00  0.12499112284E+04  0.12499112284E+04  0.00000000000E+00 0.  1.
          3   -1    0    0  501    0  0.00000000000E+00 -0.00000000000E+00 -0.39550389031E+02  0.39550389031E+02  0.00000000000E+00 0. -1.
         23    2    1    2    0    0  0.12751290675E+03  0.13441924114E+03  0.75386366038E+03  0.78629744273E+03  0.12500070496E+03 0.  0.
          5    1    3    3  502    0  0.12363096395E+02  0.14307716615E+02  0.63782625830E+01  0.20501930172E+02  0.47000000000E+01 0. -1.
         -5    1    3    3    0  502  0.11514981035E+03  0.12011152452E+03  0.74748539779E+03  0.76579551256E+03  0.47000000000E+01 0. -1.
        -11    1    1    2    0    0 -0.73737918613E+02 -0.37489211547E+02  0.99719698033E+02  0.12956365154E+03  0.00000000000E+00 0. -1.
         11    1    1    2    0    0 -0.53774988132E+02 -0.96930029592E+02  0.35677748100E+03  0.37360052320E+03  0.00000000000E+00 0.  1.
<mgrwt>
<rscale>  0 0.22047146E+03</rscale>
<asrwt>0</asrwt>
<pdfrwt beam="2">  1        3 0.60846762E-02 0.22350224E+03</pdfrwt>
<pdfrwt beam="1">  1       -3 0.19229401E+00 0.22350224E+03</pdfrwt>
<totfact> 0.73159978E+01</totfact>
</mgrwt>
</event>
<event>
 7    1  0.6387485E-006  0.1440905E+03  0.7546771E-02  0.1218543E+00
         -1   -1    0    0    0  501 -0.00000000000E+00  0.00000000000E+00  0.60057742084E+02  0.60057742084E+02  0.00000000000E+00 0.  1.
          1   -1    0    0  501    0  0.00000000000E+00 -0.00000000000E+00 -0.44685710375E+03  0.44685710375E+03  0.00000000000E+00 0. -1.
         23    2    1    2    0    0 -0.20011939000E+02  0.68830225831E+02 -0.52452655283E+02  0.15334060383E+03  0.12499592812E+03 0.  0.
          5    1    3    3  502    0 -0.26528937771E+02  0.10319795134E+03 -0.50456716961E+02  0.11798971135E+03  0.47000000000E+01 0. -1.
         -5    1    3    3    0  502  0.65169987715E+01 -0.34367725504E+02 -0.19959383220E+01  0.35350892479E+02  0.47000000000E+01 0. -1.
        -11    1    1    2    0    0 -0.20093798784E+02 -0.17004385395E+02 -0.21644492098E+02  0.34079229898E+02  0.00000000000E+00 0. -1.
         11    1    1    2    0    0  0.40105737784E+02 -0.51825840436E+02 -0.31270221428E+03  0.31949501210E+03  0.00000000000E+00 0.  1.
<mgrwt>
<rscale>  0 0.13619438E+03</rscale>
<asrwt>0</asrwt>
<pdfrwt beam="2">  1        1 0.68747248E-01 0.14409046E+03</pdfrwt>
<pdfrwt beam="1">  1       -1 0.92396525E-02 0.14409046E+03</pdfrwt>
<totfact> 0.35131909E+03</totfact>
</mgrwt>
</event>
<event>
 7    1  0.6387485E-006  0.1358431E+03  0.7546771E-02  0.1231105E+00
          2   -1    0    0  501    0  0.00000000000E+00  0.00000000000E+00  0.10606927109E+03  0.10606927109E+03  0.00000000000E+00 0. -1.
         -2   -1    0    0    0  501 -0.00000000000E+00 -0.00000000000E+00 -0.13779576239E+03  0.13779576239E+03  0.00000000000E+00 0.  1.
         23    2    1    2    0    0  0.53154585809E+02 -0.17928951978E+01 -0.11895173055E+02  0.13636291216E+03  0.12499889682E+03 0.  0.
          5    1    3    3  502    0  0.52321645066E+02  0.17373720033E+02 -0.61645420533E+02  0.82835068436E+02  0.47000000000E+01 0. -1.
         -5    1    3    3    0  502  0.83294074368E+00 -0.19166615231E+02  0.49750247478E+02  0.53527843725E+02  0.47000000000E+01 0. -1.
        -11    1    1    2    0    0 -0.70165955889E+02  0.86145221079E+01  0.11089654529E+02  0.71557332220E+02  0.00000000000E+00 0.  1.
         11    1    1    2    0    0  0.17011370079E+02 -0.68216269101E+01 -0.30920972775E+02  0.35944789094E+02  0.00000000000E+00 0. -1.
<mgrwt>
<rscale>  0 0.12757127E+03</rscale>
<asrwt>0</asrwt>
<pdfrwt beam="1">  1        2 0.16318349E-01 0.13584310E+03</pdfrwt>
<pdfrwt beam="2">  1       -2 0.21199348E-01 0.13584310E+03</pdfrwt>
<totfact> 0.63527140E+03</totfact>
</mgrwt>
</event>
<event>
 7    1  0.6387485E-006  0.1340876E+03  0.7546771E-02  0.1232818E+00
         -1   -1    0    0    0  501 -0.00000000000E+00  0.00000000000E+00  0.11570108227E+03  0.11570108227E+03  0.00000000000E+00 0.  1.
          1   -1    0    0  501    0  0.00000000000E+00 -0.00000000000E+00 -0.12668546467E+03  0.12668546467E+03  0.00000000000E+00 0. -1.
         23    2    1    2    0    0 -0.42707160197E+02 -0.23053887317E+02  0.93010540682E+01  0.13440981870E+03  0.12499642596E+03 0.  0.
          5    1    3    3  502    0 -0.60951012051E+02 -0.63612326122E+02 -0.21333032807E+01  0.88250750068E+02  0.47000000000E+01 0. -1.
         -5    1    3    3    0  502  0.18243851854E+02  0.40558438805E+02  0.11434357349E+02  0.46159068629E+02  0.47000000000E+01 0. -1.
        -11    1    1    2    0    0  0.11872899085E+02 -0.26168307225E+02  0.21951330745E+02  0.36160848402E+02  0.00000000000E+00 0.  1.
         11    1    1    2    0    0  0.30834261112E+02  0.49222194542E+02 -0.42236767213E+02  0.71815879849E+02  0.00000000000E+00 0. -1.
<mgrwt>
<rscale>  0 0.12645133E+03</rscale>
<asrwt>0</asrwt>
<pdfrwt beam="2">  1        1 0.19490072E-01 0.13408762E+03</pdfrwt>
<pdfrwt beam="1">  1       -1 0.17800166E-01 0.13408762E+03</pdfrwt>
<totfact> 0.61179333E+03</totfact>
</mgrwt>
</event>
<event>
 7    1  0.6387485E-006  0.1387625E+03  0.7546771E-02  0.1218412E+00
          1   -1    0    0  501    0  0.00000000000E+00  0.00000000000E+00  0.64188051985E+03  0.64188051985E+03  0.00000000000E+00 0. -1.
         -1   -1    0    0    0  501 -0.00000000000E+00 -0.00000000000E+00 -0.30201027181E+02  0.30201027181E+02  0.00000000000E+00 0.  1.
         23    2    1    2    0    0 -0.55906892054E+02 -0.22436373958E+02  0.22435470659E+03  0.26379930582E+03  0.12500427163E+03 0.  0.
          5    1    3    3  502    0 -0.73470863525E+02  0.10289775451E+02  0.60857704241E+02  0.96070793853E+02  0.47000000000E+01 0.  1.
         -5    1    3    3    0  502  0.17563971471E+02 -0.32726149409E+02  0.16349700235E+03  0.16772851197E+03  0.47000000000E+01 0.  1.
        -11    1    1    2    0    0  0.60467008209E+02 -0.33202110185E+02  0.16064967185E+03  0.17483408211E+03  0.00000000000E+00 0.  1.
         11    1    1    2    0    0 -0.45601161549E+01  0.55638484143E+02  0.22667511422E+03  0.23344815910E+03  0.00000000000E+00 0. -1.
<mgrwt>
<rscale>  0 0.13628837E+03</rscale>
<asrwt>0</asrwt>
<pdfrwt beam="1">  1        1 0.98750839E-01 0.13876253E+03</pdfrwt>
<pdfrwt beam="2">  1       -1 0.46463124E-02 0.13876253E+03</pdfrwt>
<totfact> 0.60674971E+03</totfact>
</mgrwt>
</event>
<event>
 7    1  0.6387485E-006  0.1502258E+03  0.7546771E-02  0.1209420E+00
         -2   -1    0    0    0  501 -0.00000000000E+00  0.00000000000E+00  0.15834195664E+03  0.15834195664E+03  0.00000000000E+00 0.  1.
          2   -1    0    0  501    0  0.00000000000E+00 -0.00000000000E+00 -0.11861236859E+03  0.11861236859E+03  0.00000000000E+00 0. -1.
         23    2    1    2    0    0  0.36179227833E+02  0.75063886966E+02  0.31746763869E+02  0.15354358675E+03  0.12499700942E+03 0.  0.
          5    1    3    3  502    0  0.76963397014E+01 -0.27557859931E+02  0.36761858591E+02  0.46820866457E+02  0.47000000000E+01 0. -1.
         -5    1    3    3    0  502  0.28482888131E+02  0.10262174690E+03 -0.50150947216E+01  0.10672272030E+03  0.47000000000E+01 0. -1.
        -11    1    1    2    0    0 -0.50671590301E+00 -0.45247174086E+02 -0.37201205336E+02  0.58578948456E+02  0.00000000000E+00 0. -1.
         11    1    1    2    0    0 -0.35672511930E+02 -0.29816712880E+02  0.45184029510E+02  0.64831790019E+02  0.00000000000E+00 0.  1.
<mgrwt>
<rscale>  0 0.14294498E+03</rscale>
<asrwt>0</asrwt>
<pdfrwt beam="2">  1        2 0.18248057E-01 0.15022575E+03</pdfrwt>
<pdfrwt beam="1">  1       -2 0.24360301E-01 0.15022575E+03</pdfrwt>
<totfact> 0.44235253E+03</totfact>
</mgrwt>
</event>
<event>
 7    1  0.6387485E-006  0.1194573E+03  0.7546771E-02  0.1255540E+00
         -3   -1    0    0    0  501 -0.00000000000E+00  0.00000000000E+00  0.39536113229E+02  0.39536113229E+02  0.00000000000E+00 0.  1.
          3   -1    0    0  501    0  0.00000000000E+00 -0.00000000000E+00 -0.29150199301E+03  0.29150199301E+03  0.00000000000E+00 0. -1.
         23    2    1    2    0    0  0.29695891054E+02 -0.11235968686E+02 -0.13026949390E+03  0.17674891594E+03  0.11516051974E+03 0.  0.
          5    1    3    3  502    0  0.64304122449E+01  0.50443072472E+02 -0.74226985989E+02  0.90097664848E+02  0.47000000000E+01 0. -1.
         -5    1    3    3    0  502  0.23265478809E+02 -0.61679041158E+02 -0.56042507914E+02  0.86651251091E+02  0.47000000000E+01 0.  1.
        -11    1    1    2    0    0 -0.41150446043E+02  0.31698368483E+02 -0.30739076553E+02  0.60357572858E+02  0.00000000000E+00 0. -1.
         11    1    1    2    0    0  0.11454554989E+02 -0.20462399797E+02 -0.90957309330E+02  0.93931617446E+02  0.00000000000E+00 0.  1.
<mgrwt>
<rscale>  0 0.11276140E+03</rscale>
<asrwt>0</asrwt>
<pdfrwt beam="2">  1        3 0.44846460E-01 0.11945727E+03</pdfrwt>
<pdfrwt beam="1">  1       -3 0.60824790E-02 0.11945727E+03</pdfrwt>
<totfact> 0.18547602E+03</totfact>
</mgrwt>
</event>
<event>
 6    1  0.6387485E-006  0.2012124E+03  0.7546771E-02  0.1160260E+00
          1   -1    0    0  501    0  0.00000000000E+00  0.00000000000E+00  0.99084141330E+03  0.99084141330E+03  0.00000000000E+00 0. -1.
         -1   -1    0    0    0  501 -0.00000000000E+00 -0.00000000000E+00 -0.32154505039E+02  0.32154505039E+02  0.00000000000E+00 0.  1.
          5    1    1    2  502    0 -0.15235562201E+03  0.37534521883E+01  0.55939571826E+03  0.57980340079E+03  0.47000000000E+01 0. -1.
         -5    1    1    2    0  502  0.30505860681E+02  0.15446425179E+02  0.42014516257E+02  0.54373791141E+02  0.47000000000E+01 0.  1.
        -11    1    1    2    0    0  0.92888008456E+02  0.83991187388E+01  0.14223122441E+03  0.17008365150E+03  0.00000000000E+00 0.  1.
         11    1    1    2    0    0  0.28961752871E+02 -0.27598996106E+02  0.21504544934E+03  0.21873507491E+03  0.00000000000E+00 0. -1.
<mgrwt>
<rscale>  0 0.18801896E+03</rscale>
<asrwt>0</asrwt>
<pdfrwt beam="1">  1        1 0.15243712E+00 0.20121243E+03</pdfrwt>
<pdfrwt beam="2">  1       -1 0.49468477E-02 0.20121243E+03</pdfrwt>
<totfact> 0.28883889E+03</totfact>
</mgrwt>
</event>
<event>
 7    1  0.6387485E-006  0.2368214E+03  0.7546771E-02  0.1124567E+00
         -3   -1    0    0    0  501 -0.00000000000E+00  0.00000000000E+00  0.34262145010E+03  0.34262145010E+03  0.00000000000E+00 0.  1.
          3   -1    0    0  501    0  0.00000000000E+00 -0.00000000000E+00 -0.15919905301E+03  0.15919905301E+03  0.00000000000E+00 0. -1.
         23    2    1    2    0    0  0.19614521401E+03 -0.44557822137E+02  0.14220244995E+03  0.27623522150E+03  0.12500406528E+03 0.  0.
          5    1    3    3  502    0  0.16130034523E+03  0.84915440183E+01  0.13792065665E+03  0.21244788825E+03  0.47000000000E+01 0.  1.
         -5    1    3    3    0  502  0.34844868776E+02 -0.53049366155E+02  0.42817932994E+01  0.63787333252E+02  0.47000000000E+01 0.  1.
        -11    1    1    2    0    0 -0.10902497791E+03  0.13385802323E+02  0.68087463790E+02  0.12923439263E+03  0.00000000000E+00 0. -1.
         11    1    1    2    0    0 -0.87120236094E+02  0.31172019814E+02 -0.26867516649E+02  0.96350888980E+02  0.00000000000E+00 0.  1.
<mgrwt>
<rscale>  0 0.23296993E+03</rscale>
<asrwt>0</asrwt>
<pdfrwt beam="2">  1        3 0.24492162E-01 0.23682137E+03</pdfrwt>
<pdfrwt beam="1">  1       -3 0.52710992E-01 0.23682137E+03</pdfrwt>
<totfact> 0.13891539E+02</totfact>
</mgrwt>
</event>
<event>
 7    1  0.6387485E-006  0.1805725E+03  0.7546771E-02  0.1172845E+00
          1   -1    0    0  501    0  0.00000000000E+00  0.00000000000E+00  0.55077935364E+02  0.55077935364E+02  0.00000000000E+00 0. -1.
         -1   -1    0    0    0  501 -0.00000000000E+00 -0.00000000000E+00 -0.54471999738E+03  0.54471999738E+03  0.00000000000E+00 0.  1.
         23    2    1    2    0    0  0.11138807289E+03  0.67633181005E+02 -0.31956098088E+03  0.36704992537E+03  0.12499950903E+03 0.  0.
          5    1    3    3  502    0 -0.92261263320E+00 -0.29415330018E+02 -0.34233852835E+02  0.45388980316E+02  0.47000000000E+01 0. -1.
         -5    1    3    3    0  502  0.11231068552E+03  0.97048511023E+02 -0.28532712804E+03  0.32166094505E+03  0.47000000000E+01 0. -1.
        -11    1    1    2    0    0  0.12849424044E+02 -0.16662324416E+02 -0.42955147906E+02  0.47831845928E+02  0.00000000000E+00 0.  1.
         11    1    1    2    0    0 -0.12423749693E+03 -0.50970856589E+02 -0.12712593323E+03  0.18491616145E+03  0.00000000000E+00 0. -1.
<mgrwt>
<rscale>  0 0.17488743E+03</rscale>
<asrwt>0</asrwt>
<pdfrwt beam="1">  1        1 0.84735288E-02 0.18057250E+03</pdfrwt>
<pdfrwt beam="2">  1       -1 0.83803074E-01 0.18057250E+03</pdfrwt>
<totfact> 0.11772024E+03</totfact>
</mgrwt>
</event>
<event>
 7    1  0.6387485E-006  0.1305131E+03  0.7546771E-02  0.1237459E+00
         -2   -1    0    0    0  501 -0.00000000000E+00  0.00000000000E+00  0.28966264444E+02  0.28966264444E+02  0.00000000000E+00 0.  1.
          2   -1    0    0  501    0  0.00000000000E+00 -0.00000000000E+00 -0.54034829795E+03  0.54034829795E+03  0.00000000000E+00 0. -1.
         23    2    1    2    0    0  0.26566733347E+02  0.26480401470E+02 -0.18366590260E+03  0.22531497112E+03  0.12500667762E+03 0.  0.
          5    1    3    3  502    0 -0.13451603251E+02 -0.43588824328E+02 -0.94035688961E+02  0.10462185257E+03  0.47000000000E+01 0.  1.
         -5    1    3    3    0  502  0.40018336598E+02  0.70069225798E+02 -0.89630213639E+02  0.12069311855E+03  0.47000000000E+01 0.  1.
        -11    1    1    2    0    0 -0.52954229899E+02  0.14864037402E+02 -0.15577706166E+03  0.16520164349E+03  0.00000000000E+00 0.  1.
         11    1    1    2    0    0  0.26387496552E+02 -0.41344438872E+02 -0.17193906924E+03  0.17879794779E+03  0.00000000000E+00 0. -1.
<mgrwt>
<rscale>  0 0.12348299E+03</rscale>
<asrwt>0</asrwt>
<pdfrwt beam="2">  1        2 0.83130500E-01 0.13051311E+03</pdfrwt>
<pdfrwt beam="1">  1       -2 0.44563488E-02 0.13051311E+03</pdfrwt>
<totfact> 0.12587490E+04</totfact>
</mgrwt>
</event>
<event>
 7    1  0.6387485E-006  0.1305480E+03  0.7546771E-02  0.1240793E+00
          2   -1    0    0  501    0  0.00000000000E+00  0.00000000000E+00  0.73896136771E+03  0.73896136771E+03  0.00000000000E+00 0.  1.
         -2   -1    0    0    0  501 -0.00000000000E+00 -0.00000000000E+00 -0.17995386791E+02  0.17995386791E+02  0.00000000000E+00 0. -1.
         23    2    1    2    0    0 -0.26684007192E+01 -0.37560754115E+02  0.35706094959E+03  0.38017797924E+03  0.12499937426E+03 0.  0.
          5    1    3    3  502    0  0.52637232202E+01  0.32206849477E+02  0.26761648366E+02  0.42464853216E+02  0.47000000000E+01 0. -1.
         -5    1    3    3    0  502 -0.79321239394E+01 -0.69767603592E+02  0.33029930122E+03  0.33771312603E+03  0.47000000000E+01 0. -1.
        -11    1    1    2    0    0  0.15288482032E+02  0.59866816070E+02  0.32025506666E+03  0.32616112747E+03  0.00000000000E+00 0.  1.
         11    1    1    2    0    0 -0.12620081312E+02 -0.22306061955E+02  0.43649964664E+02  0.50617647786E+02  0.00000000000E+00 0. -1.
<mgrwt>
<rscale>  0 0.12140731E+03</rscale>
<asrwt>0</asrwt>
<pdfrwt beam="1">  1        2 0.11368634E+00 0.13054798E+03</pdfrwt>
<pdfrwt beam="2">  1       -2 0.27685216E-02 0.13054798E+03</pdfrwt>
<totfact> 0.17721921E+04</totfact>
</mgrwt>
</event>
<event>
 7    1  0.6387485E-006  0.1476410E+03  0.7546771E-02  0.1212777E+00
         -1   -1    0    0    0  501 -0.00000000000E+00  0.00000000000E+00  0.17606193236E+03  0.17606193236E+03  0.00000000000E+00 0.  1.
          1   -1    0    0  501    0  0.00000000000E+00 -0.00000000000E+00 -0.14246124515E+03  0.14246124515E+03  0.00000000000E+00 0. -1.
         23    2    1    2    0    0  0.65263526037E+02  0.43730522225E+02  0.10225823399E+03  0.17959566061E+03  0.12500467385E+03 0.  0.
          5    1    3    3  502    0  0.46750239207E+02  0.78259076482E+02  0.27956211490E+02  0.95465740863E+02  0.47000000000E+01 0. -1.
         -5    1    3    3    0  502  0.18513286830E+02 -0.34528554257E+02  0.74302022500E+02  0.84129919743E+02  0.47000000000E+01 0. -1.
        -11    1    1    2    0    0  0.17784191177E+01 -0.21366241589E+02  0.17369238986E+02  0.27592925128E+02  0.00000000000E+00 0.  1.
         11    1    1    2    0    0 -0.67041945155E+02 -0.22364280636E+02 -0.86026785766E+02  0.11133459178E+03  0.00000000000E+00 0. -1.
<mgrwt>
<rscale>  0 0.14041092E+03</rscale>
<asrwt>0</asrwt>
<pdfrwt beam="2">  1        1 0.21917115E-01 0.14764097E+03</pdfrwt>
<pdfrwt beam="1">  1       -1 0.27086451E-01 0.14764097E+03</pdfrwt>
<totfact> 0.26812159E+03</totfact>
</mgrwt>
</event>
<event>
 7    1  0.6387485E-006  0.1289292E+03  0.7546771E-02  0.1243769E+00
         -4   -1    0    0    0  501 -0.00000000000E+00  0.00000000000E+00  0.18607308298E+03  0.18607308298E+03  0.00000000000E+00 0.  1.
          4   -1    0    0  501    0  0.00000000000E+00 -0.00000000000E+00 -0.70359139085E+02  0.70359139085E+02  0.00000000000E+00 0. -1.
         23    2    1    2    0    0  0.33627645261E+01 -0.31382658546E+02  0.91074984593E+02  0.15785240297E+03  0.12500619529E+03 0.  0.
          5    1    3    3  502    0 -0.52218518933E+02 -0.26250230667E+02  0.82456297214E+02  0.10117795847E+03  0.47000000000E+01 0.  1.
         -5    1    3    3    0  502  0.55581283459E+02 -0.51324278788E+01  0.86186873797E+01  0.56674444497E+02  0.47000000000E+01 0.  1.
        -11    1    1    2    0    0  0.24727080990E+02 -0.84985403275E+01 -0.19638729032E+02  0.32700663602E+02  0.00000000000E+00 0. -1.
         11    1    1    2    0    0 -0.28089845517E+02  0.39881198873E+02  0.44277688331E+02  0.65879155494E+02  0.00000000000E+00 0.  1.
<mgrwt>
<rscale>  0 0.11959377E+03</rscale>
<asrwt>0</asrwt>
<pdfrwt beam="2">  1        4 0.10824483E-01 0.12892916E+03</pdfrwt>
<pdfrwt beam="1">  1       -4 0.28626628E-01 0.12892916E+03</pdfrwt>
<totfact> 0.12561807E+03</totfact>
</mgrwt>
</event>
<event>
 7    1  0.6387485E-006  0.1445274E+03  0.7546771E-02  0.1217157E+00
          1   -1    0    0  501    0  0.00000000000E+00  0.00000000000E+00  0.22897639725E+03  0.22897639725E+03  0.00000000000E+00 0. -1.
         -1   -1    0    0    0  501 -0.00000000000E+00 -0.00000000000E+00 -0.96905809534E+02  0.96905809534E+02  0.00000000000E+00 0.  1.
         23    2    1    2    0    0 -0.71900431634E+02  0.96160780294E+01 -0.60363503388E+01  0.14465341528E+03  0.12500412793E+03 0.  0.
          5    1    3    3  502    0 -0.37507997058E+02 -0.21354454379E+02 -0.59581968089E+02  0.73722204840E+02  0.47000000000E+01 0.  1.
         -5    1    3    3    0  502 -0.34392434576E+02  0.30970532408E+02  0.53545617750E+02  0.70931210436E+02  0.47000000000E+01 0.  1.
        -11    1    1    2    0    0  0.16121783739E+02 -0.30416176712E+01 -0.12412129791E+02  0.20572416361E+02  0.00000000000E+00 0.  1.
         11    1    1    2    0    0  0.55778647895E+02 -0.65744603582E+01  0.15051906784E+03  0.16065637514E+03  0.00000000000E+00 0. -1.
<mgrwt>
<rscale>  0 0.13719263E+03</rscale>
<asrwt>0</asrwt>
<pdfrwt beam="1">  1        1 0.35227138E-01 0.14452741E+03</pdfrwt>
<pdfrwt beam="2">  1       -1 0.14908586E-01 0.14452741E+03</pdfrwt>
<totfact> 0.38696814E+03</totfact>
</mgrwt>
</event>
<event>
 7    1  0.6387485E-006  0.1370789E+03  0.7546771E-02  0.1229221E+00
         -1   -1    0    0    0  501 -0.00000000000E+00  0.00000000000E+00  0.36191664878E+03  0.36191664878E+03  0.00000000000E+00 0.  1.
          1   -1    0    0  501    0  0.00000000000E+00 -0.00000000000E+00 -0.45346851711E+02  0.45346851711E+02  0.00000000000E+00 0. -1.
         23    2    1    2    0    0 -0.42819510509E+02  0.36500128371E+02  0.23778273683E+03  0.27446539576E+03  0.12499941475E+03 0.  0.
          5    1    3    3  502    0 -0.64905319339E+02  0.62971253034E+02  0.21385794635E+03  0.23223994145E+03  0.47000000000E+01 0.  1.
         -5    1    3    3    0  502  0.22085808831E+02 -0.26471124662E+02  0.23924790477E+02  0.42225454313E+02  0.47000000000E+01 0.  1.
        -11    1    1    2    0    0  0.40947387282E+02  0.51747189740E+01 -0.25868663103E+01  0.41354058072E+02  0.00000000000E+00 0.  1.
         11    1    1    2    0    0  0.18721232267E+01 -0.41674847345E+02  0.81373926548E+02  0.91444046654E+02  0.00000000000E+00 0. -1.
<mgrwt>
<rscale>  0 0.12881722E+03</rscale>
<asrwt>0</asrwt>
<pdfrwt beam="2">  1        1 0.69764389E-02 0.13707890E+03</pdfrwt>
<pdfrwt beam="1">  1       -1 0.55679483E-01 0.13707890E+03</pdfrwt>
<totfact> 0.33870660E+03</totfact>
</mgrwt>
</event>
<event>
 7    1  0.6387485E-006  0.1743682E+03  0.7546771E-02  0.1180038E+00
          1   -1    0    0  501    0  0.00000000000E+00  0.00000000000E+00  0.79696405434E+03  0.79696405434E+03  0.00000000000E+00 0. -1.
         -1   -1    0    0    0  501 -0.00000000000E+00 -0.00000000000E+00 -0.40153814750E+02  0.40153814750E+02  0.00000000000E+00 0.  1.
         23    2    1    2    0    0  0.11813374036E+03 -0.28680702707E+02  0.22550507810E+03  0.28505577516E+03  0.12500436545E+03 0.  0.
          5    1    3    3  502    0  0.22696201556E+02 -0.44333384176E+02  0.13239378274E+02  0.51748793751E+02  0.47000000000E+01 0.  1.
         -5    1    3    3    0  502  0.95437538801E+02  0.15652681470E+02  0.21226569983E+03  0.23330698141E+03  0.47000000000E+01 0.  1.
        -11    1    1    2    0    0 -0.80799190457E+02 -0.24782220471E+02  0.31512117486E+03  0.32625760140E+03  0.00000000000E+00 0.  1.
         11    1    1    2    0    0 -0.37334549900E+02  0.53462923177E+02  0.21618398663E+03  0.22580449253E+03  0.00000000000E+00 0. -1.
<mgrwt>
<rscale>  0 0.16791626E+03</rscale>
<asrwt>0</asrwt>
<pdfrwt beam="1">  1        1 0.12260984E+00 0.17436816E+03</pdfrwt>
<pdfrwt beam="2">  1       -1 0.61775106E-02 0.17436816E+03</pdfrwt>
<totfact> 0.29277572E+03</totfact>
</mgrwt>
</event>
<event>
 7    1  0.6387485E-006  0.1218520E+03  0.7546771E-02  0.1249119E+00
          1   -1    0    0  501    0  0.00000000000E+00  0.00000000000E+00  0.33946917633E+02  0.33946917633E+02  0.00000000000E+00 0. -1.
         -1   -1    0    0    0  501 -0.00000000000E+00 -0.00000000000E+00 -0.43048062769E+03  0.43048062769E+03  0.00000000000E+00 0.  1.
         23    2    1    2    0    0  0.10355666645E+02  0.41912473694E+02 -0.30214990822E+03  0.32579512889E+03  0.11394737245E+03 0.  0.
          5    1    3    3  502    0 -0.46439547207E+02  0.70854012645E+01 -0.71584864305E+02  0.85751485430E+02  0.47000000000E+01 0. -1.
         -5    1    3    3    0  502  0.56795213852E+02  0.34827072429E+02 -0.23056504392E+03  0.24004364346E+03  0.47000000000E+01 0.  1.
        -11    1    1    2    0    0  0.11228811239E+02 -0.47257789410E+02 -0.77469142481E+01  0.49187392106E+02  0.00000000000E+00 0. -1.
         11    1    1    2    0    0 -0.21584477884E+02  0.53453157164E+01 -0.86636887585E+02  0.89445024323E+02  0.00000000000E+00 0.  1.
<mgrwt>
<rscale>  0 0.11642201E+03</rscale>
<asrwt>0</asrwt>
<pdfrwt beam="1">  1        1 0.52226027E-02 0.12185196E+03</pdfrwt>
<pdfrwt beam="2">  1       -1 0.66227789E-01 0.12185196E+03</pdfrwt>
<totfact> 0.35792018E+03</totfact>
</mgrwt>
</event>
<event>
 6    1  0.6387485E-006  0.1946944E+03  0.7546771E-02  0.1159557E+00
          1   -1    0    0  501    0  0.00000000000E+00  0.00000000000E+00  0.14040395084E+04  0.14040395084E+04  0.00000000000E+00 0. -1.
         -1   -1    0    0    0  501 -0.00000000000E+00 -0.00000000000E+00 -0.24692359289E+02  0.24692359289E+02  0.00000000000E+00 0.  1.
          5    1    1    2  502    0  0.34886755510E+02  0.19867139750E+02  0.29148121677E+03  0.29427058752E+03  0.47000000000E+01 0. -1.
         -5    1    1    2    0  502  0.82186763170E+02 -0.10710987469E+03  0.31652286271E+03  0.34414532093E+03  0.47000000000E+01 0.  1.
        -11    1    1    2    0    0  0.59101181384E+01  0.38235101370E+02  0.14039720079E+03  0.14563044484E+03  0.00000000000E+00 0.  1.
         11    1    1    2    0    0 -0.12298363682E+03  0.49007633572E+02  0.63094586883E+03  0.64468551440E+03  0.00000000000E+00 0. -1.
<mgrwt>
<rscale>  0 0.18879047E+03</rscale>
<asrwt>0</asrwt>
<pdfrwt beam="1">  1        1 0.21600602E+00 0.19469441E+03</pdfrwt>
<pdfrwt beam="2">  1       -1 0.37988256E-02 0.19469441E+03</pdfrwt>
<totfact> 0.22007924E+03</totfact>
</mgrwt>
</event>
<event>
 7    1  0.6387485E-006  0.2564006E+03  0.7546771E-02  0.1111712E+00
          2   -1    0    0  501    0  0.00000000000E+00  0.00000000000E+00  0.31434800035E+03  0.31434800035E+03  0.00000000000E+00 0. -1.
         -2   -1    0    0    0  501 -0.00000000000E+00 -0.00000000000E+00 -0.20076416901E+03  0.20076416901E+03  0.00000000000E+00 0.  1.
         23    2    1    2    0    0  0.10490799714E+03 -0.19776362894E+03  0.23193189380E+02  0.25744741129E+03  0.12500041901E+03 0.  0.
          5    1    3    3  502    0  0.14235419170E+02 -0.89911105612E+02  0.63176962527E+02  0.11090569267E+03  0.47000000000E+01 0.  1.
         -5    1    3    3    0  502  0.90672577965E+02 -0.10785252333E+03 -0.39983773147E+02  0.14654171862E+03  0.47000000000E+01 0.  1.
        -11    1    1    2    0    0 -0.44073607880E+02  0.57189610224E+02  0.74375047718E+02  0.10365704102E+03  0.00000000000E+00 0. -1.
         11    1    1    2    0    0 -0.60834389255E+02  0.14057401871E+03  0.16015594238E+02  0.15400771705E+03  0.00000000000E+00 0.  1.
<mgrwt>
<rscale>  0 0.25253633E+03</rscale>
<asrwt>0</asrwt>
<pdfrwt beam="1">  1        2 0.48361231E-01 0.25640056E+03</pdfrwt>
<pdfrwt beam="2">  1       -2 0.30886795E-01 0.25640056E+03</pdfrwt>
<totfact> 0.10078131E+03</totfact>
</mgrwt>
</event>
<event>
 7    1  0.6387485E-006  0.1901773E+03  0.7546771E-02  0.1166459E+00
          1   -1    0    0  501    0  0.00000000000E+00  0.00000000000E+00  0.64035267087E+03  0.64035267087E+03  0.00000000000E+00 0. -1.
         -1   -1    0    0    0  501 -0.00000000000E+00 -0.00000000000E+00 -0.61382724006E+02  0.61382724006E+02  0.00000000000E+00 0.  1.
         23    2    1    2    0    0  0.14193265257E+03  0.19974867963E+02  0.14218988163E+03  0.23745605253E+03  0.12499416479E+03 0.  0.
          5    1    3    3  502    0  0.66398872210E+00  0.37408965383E+02  0.65813181614E+02  0.75850751125E+02  0.47000000000E+01 0.  1.
         -5    1    3    3    0  502  0.14126866384E+03 -0.17434097419E+02  0.76376700016E+02  0.16160530141E+03  0.47000000000E+01 0.  1.
        -11    1    1    2    0    0 -0.71357186937E+02 -0.12529422830E+02  0.12457624676E+03  0.14411133134E+03  0.00000000000E+00 0.  1.
         11    1    1    2    0    0 -0.70575465628E+02 -0.74454451331E+01  0.31220381847E+03  0.32016801100E+03  0.00000000000E+00 0. -1.
<mgrwt>
<rscale>  0 0.18139628E+03</rscale>
<asrwt>0</asrwt>
<pdfrwt beam="1">  1        1 0.98515791E-01 0.19017732E+03</pdfrwt>
<pdfrwt beam="2">  1       -1 0.94434964E-02 0.19017732E+03</pdfrwt>
<totfact> 0.21201854E+03</totfact>
</mgrwt>
</event>
<event>
 7    1  0.6387485E-006  0.1420627E+03  0.7546771E-02  0.1221107E+00
          2   -1    0    0  501    0  0.00000000000E+00  0.00000000000E+00  0.12050591685E+03  0.12050591685E+03  0.00000000000E+00 0. -1.
         -2   -1    0    0    0  501 -0.00000000000E+00 -0.00000000000E+00 -0.13977032796E+03  0.13977032796E+03  0.00000000000E+00 0.  1.
         23    2    1    2    0    0  0.64275831759E+02  0.20618357416E+02 -0.32685798325E+02  0.14577438407E+03  0.12500124170E+03 0.  0.
          5    1    3    3  502    0 -0.68887978502E+01 -0.29089658106E+02  0.26811744711E+02  0.40430476117E+02  0.47000000000E+01 0.  1.
         -5    1    3    3    0  502  0.71164629609E+02  0.49708015522E+02 -0.59497543036E+02  0.10534390795E+03  0.47000000000E+01 0.  1.
        -11    1    1    2    0    0 -0.36472245633E+02 -0.56250838185E+02 -0.10401221615E+01  0.67048216621E+02  0.00000000000E+00 0. -1.
         11    1    1    2    0    0 -0.27803586126E+02  0.35632480769E+02  0.14461509372E+02  0.47453644123E+02  0.00000000000E+00 0.  1.
<mgrwt>
<rscale>  0 0.13437304E+03</rscale>
<asrwt>0</asrwt>
<pdfrwt beam="1">  1        2 0.18539372E-01 0.14206270E+03</pdfrwt>
<pdfrwt beam="2">  1       -2 0.21503127E-01 0.14206270E+03</pdfrwt>
<totfact> 0.53694634E+03</totfact>
</mgrwt>
</event>
<event>
 7    1  0.6387485E-006  0.1173509E+03  0.7546771E-02  0.1258187E+00
         -2   -1    0    0    0  501 -0.00000000000E+00  0.00000000000E+00  0.31827185486E+03  0.31827185486E+03  0.00000000000E+00 0.  1.
          2   -1    0    0  501    0  0.00000000000E+00 -0.00000000000E+00 -0.40918661425E+02  0.40918661425E+02  0.00000000000E+00 0. -1.
         23    2    1    2    0    0 -0.28479206824E+01  0.25190096754E+02  0.21696448204E+03  0.24666742011E+03  0.11458000719E+03 0.  0.
          5    1    3    3  502    0  0.13187720724E+01 -0.15287679176E+02 -0.80506511246E+01  0.17954255147E+02  0.47000000000E+01 0. -1.
         -5    1    3    3    0  502 -0.41666927548E+01  0.40477775929E+02  0.22501513317E+03  0.22871316496E+03  0.47000000000E+01 0.  1.
        -11    1    1    2    0    0 -0.37381918418E+02 -0.14669854662E+02  0.58423940126E+02  0.70894070557E+02  0.00000000000E+00 0.  1.
         11    1    1    2    0    0  0.40229839100E+02 -0.10520242092E+02  0.19647712670E+01  0.41629025617E+02  0.00000000000E+00 0. -1.
<mgrwt>
<rscale>  0 0.11129698E+03</rscale>
<asrwt>0</asrwt>
<pdfrwt beam="2">  1        2 0.62951789E-02 0.11735088E+03</pdfrwt>
<pdfrwt beam="1">  1       -2 0.48964899E-01 0.11735088E+03</pdfrwt>
<totfact> 0.43711881E+03</totfact>
</mgrwt>
</event>
<event>
 7    1  0.6387485E-006  0.1379553E+03  0.7546771E-02  0.1229807E+00
          1   -1    0    0  501    0  0.00000000000E+00  0.00000000000E+00  0.10095464789E+03  0.10095464789E+03  0.00000000000E+00 0. -1.
         -1   -1    0    0    0  501 -0.00000000000E+00 -0.00000000000E+00 -0.14719217281E+03  0.14719217281E+03  0.00000000000E+00 0.  1.
         23    2    1    2    0    0  0.34849010165E+02  0.46854516548E+02 -0.42925155047E+02  0.14447921715E+03  0.12498750346E+03 0.  0.
          5    1    3    3  502    0  0.76689420249E+02  0.49204109335E+02 -0.11651745327E+02  0.91979153740E+02  0.47000000000E+01 0.  1.
         -5    1    3    3    0  502 -0.41840410084E+02 -0.23495927873E+01 -0.31273409720E+02  0.52500063407E+02  0.47000000000E+01 0.  1.
        -11    1    1    2    0    0 -0.40358860251E+02 -0.51669849499E+01 -0.32838441672E+02  0.52286696067E+02  0.00000000000E+00 0.  1.
         11    1    1    2    0    0  0.55098500857E+01 -0.41687531598E+02  0.29526071792E+02  0.51380907487E+02  0.00000000000E+00 0. -1.
<mgrwt>
<rscale>  0 0.12842785E+03</rscale>
<asrwt>0</asrwt>
<pdfrwt beam="1">  1        1 0.15531484E-01 0.13795534E+03</pdfrwt>
<pdfrwt beam="2">  1       -1 0.22644950E-01 0.13795534E+03</pdfrwt>
<totfact> 0.55707243E+03</totfact>
</mgrwt>
</event>
<event>
 7    1  0.6387485E-006  0.1573761E+03  0.7546771E-02  0.1201119E+00
         -1   -1    0    0    0  501 -0.00000000000E+00  0.00000000000E+00  0.14572968328E+04  0.14572968328E+04  0.00000000000E+00 0.  1.
          1   -1    0    0  501    0  0.00000000000E+00 -0.00000000000E+00 -0.19957352318E+02  0.19957352318E+02  0.00000000000E+00 0. -1.
         23    2    1    2    0    0 -0.45869544680E+02  0.83893117939E+02  0.11731322085E+04  0.11836411621E+04  0.12500060652E+03 0.  0.
          5    1    3    3  502    0 -0.67440750282E+02  0.48133623920E+02  0.36074739705E+03  0.37017006231E+03  0.47000000000E+01 0. -1.
         -5    1    3    3    0  502  0.21571205602E+02  0.35759494019E+02  0.81238481142E+03  0.81347109977E+03  0.47000000000E+01 0. -1.
        -11    1    1    2    0    0  0.24737873431E+02 -0.33238641190E+02  0.21789371441E+03  0.22179819754E+03  0.00000000000E+00 0.  1.
         11    1    1    2    0    0  0.21131671249E+02 -0.50654476749E+02  0.46313557578E+02  0.71814825489E+02  0.00000000000E+00 0. -1.
<mgrwt>
<rscale>  0 0.14947543E+03</rscale>
<asrwt>0</asrwt>
<pdfrwt beam="2">  1        1 0.30703630E-02 0.15737605E+03</pdfrwt>
<pdfrwt beam="1">  1       -1 0.22419943E+00 0.15737605E+03</pdfrwt>
<totfact> 0.38166266E+02</totfact>
</mgrwt>
</event>
<event>
 7    1  0.6387485E-006  0.1472756E+03  0.7546771E-02  0.1213163E+00
          2   -1    0    0  501    0  0.00000000000E+00  0.00000000000E+00  0.49320456557E+03  0.49320456557E+03  0.00000000000E+00 0. -1.
         -2   -1    0    0    0  501 -0.00000000000E+00 -0.00000000000E+00 -0.54725968689E+02  0.54725968689E+02  0.00000000000E+00 0.  1.
         23    2    1    2    0    0  0.25434449832E+02  0.73607579339E+02  0.75672950443E+02  0.16557924788E+03  0.12500041970E+03 0.  0.
          5    1    3    3  502    0  0.68325771613E+02  0.52793776530E+02  0.79574170535E+02  0.11751481831E+03  0.47000000000E+01 0.  1.
         -5    1    3    3    0  502 -0.42891321781E+02  0.20813802809E+02 -0.39012200916E+01  0.48064429568E+02  0.47000000000E+01 0.  1.
        -11    1    1    2    0    0  0.26194083801E+02 -0.46638081723E+02  0.10260864243E+03  0.11571419184E+03  0.00000000000E+00 0.  1.
         11    1    1    2    0    0 -0.51628533633E+02 -0.26969497617E+02  0.26019700401E+03  0.26663709454E+03  0.00000000000E+00 0. -1.
<mgrwt>
<rscale>  0 0.14012326E+03</rscale>
<asrwt>0</asrwt>
<pdfrwt beam="1">  1        2 0.75877623E-01 0.14727556E+03</pdfrwt>
<pdfrwt beam="2">  1       -2 0.84193801E-02 0.14727556E+03</pdfrwt>
<totfact> 0.53339156E+03</totfact>
</mgrwt>
</event>
<event>
 6    1  0.6387485E-006  0.7284601E+03  0.7546771E-02  0.1014905E+00
         -2   -1    0    0    0  501 -0.00000000000E+00  0.00000000000E+00  0.10755431329E+03  0.10755431329E+03  0.00000000000E+00 0.  1.
          2   -1    0    0  501    0  0.00000000000E+00 -0.00000000000E+00 -0.18780359593E+04  0.18780359593E+04  0.00000000000E+00 0. -1.
          5    1    1    2  502    0  0.13181280344E+03 -0.37856419921E+03 -0.69021983619E+03  0.79819232040E+03  0.47000000000E+01 0. -1.
         -5    1    1    2    0  502 -0.18967448072E+03  0.26640077731E+03 -0.61412340709E+03  0.69578404115E+03  0.47000000000E+01 0.  1.
        -11    1    1    2    0    0  0.54753200532E+02  0.98632668141E+02 -0.46406103079E+03  0.47757612638E+03  0.00000000000E+00 0. -1.
         11    1    1    2    0    0  0.31084767428E+01  0.13530753760E+02 -0.20773719782E+01  0.14037784701E+02  0.00000000000E+00 0.  1.
<mgrwt>
<rscale>  0 0.49570845E+03</rscale>
<asrwt>0</asrwt>
<pdfrwt beam="2">  1        2 0.28892859E+00 0.72846007E+03</pdfrwt>
<pdfrwt beam="1">  1       -2 0.16546818E-01 0.72846007E+03</pdfrwt>
<totfact> 0.23676480E+02</totfact>
</mgrwt>
</event>
<event>
 7    1  0.6387485E-006  0.1291628E+03  0.7546771E-02  0.1260839E+00
         -2   -1    0    0    0  501 -0.00000000000E+00  0.00000000000E+00  0.70663162291E+03  0.70663162291E+03  0.00000000000E+00 0.  1.
          2   -1    0    0  501    0  0.00000000000E+00 -0.00000000000E+00 -0.13696386270E+02  0.13696386270E+02  0.00000000000E+00 0. -1.
         23    2    1    2    0    0  0.27490576434E+02 -0.17379263361E+02  0.45217973669E+03  0.47026540075E+03  0.12500104911E+03 0.  0.
          5    1    3    3  502    0  0.17287596181E+02  0.23452360041E+02  0.19174301681E+02  0.35194005430E+02  0.47000000000E+01 0.  1.
         -5    1    3    3    0  502  0.10202980253E+02 -0.40831623402E+02  0.43300543501E+03  0.43507139532E+03  0.47000000000E+01 0.  1.
        -11    1    1    2    0    0  0.11225419610E+01  0.29096206569E+02  0.17493371095E+03  0.17734049894E+03  0.00000000000E+00 0.  1.
         11    1    1    2    0    0 -0.28613118395E+02 -0.11716943208E+02  0.65821789006E+02  0.72722109502E+02  0.00000000000E+00 0. -1.
<mgrwt>
<rscale>  0 0.10985506E+03</rscale>
<asrwt>0</asrwt>
<pdfrwt beam="2">  1        2 0.21071369E-02 0.12916282E+03</pdfrwt>
<pdfrwt beam="1">  1       -2 0.10871253E+00 0.12916282E+03</pdfrwt>
<totfact> 0.33946607E+03</totfact>
</mgrwt>
</event>
<event>
 7    1  0.6387485E-006  0.1684478E+03  0.7546771E-02  0.1186028E+00
         -2   -1    0    0    0  501 -0.00000000000E+00  0.00000000000E+00  0.70780245185E+02  0.70780245185E+02  0.00000000000E+00 0.  1.
          2   -1    0    0  501    0  0.00000000000E+00 -0.00000000000E+00 -0.37309518111E+03  0.37309518111E+03  0.00000000000E+00 0. -1.
         23    2    1    2    0    0  0.11005746726E+02 -0.11237917201E+03 -0.10416008341E+03  0.19805045487E+03  0.12499781972E+03 0.  0.
          5    1    3    3  502    0  0.18891291560E+02 -0.13878634595E+03 -0.91423264416E+02  0.16732852116E+03  0.47000000000E+01 0.  1.
         -5    1    3    3    0  502 -0.78855448346E+01  0.26407173936E+02 -0.12736818997E+02  0.30721933708E+02  0.47000000000E+01 0.  1.
        -11    1    1    2    0    0  0.92262297021E+01  0.26059564614E+02  0.11725635626E+01  0.27669462006E+02  0.00000000000E+00 0.  1.
         11    1    1    2    0    0 -0.20231976428E+02  0.86319607395E+02 -0.19932741607E+03  0.21815550942E+03  0.00000000000E+00 0. -1.
<mgrwt>
<rscale>  0 0.16238660E+03</rscale>
<asrwt>0</asrwt>
<pdfrwt beam="2">  1        2 0.57399258E-01 0.16844780E+03</pdfrwt>
<pdfrwt beam="1">  1       -2 0.10889269E-01 0.16844780E+03</pdfrwt>
<totfact> 0.48494543E+03</totfact>
</mgrwt>
</event>
<event>
 7    1  0.6387485E-006  0.2167857E+03  0.7546771E-02  0.1139768E+00
         -1   -1    0    0    0  501 -0.00000000000E+00  0.00000000000E+00  0.17941595862E+03  0.17941595862E+03  0.00000000000E+00 0.  1.
          1   -1    0    0  501    0  0.00000000000E+00 -0.00000000000E+00 -0.25351936807E+03  0.25351936807E+03  0.00000000000E+00 0. -1.
         23    2    1    2    0    0 -0.82978739522E+02 -0.15647839384E+03  0.89797084888E+01  0.21697156042E+03  0.12500025566E+03 0.  0.
          5    1    3    3  502    0 -0.49612960566E+02 -0.13375261456E+03 -0.44764587544E+02  0.14958999317E+03  0.47000000000E+01 0.  1.
         -5    1    3    3    0  502 -0.33365778956E+02 -0.22725779283E+02  0.53744296033E+02  0.67381567253E+02  0.47000000000E+01 0.  1.
        -11    1    1    2    0    0  0.25902762321E+02  0.11786275884E+03 -0.19578948029E+02  0.12225349984E+03  0.00000000000E+00 0.  1.
         11    1    1    2    0    0  0.57075977202E+02  0.38615635007E+02 -0.63504169912E+02  0.93710266443E+02  0.00000000000E+00 0. -1.
<mgrwt>
<rscale>  0 0.21228683E+03</rscale>
<asrwt>0</asrwt>
<pdfrwt beam="2">  1        1 0.39002980E-01 0.21678566E+03</pdfrwt>
<pdfrwt beam="1">  1       -1 0.27602455E-01 0.21678566E+03</pdfrwt>
<totfact> 0.12734656E+03</totfact>
</mgrwt>
</event>
<event>
 7    1  0.6387485E-006  0.1295915E+03  0.7546771E-02  0.1241840E+00
          2   -1    0    0  501    0  0.00000000000E+00  0.00000000000E+00  0.23210697021E+03  0.23210697021E+03  0.00000000000E+00 0. -1.
         -2   -1    0    0    0  501 -0.00000000000E+00 -0.00000000000E+00 -0.58390008002E+02  0.58390008002E+02  0.00000000000E+00 0.  1.
         23    2    1    2    0    0  0.17224136464E+02  0.29539547386E+02  0.67350492595E+02  0.14604806263E+03  0.12499876803E+03 0.  0.
          5    1    3    3  502    0  0.41045487624E+02  0.70532880989E+02  0.46484890514E+02  0.94034857372E+02  0.47000000000E+01 0. -1.
         -5    1    3    3    0  502 -0.23821351160E+02 -0.40993333603E+02  0.20865602081E+02  0.52013205258E+02  0.47000000000E+01 0. -1.
        -11    1    1    2    0    0  0.15536836699E+02 -0.44335956274E+02  0.20301413280E+02  0.51178293196E+02  0.00000000000E+00 0.  1.
         11    1    1    2    0    0 -0.32760973162E+02  0.14796408888E+02  0.86065056329E+02  0.93270622382E+02  0.00000000000E+00 0. -1.
<mgrwt>
<rscale>  0 0.12076530E+03</rscale>
<asrwt>0</asrwt>
<pdfrwt beam="1">  1        2 0.35708764E-01 0.12959146E+03</pdfrwt>
<pdfrwt beam="2">  1       -2 0.89830783E-02 0.12959146E+03</pdfrwt>
<totfact> 0.10700886E+04</totfact>
</mgrwt>
</event>
<event>
 7    1  0.6387485E-006  0.1279560E+03  0.7546771E-02  0.1243005E+00
          1   -1    0    0  501    0  0.00000000000E+00  0.00000000000E+00  0.69499459747E+03  0.69499459747E+03  0.00000000000E+00 0.  1.
         -1   -1    0    0    0  501 -0.00000000000E+00 -0.00000000000E+00 -0.18929436038E+02  0.18929436038E+02  0.00000000000E+00 0. -1.
         23    2    1    2    0    0  0.21458884763E+02  0.17129760639E+02  0.42984228520E+03  0.44848313615E+03  0.12497528088E+03 0.  0.
          5    1    3    3  502    0  0.41333914422E+01 -0.21738973623E+02  0.38786349476E+03  0.38852264859E+03  0.47000000000E+01 0. -1.
         -5    1    3    3    0  502  0.17325493321E+02  0.38868734263E+02  0.41978790446E+02  0.59960487567E+02  0.47000000000E+01 0. -1.
        -11    1    1    2    0    0 -0.93051112847E+01 -0.48949917630E+02  0.20953820709E+03  0.21538091783E+03  0.00000000000E+00 0.  1.
         11    1    1    2    0    0 -0.12153773478E+02  0.31820156991E+02  0.36684669136E+02  0.50059979528E+02  0.00000000000E+00 0. -1.
<mgrwt>
<rscale>  0 0.12005551E+03</rscale>
<asrwt>0</asrwt>
<pdfrwt beam="1">  1        1 0.10692223E+00 0.12795598E+03</pdfrwt>
<pdfrwt beam="2">  1       -1 0.29122215E-02 0.12795598E+03</pdfrwt>
<totfact> 0.10699825E+04</totfact>
</mgrwt>
</event>
<event>
 7    1  0.6387485E-006  0.1368071E+03  0.7546771E-02  0.1229716E+00
          1   -1    0    0  501    0  0.00000000000E+00  0.00000000000E+00  0.22018120923E+03  0.22018120923E+03  0.00000000000E+00 0. -1.
         -1   -1    0    0    0  501 -0.00000000000E+00 -0.00000000000E+00 -0.68531278214E+02  0.68531278214E+02  0.00000000000E+00 0.  1.
         23    2    1    2    0    0  0.47971961692E+02  0.28029264704E+02  0.65033726154E+02  0.15147794531E+03  0.12501693322E+03 0.  0.
          5    1    3    3  502    0 -0.32408812598E+02 -0.10637277178E+02  0.50290299231E+02  0.60948232103E+02  0.47000000000E+01 0. -1.
         -5    1    3    3    0  502  0.80380774290E+02  0.38666541882E+02  0.14743426923E+02  0.90529713211E+02  0.47000000000E+01 0. -1.
        -11    1    1    2    0    0 -0.41582891018E+02 -0.59017263008E+02  0.73370657941E+02  0.10293409350E+03  0.00000000000E+00 0. -1.
         11    1    1    2    0    0 -0.63890706741E+01  0.30987998304E+02  0.13245546924E+02  0.34300448631E+02  0.00000000000E+00 0.  1.
<mgrwt>
<rscale>  0 0.12848865E+03</rscale>
<asrwt>0</asrwt>
<pdfrwt beam="1">  1        1 0.33874032E-01 0.13680710E+03</pdfrwt>
<pdfrwt beam="2">  1       -1 0.10543274E-01 0.13680710E+03</pdfrwt>
<totfact> 0.69253868E+03</totfact>
</mgrwt>
</event>
<event>
 7    1  0.6387485E-006  0.1463183E+03  0.7546771E-02  0.1215712E+00
         -1   -1    0    0    0  501 -0.00000000000E+00  0.00000000000E+00  0.34029469959E+02  0.34029469959E+02  0.00000000000E+00 0.  1.
          1   -1    0    0  501    0  0.00000000000E+00 -0.00000000000E+00 -0.53758438301E+03  0.53758438301E+03  0.00000000000E+00 0. -1.
         23    2    1    2    0    0 -0.75972251006E+02  0.36055459728E+01 -0.21182582420E+03  0.25744750319E+03  0.12499701683E+03 0.  0.
          5    1    3    3  502    0  0.34076139958E+02  0.81337581680E+01 -0.40943905258E+02  0.54090985517E+02  0.47000000000E+01 0.  1.
         -5    1    3    3    0  502 -0.11004839096E+03 -0.45282121952E+01 -0.17088191894E+03  0.20335651768E+03  0.47000000000E+01 0.  1.
        -11    1    1    2    0    0  0.18965520725E+02  0.38365060300E+02 -0.14616477301E+03  0.15230137786E+03  0.00000000000E+00 0. -1.
         11    1    1    2    0    0  0.57006730282E+02 -0.41970606273E+02 -0.14556431583E+03  0.16186497191E+03  0.00000000000E+00 0.  1.
<mgrwt>
<rscale>  0 0.13824355E+03</rscale>
<asrwt>0</asrwt>
<pdfrwt beam="2">  1        1 0.82705291E-01 0.14631827E+03</pdfrwt>
<pdfrwt beam="1">  1       -1 0.52353030E-02 0.14631827E+03</pdfrwt>
<totfact> 0.64863667E+03</totfact>
</mgrwt>
</event>
<event>
 6    1  0.6387485E-006  0.2865508E+03  0.7546771E-02  0.1128619E+00
         -1   -1    0    0    0  501 -0.00000000000E+00  0.00000000000E+00  0.28184978894E+03  0.28184978894E+03  0.00000000000E+00 0.  1.
          1   -1    0    0  501    0  0.00000000000E+00 -0.00000000000E+00 -0.16226507235E+03  0.16226507235E+03  0.00000000000E+00 0. -1.
          5    1    1    2  502    0 -0.56265626224E+02  0.67275410891E+02  0.19795646588E+03  0.21656558819E+03  0.47000000000E+01 0. -1.
         -5    1    1    2    0  502  0.51090950172E+01 -0.99751148920E+02 -0.43405217863E+02  0.10900686905E+03  0.47000000000E+01 0.  1.
        -11    1    1    2    0    0  0.79166756442E+02  0.17208319221E+02 -0.20835217116E+02  0.83651705590E+02  0.00000000000E+00 0.  1.
         11    1    1    2    0    0 -0.28010225235E+02  0.15267418808E+02 -0.14131314311E+02  0.34890698459E+02  0.00000000000E+00 0. -1.
<mgrwt>
<rscale>  0 0.22721029E+03</rscale>
<asrwt>0</asrwt>
<pdfrwt beam="2">  1        1 0.24963857E-01 0.28655076E+03</pdfrwt>
<pdfrwt beam="1">  1       -1 0.43361506E-01 0.28655076E+03</pdfrwt>
<totfact> 0.10242908E+03</totfact>
</mgrwt>
</event>
<event>
 6    1  0.6387485E-006  0.1600395E+03  0.7546771E-02  0.1215309E+00
         -2   -1    0    0    0  501 -0.00000000000E+00  0.00000000000E+00  0.93683072428E+02  0.93683072428E+02  0.00000000000E+00 0.  1.
          2   -1    0    0  501    0  0.00000000000E+00 -0.00000000000E+00 -0.17041698435E+03  0.17041698435E+03  0.00000000000E+00 0. -1.
          5    1    1    2  502    0  0.17292942806E+02 -0.13727977269E+02 -0.92416820919E+02  0.95133916242E+02  0.47000000000E+01 0. -1.
         -5    1    1    2    0  502 -0.20050009440E+02  0.16532040454E+02  0.62344006310E+02  0.67706545939E+02  0.47000000000E+01 0.  1.
        -11    1    1    2    0    0  0.21425551792E+02 -0.35699038875E+02 -0.47837082669E+02  0.63418152957E+02  0.00000000000E+00 0.  1.
         11    1    1    2    0    0 -0.18668485158E+02  0.32894975690E+02  0.11759853582E+01  0.37841441639E+02  0.00000000000E+00 0. -1.
<mgrwt>
<rscale>  0 0.13853886E+03</rscale>
<asrwt>0</asrwt>
<pdfrwt beam="2">  1        2 0.26217998E-01 0.16003950E+03</pdfrwt>
<pdfrwt beam="1">  1       -2 0.14412780E-01 0.16003950E+03</pdfrwt>
<totfact> 0.71554313E+03</totfact>
</mgrwt>
</event>
<event>
 7    1  0.7399463E-006  0.2332394E+03  0.7546771E-02  0.1127178E+00
         -3   -1    0    0    0  501 -0.00000000000E+00  0.00000000000E+00  0.31812187191E+02  0.31812187191E+02  0.00000000000E+00 0.  1.
          3   -1    0    0  501    0  0.00000000000E+00 -0.00000000000E+00 -0.15987552777E+04  0.15987552777E+04  0.00000000000E+00 0. -1.
         23    2    1    2    0    0  0.12784424286E+03 -0.14977008476E+03 -0.83277927975E+03  0.86482481506E+03  0.12500161293E+03 0.  0.
          5    1    3    3  502    0  0.13911459137E+03 -0.14462957084E+03 -0.62109528572E+03  0.65272660910E+03  0.47000000000E+01 0. -1.
         -5    1    3    3    0  502 -0.11270348507E+02 -0.51405139228E+01 -0.21168399404E+03  0.21209820596E+03  0.47000000000E+01 0. -1.
        -11    1    1    2    0    0 -0.36517867322E+02  0.10395492932E+03 -0.29650093812E+03  0.31631153673E+03  0.00000000000E+00 0. -1.
         11    1    1    2    0    0 -0.91326375537E+02  0.45815155440E+02 -0.43766287263E+03  0.44943111309E+03  0.00000000000E+00 0.  1.
<mgrwt>
<rscale>  0 0.22923663E+03</rscale>
<asrwt>0</asrwt>
<pdfrwt beam="2">  1        3 0.24596239E+00 0.23323943E+03</pdfrwt>
<pdfrwt beam="1">  1       -3 0.48941819E-02 0.23323943E+03</pdfrwt>
<totfact> 0.51053669E+01</totfact>
</mgrwt>
</event>
<event>
 7    1  0.6387485E-006  0.1531168E+03  0.7546771E-02  0.1205211E+00
         -2   -1    0    0    0  501 -0.00000000000E+00  0.00000000000E+00  0.20759523496E+02  0.20759523496E+02  0.00000000000E+00 0.  1.
          2   -1    0    0  501    0  0.00000000000E+00 -0.00000000000E+00 -0.96034625299E+03  0.96034625299E+03  0.00000000000E+00 0. -1.
         23    2    1    2    0    0  0.86088573654E+02 -0.20186090114E+02 -0.45473354322E+03  0.47982010672E+03  0.12500407487E+03 0.  0.
          5    1    3    3  502    0 -0.20988206913E+02 -0.21512888861E+02 -0.21594796685E+03  0.21808008530E+03  0.47000000000E+01 0. -1.
         -5    1    3    3    0  502  0.10707678057E+03  0.13267987472E+01 -0.23878557637E+03  0.26174002142E+03  0.47000000000E+01 0. -1.
        -11    1    1    2    0    0 -0.30734189218E+02 -0.36735028086E+02 -0.18078019586E+03  0.18701746414E+03  0.00000000000E+00 0.  1.
         11    1    1    2    0    0 -0.55354384436E+02  0.56921118200E+02 -0.30407299041E+03  0.31426820563E+03  0.00000000000E+00 0. -1.
<mgrwt>
<rscale>  0 0.14620835E+03</rscale>
<asrwt>0</asrwt>
<pdfrwt beam="2">  1        2 0.14774559E+00 0.15311675E+03</pdfrwt>
<pdfrwt beam="1">  1       -2 0.31937726E-02 0.15311675E+03</pdfrwt>
<totfact> 0.10392934E+04</totfact>
</mgrwt>
</event>
<event>
 7    1  0.6387485E-006  0.1250262E+03  0.7546771E-02  0.1245169E+00
          1   -1    0    0  501    0  0.00000000000E+00  0.00000000000E+00  0.31060216434E+03  0.31060216434E+03  0.00000000000E+00 0. -1.
         -1   -1    0    0    0  501 -0.00000000000E+00 -0.00000000000E+00 -0.48867872498E+02  0.48867872498E+02  0.00000000000E+00 0.  1.
         23    2    1    2    0    0 -0.17141113365E+01 -0.99860525688E+00  0.72275371683E+02  0.14441359664E+03  0.12501048817E+03 0.  0.
          5    1    3    3  502    0 -0.48580098891E+02 -0.24783192885E+02 -0.23177264267E+00  0.54739166749E+02  0.47000000000E+01 0.  1.
         -5    1    3    3    0  502  0.46865987555E+02  0.23784587628E+02  0.72507144326E+02  0.89674429892E+02  0.47000000000E+01 0.  1.
        -11    1    1    2    0    0  0.39230595618E+02  0.32844797877E+02  0.11418502542E+03  0.12512410004E+03  0.00000000000E+00 0. -1.
         11    1    1    2    0    0 -0.37516484282E+02 -0.31846192620E+02  0.75273894733E+02  0.89932340154E+02  0.00000000000E+00 0.  1.
<mgrwt>
<rscale>  0 0.11875242E+03</rscale>
<asrwt>0</asrwt>
<pdfrwt beam="1">  1        1 0.47784947E-01 0.12502623E+03</pdfrwt>
<pdfrwt beam="2">  1       -1 0.75181344E-02 0.12502623E+03</pdfrwt>
<totfact> 0.75109820E+03</totfact>
</mgrwt>
</event>
<event>
 7    1  0.6387485E-006  0.1898642E+03  0.7546771E-02  0.1162671E+00
          2   -1    0    0  501    0  0.00000000000E+00  0.00000000000E+00  0.30201067564E+03  0.30201067564E+03  0.00000000000E+00 0. -1.
         -2   -1    0    0    0  501 -0.00000000000E+00 -0.00000000000E+00 -0.10889027826E+03  0.10889027826E+03  0.00000000000E+00 0.  1.
         23    2    1    2    0    0 -0.71092153089E+02  0.12397962259E+03  0.10754611603E+03  0.21820769001E+03  0.12499355127E+03 0.  0.
          5    1    3    3  502    0 -0.89638519470E+02  0.31162834432E+02  0.50700828207E+02  0.10769795914E+03  0.47000000000E+01 0.  1.
         -5    1    3    3    0  502  0.18546366382E+02  0.92816788155E+02  0.56845287823E+02  0.11050973087E+03  0.47000000000E+01 0.  1.
        -11    1    1    2    0    0 -0.23649835718E+02 -0.17314838407E+02  0.21214807579E+02  0.36182681205E+02  0.00000000000E+00 0. -1.
         11    1    1    2    0    0  0.94741988807E+02 -0.10666478418E+03  0.64359473771E+02  0.15651058268E+03  0.00000000000E+00 0.  1.
<mgrwt>
<rscale>  0 0.18540588E+03</rscale>
<asrwt>0</asrwt>
<pdfrwt beam="1">  1        2 0.46463180E-01 0.18986424E+03</pdfrwt>
<pdfrwt beam="2">  1       -2 0.16752351E-01 0.18986424E+03</pdfrwt>
<totfact> 0.30337209E+03</totfact>
</mgrwt>
</event>
<event>
 7    1  0.6387485E-006  0.1353075E+03  0.7546771E-02  0.1238214E+00
         -1   -1    0    0    0  501 -0.00000000000E+00  0.00000000000E+00  0.94115174398E+02  0.94115174398E+02  0.00000000000E+00 0.  1.
          1   -1    0    0  501    0  0.00000000000E+00 -0.00000000000E+00 -0.14739092347E+03  0.14739092347E+03  0.00000000000E+00 0. -1.
         23    2    1    2    0    0  0.36180890920E+02  0.37125139923E+02 -0.97545934951E+00  0.13531102042E+03  0.12498315024E+03 0.  0.
          5    1    3    3  502    0  0.20838360012E+00  0.64664378400E+02  0.38184601931E+02  0.75244129885E+02  0.47000000000E+01 0. -1.
         -5    1    3    3    0  502  0.35972507320E+02 -0.27539238477E+02 -0.39160061280E+02  0.60066890533E+02  0.47000000000E+01 0. -1.
        -11    1    1    2    0    0 -0.20194430709E+02 -0.15250382862E+02  0.17867576776E+02  0.30978048824E+02  0.00000000000E+00 0.  1.
         11    1    1    2    0    0 -0.15986460211E+02 -0.21874757061E+02 -0.70167866501E+02  0.75217028630E+02  0.00000000000E+00 0. -1.
<mgrwt>
<rscale>  0 0.12300898E+03</rscale>
<asrwt>0</asrwt>
<pdfrwt beam="2">  1        1 0.22675527E-01 0.13530750E+03</pdfrwt>
<pdfrwt beam="1">  1       -1 0.14479258E-01 0.13530750E+03</pdfrwt>
<totfact> 0.69955912E+03</totfact>
</mgrwt>
</event>
<event>
 7    1  0.6387485E-006  0.2072590E+03  0.7546771E-02  0.1147643E+00
          1   -1    0    0  501    0  0.00000000000E+00  0.00000000000E+00  0.18336615107E+03  0.18336615107E+03  0.00000000000E+00 0. -1.
         -1   -1    0    0    0  501 -0.00000000000E+00 -0.00000000000E+00 -0.22613080407E+03  0.22613080407E+03  0.00000000000E+00 0.  1.
         23    2    1    2    0    0  0.13229283187E+03  0.99147130282E+02 -0.69773210782E+02  0.21868832408E+03  0.12499894135E+03 0.  0.
          5    1    3    3  502    0 -0.51681241253E+01  0.17653060166E+02 -0.54942886885E+02  0.58130464126E+02  0.47000000000E+01 0. -1.
         -5    1    3    3    0  502  0.13746095599E+03  0.81494070115E+02 -0.14830323897E+02  0.16055785995E+03  0.47000000000E+01 0. -1.
        -11    1    1    2    0    0 -0.11772395356E+03 -0.93693281182E+02  0.53834627360E+02  0.15979839575E+03  0.00000000000E+00 0. -1.
         11    1    1    2    0    0 -0.14568878307E+02 -0.54538490992E+01 -0.26826069575E+02  0.31010235310E+02  0.00000000000E+00 0.  1.
<mgrwt>
<rscale>  0 0.20250502E+03</rscale>
<asrwt>0</asrwt>
<pdfrwt beam="1">  1        1 0.28210177E-01 0.20725897E+03</pdfrwt>
<pdfrwt beam="2">  1       -1 0.34789354E-01 0.20725897E+03</pdfrwt>
<totfact> 0.12883035E+03</totfact>
</mgrwt>
</event>
<event>
 7    1  0.6387485E-006  0.7857200E+03  0.7546771E-02  0.9580920E-01
          2   -1    0    0  501    0  0.00000000000E+00  0.00000000000E+00  0.15478652197E+04  0.15478652197E+04  0.00000000000E+00 0.  1.
         -2   -1    0    0    0  501 -0.00000000000E+00 -0.00000000000E+00 -0.99710867308E+02  0.99710867308E+02  0.00000000000E+00 0. -1.
         23    2    1    2    0    0 -0.24465366434E+03  0.14590756587E+03  0.39715636874E+03  0.50448302374E+03  0.12500202701E+03 0.  0.
          5    1    3    3  502    0 -0.20102460643E+03  0.75411386264E+02  0.34513775626E+03  0.40649714681E+03  0.47000000000E+01 0. -1.
         -5    1    3    3    0  502 -0.43629057915E+02  0.70496179607E+02  0.52018612478E+02  0.97985876931E+02  0.47000000000E+01 0. -1.
        -11    1    1    2    0    0 -0.67453084946E+02 -0.11831406201E+03  0.31749750383E+03  0.34547474709E+03  0.00000000000E+00 0. -1.
         11    1    1    2    0    0  0.31210674929E+03 -0.27593503858E+02  0.73350047983E+03  0.79761831619E+03  0.00000000000E+00 0.  1.
<mgrwt>
<rscale>  0 0.78572001E+03</rscale>
<asrwt>0</asrwt>
<pdfrwt beam="1">  1        2 0.23813309E+00 0.78572001E+03</pdfrwt>
<pdfrwt beam="2">  1       -2 0.15340135E-01 0.78572001E+03</pdfrwt>
<totfact> 0.40690726E+02</totfact>
</mgrwt>
</event>
<event>
 7    1  0.6387485E-006  0.2457361E+03  0.7546771E-02  0.1118702E+00
         -1   -1    0    0    0  501 -0.00000000000E+00  0.00000000000E+00  0.14506539308E+03  0.14506539308E+03  0.00000000000E+00 0.  1.
          1   -1    0    0  501    0  0.00000000000E+00 -0.00000000000E+00 -0.40143913025E+03  0.40143913025E+03  0.00000000000E+00 0. -1.
         23    2    1    2    0    0  0.65939548473E+02 -0.20102779135E+03 -0.17912169197E+03  0.30409011226E+03  0.12500407550E+03 0.  0.
          5    1    3    3  502    0  0.36620783311E+02  0.46625214896E+01 -0.35807019961E+02  0.51643523848E+02  0.47000000000E+01 0.  1.
         -5    1    3    3    0  502  0.29318765162E+02 -0.20569031284E+03 -0.14331467201E+03  0.25244658841E+03  0.47000000000E+01 0.  1.
        -11    1    1    2    0    0 -0.11260348203E+02  0.16110257760E+03 -0.46523157557E+02  0.16806320281E+03  0.00000000000E+00 0.  1.
         11    1    1    2    0    0 -0.54679200270E+02  0.39925213750E+02 -0.30728887643E+02  0.74351208268E+02  0.00000000000E+00 0. -1.
<mgrwt>
<rscale>  0 0.24164494E+03</rscale>
<asrwt>0</asrwt>
<pdfrwt beam="2">  1        1 0.61759866E-01 0.24573607E+03</pdfrwt>
<pdfrwt beam="1">  1       -1 0.22317753E-01 0.24573607E+03</pdfrwt>
<totfact> 0.10157655E+03</totfact>
</mgrwt>
</event>
<event>
 7    1  0.6387485E-006  0.1271640E+03  0.7546771E-02  0.1247407E+00
         -3   -1    0    0    0  501 -0.00000000000E+00  0.00000000000E+00  0.90682076627E+02  0.90682076627E+02  0.00000000000E+00 0.  1.
          3   -1    0    0  501    0  0.00000000000E+00 -0.00000000000E+00 -0.19851394681E+03  0.19851394681E+03  0.00000000000E+00 0. -1.
         23    2    1    2    0    0 -0.21284058755E+02  0.95129672105E+01  0.22762602651E+02  0.12918523068E+03  0.12500871987E+03 0.  0.
          5    1    3    3  502    0 -0.45978989198E+02  0.38549400056E+02 -0.27300439610E+02  0.66087273323E+02  0.47000000000E+01 0. -1.
         -5    1    3    3    0  502  0.24694930443E+02 -0.29036432846E+02  0.50063042261E+02  0.63097957355E+02  0.47000000000E+01 0. -1.
        -11    1    1    2    0    0 -0.48472863065E+01 -0.41107691639E+02 -0.29243463612E+02  0.50680555053E+02  0.00000000000E+00 0.  1.
         11    1    1    2    0    0  0.26131345062E+02  0.31594724429E+02 -0.10135100922E+03  0.10933023770E+03  0.00000000000E+00 0. -1.
<mgrwt>
<rscale>  0 0.11742475E+03</rscale>
<asrwt>0</asrwt>
<pdfrwt beam="2">  1        3 0.30540607E-01 0.12716402E+03</pdfrwt>
<pdfrwt beam="1">  1       -3 0.13951089E-01 0.12716402E+03</pdfrwt>
<totfact> 0.99634562E+02</totfact>
</mgrwt>
</event>
<event>
 7    1  0.6387485E-006  0.1140549E+03  0.7546771E-02  0.1262623E+00
          2   -1    0    0  501    0  0.00000000000E+00  0.00000000000E+00  0.27494421794E+03  0.27494421794E+03  0.00000000000E+00 0. -1.
         -2   -1    0    0    0  501 -0.00000000000E+00 -0.00000000000E+00 -0.42591602386E+02  0.42591602386E+02  0.00000000000E+00 0.  1.
         23    2    1    2    0    0  0.16151480223E+02 -0.18624924652E+02  0.84652813019E+02  0.14203735729E+03  0.11135867269E+03 0.  0.
          5    1    3    3  502    0  0.14444104386E+02 -0.11986592139E+02  0.11189497128E+03  0.11355564777E+03  0.47000000000E+01 0. -1.
         -5    1    3    3    0  502  0.17073758372E+01 -0.66383325127E+01 -0.27242158260E+02  0.28481709525E+02  0.47000000000E+01 0.  1.
        -11    1    1    2    0    0 -0.44148301688E+02  0.38541784379E+02  0.10893493204E+03  0.12369867058E+03  0.00000000000E+00 0.  1.
         11    1    1    2    0    0  0.27996821466E+02 -0.19916859727E+02  0.38764870499E+02  0.51799792455E+02  0.00000000000E+00 0. -1.
<mgrwt>
<rscale>  0 0.10889852E+03</rscale>
<asrwt>0</asrwt>
<pdfrwt beam="1">  1        2 0.42299109E-01 0.11405486E+03</pdfrwt>
<pdfrwt beam="2">  1       -2 0.65525544E-02 0.11405486E+03</pdfrwt>
<totfact> 0.14358884E+04</totfact>
</mgrwt>
</event>
<event>
 7    1  0.6387485E-006  0.1327487E+03  0.7546771E-02  0.1237340E+00
         -2   -1    0    0    0  501 -0.00000000000E+00  0.00000000000E+00  0.17018021975E+03  0.17018021975E+03  0.00000000000E+00 0.  1.
          2   -1    0    0  501    0  0.00000000000E+00 -0.00000000000E+00 -0.80066262183E+02  0.80066262183E+02  0.00000000000E+00 0. -1.
         23    2    1    2    0    0  0.43882224038E+02  0.83789040209E+01  0.63316650466E+02  0.14707558648E+03  0.12500549705E+03 0.  0.
          5    1    3    3  502    0  0.18184852873E+02  0.24671083956E+02  0.96766998772E+02  0.10161345043E+03  0.47000000000E+01 0.  1.
         -5    1    3    3    0  502  0.25697371165E+02 -0.16292179935E+02 -0.33450348306E+02  0.45462136043E+02  0.47000000000E+01 0.  1.
        -11    1    1    2    0    0  0.13625980171E+02  0.23839564558E+01  0.40741203505E+02  0.43025530178E+02  0.00000000000E+00 0.  1.
         11    1    1    2    0    0 -0.57508204209E+02 -0.10762860477E+02 -0.13943896407E+02  0.60145365275E+02  0.00000000000E+00 0. -1.
<mgrwt>
<rscale>  0 0.12355786E+03</rscale>
<asrwt>0</asrwt>
<pdfrwt beam="2">  1        2 0.12317887E-01 0.13274875E+03</pdfrwt>
<pdfrwt beam="1">  1       -2 0.26181572E-01 0.13274875E+03</pdfrwt>
<totfact> 0.61302866E+03</totfact>
</mgrwt>
</event>
<event>
 7    1  0.6387485E-006  0.1630358E+03  0.7546771E-02  0.1192404E+00
          2   -1    0    0  501    0  0.00000000000E+00  0.00000000000E+00  0.10997324642E+04  0.10997324642E+04  0.00000000000E+00 0. -1.
         -2   -1    0    0    0  501 -0.00000000000E+00 -0.00000000000E+00 -0.21325567650E+02  0.21325567650E+02  0.00000000000E+00 0.  1.
         23    2    1    2    0    0 -0.57169956728E+01 -0.61396044081E+02  0.40909716649E+03  0.43217764762E+03  0.12495947024E+03 0.  0.
          5    1    3    3  502    0  0.15624701810E+02  0.20302602185E+02  0.25560830666E+03  0.25693194312E+03  0.47000000000E+01 0.  1.
         -5    1    3    3    0  502 -0.21341697483E+02 -0.81698646266E+02  0.15348885983E+03  0.17524570450E+03  0.47000000000E+01 0.  1.
        -11    1    1    2    0    0  0.11836120888E+02 -0.45601772920E+02  0.11449390342E+03  0.12380819589E+03  0.00000000000E+00 0.  1.
         11    1    1    2    0    0 -0.61191252155E+01  0.10699781700E+03  0.55481582660E+03  0.56507218830E+03  0.00000000000E+00 0. -1.
<mgrwt>
<rscale>  0 0.15675993E+03</rscale>
<asrwt>0</asrwt>
<pdfrwt beam="1">  1        2 0.16918957E+00 0.16303579E+03</pdfrwt>
<pdfrwt beam="2">  1       -2 0.32808574E-02 0.16303579E+03</pdfrwt>
<totfact> 0.82803513E+03</totfact>
</mgrwt>
</event>
<event>
 7    1  0.6387485E-006  0.1263597E+03  0.7546771E-02  0.1247856E+00
         -1   -1    0    0    0  501 -0.00000000000E+00  0.00000000000E+00  0.59983088237E+02  0.59983088237E+02  0.00000000000E+00 0.  1.
          1   -1    0    0  501    0  0.00000000000E+00 -0.00000000000E+00 -0.21082098225E+03  0.21082098225E+03  0.00000000000E+00 0. -1.
         23    2    1    2    0    0 -0.18429106230E+02 -0.32191131313E+01 -0.57704801840E+02  0.13891225606E+03  0.12496710000E+03 0.  0.
          5    1    3    3  502    0  0.19891339491E+02 -0.56395487798E+02 -0.20463149827E+02  0.63379388855E+02  0.47000000000E+01 0. -1.
         -5    1    3    3    0  502 -0.38320445721E+02  0.53176374667E+02 -0.37241652013E+02  0.75532867201E+02  0.47000000000E+01 0. -1.
        -11    1    1    2    0    0 -0.18964672353E+02  0.12449520173E+02  0.76967156529E+01  0.23955975910E+02  0.00000000000E+00 0.  1.
         11    1    1    2    0    0  0.37393778583E+02 -0.92304070412E+01 -0.10082980782E+03  0.10793583852E+03  0.00000000000E+00 0. -1.
<mgrwt>
<rscale>  0 0.11716055E+03</rscale>
<asrwt>0</asrwt>
<pdfrwt beam="2">  1        1 0.32433997E-01 0.12635969E+03</pdfrwt>
<pdfrwt beam="1">  1       -1 0.92281675E-02 0.12635969E+03</pdfrwt>
<totfact> 0.89018698E+03</totfact>
</mgrwt>
</event>
<event>
 7    1  0.6387485E-006  0.1259795E+03  0.7546771E-02  0.1248307E+00
         -1   -1    0    0    0  501 -0.00000000000E+00  0.00000000000E+00  0.33161425688E+02  0.33161425688E+02  0.00000000000E+00 0.  1.
          1   -1    0    0  501    0  0.00000000000E+00 -0.00000000000E+00 -0.67483608292E+03  0.67483608292E+03  0.00000000000E+00 0. -1.
         23    2    1    2    0    0 -0.15314826515E+02 -0.34965894917E+01 -0.10717495818E+03  0.16540041448E+03  0.12499622154E+03 0.  0.
          5    1    3    3  502    0 -0.23517278346E+02 -0.30528299402E+02  0.13708653630E+02  0.41171065441E+02  0.47000000000E+01 0. -1.
         -5    1    3    3    0  502  0.82024518307E+01  0.27031709911E+02 -0.12088361181E+03  0.12422934903E+03  0.47000000000E+01 0. -1.
        -11    1    1    2    0    0  0.54271549987E+02  0.41251354599E+01 -0.31173723551E+03  0.31645303267E+03  0.00000000000E+00 0.  1.
         11    1    1    2    0    0 -0.38956723472E+02 -0.62854596822E+00 -0.22276246353E+03  0.22614406146E+03  0.00000000000E+00 0. -1.
<mgrwt>
<rscale>  0 0.11689605E+03</rscale>
<asrwt>0</asrwt>
<pdfrwt beam="2">  1        1 0.10382094E+00 0.12597946E+03</pdfrwt>
<pdfrwt beam="1">  1       -1 0.51017578E-02 0.12597946E+03</pdfrwt>
<totfact> 0.49033175E+03</totfact>
</mgrwt>
</event>
<event>
 7    1  0.6387485E-006  0.1311836E+03  0.7546771E-02  0.1240070E+00
          2   -1    0    0  501    0  0.00000000000E+00  0.00000000000E+00  0.38269586100E+03  0.38269586100E+03  0.00000000000E+00 0.  1.
         -2   -1    0    0    0  501 -0.00000000000E+00 -0.00000000000E+00 -0.39154992170E+02  0.39154992170E+02  0.00000000000E+00 0. -1.
         23    2    1    2    0    0  0.35115255795E+02 -0.18735729532E+02  0.11951091267E+03  0.17745985758E+03  0.12500013622E+03 0.  0.
          5    1    3    3  502    0  0.67465619161E+02 -0.92992179232E+01  0.18289754380E+02  0.70673123166E+02  0.47000000000E+01 0. -1.
         -5    1    3    3    0  502 -0.32350363365E+02 -0.94365116086E+01  0.10122115829E+03  0.10678673441E+03  0.47000000000E+01 0. -1.
        -11    1    1    2    0    0 -0.28268708755E+02 -0.30636717154E+02  0.14570366712E+03  0.15154961875E+03  0.00000000000E+00 0.  1.
         11    1    1    2    0    0 -0.68465470408E+01  0.49372446686E+02  0.78326289044E+02  0.92841376840E+02  0.00000000000E+00 0. -1.
<mgrwt>
<rscale>  0 0.12185385E+03</rscale>
<asrwt>0</asrwt>
<pdfrwt beam="1">  1        2 0.58876284E-01 0.13118362E+03</pdfrwt>
<pdfrwt beam="2">  1       -2 0.60238452E-02 0.13118362E+03</pdfrwt>
<totfact> 0.11634242E+04</totfact>
</mgrwt>
</event>
<event>
 7    1  0.6387485E-006  0.2342732E+03  0.7546771E-02  0.1126780E+00
          2   -1    0    0  501    0  0.00000000000E+00  0.00000000000E+00  0.85256046423E+02  0.85256046423E+02  0.00000000000E+00 0. -1.
         -2   -1    0    0    0  501 -0.00000000000E+00 -0.00000000000E+00 -0.60170218344E+03  0.60170218344E+03  0.00000000000E+00 0.  1.
         23    2    1    2    0    0 -0.19445859169E+03 -0.38006097639E+02 -0.29885070567E+03  0.37973108657E+03  0.12500138594E+03 0.  0.
          5    1    3    3  502    0 -0.10455871953E+03  0.37860366740E+02 -0.10548569786E+03  0.15334684755E+03  0.47000000000E+01 0.  1.
         -5    1    3    3    0  502 -0.89899872163E+02 -0.75866464379E+02 -0.19336500781E+03  0.22638423902E+03  0.47000000000E+01 0.  1.
        -11    1    1    2    0    0  0.48077462103E+02 -0.11482063429E+02 -0.10494482481E+03  0.11600300167E+03  0.00000000000E+00 0.  1.
         11    1    1    2    0    0  0.14638112959E+03  0.49488161068E+02 -0.11265060654E+03  0.19122414163E+03  0.00000000000E+00 0. -1.
<mgrwt>
<rscale>  0 0.22980067E+03</rscale>
<asrwt>0</asrwt>
<pdfrwt beam="1">  1        2 0.13116315E-01 0.23427325E+03</pdfrwt>
<pdfrwt beam="2">  1       -2 0.92569565E-01 0.23427325E+03</pdfrwt>
<totfact> 0.46945696E+02</totfact>
</mgrwt>
</event>
<event>
 7    1  0.6387485E-006  0.1319694E+03  0.7546771E-02  0.1237646E+00
         -2   -1    0    0    0  501 -0.00000000000E+00  0.00000000000E+00  0.10283419516E+03  0.10283419516E+03  0.00000000000E+00 0.  1.
          2   -1    0    0  501    0  0.00000000000E+00 -0.00000000000E+00 -0.15244782632E+03  0.15244782632E+03  0.00000000000E+00 0. -1.
         23    2    1    2    0    0  0.39722579234E+02  0.14094783310E+02  0.19051553158E+02  0.13333752690E+03  0.12505753949E+03 0.  0.
          5    1    3    3  502    0  0.41945272694E+01 -0.21307862910E+02 -0.45985775842E+02  0.51072503958E+02  0.47000000000E+01 0. -1.
         -5    1    3    3    0  502  0.35528051964E+02  0.35402646220E+02  0.65037329000E+02  0.82265022940E+02  0.47000000000E+01 0. -1.
        -11    1    1    2    0    0  0.25599229487E+02  0.12383565775E+02 -0.30849004774E+02  0.41956338582E+02  0.00000000000E+00 0. -1.
         11    1    1    2    0    0 -0.65321808721E+02 -0.26478349085E+02 -0.37816179546E+02  0.79988156000E+02  0.00000000000E+00 0.  1.
<mgrwt>
<rscale>  0 0.12336529E+03</rscale>
<asrwt>0</asrwt>
<pdfrwt beam="2">  1        2 0.23453512E-01 0.13196944E+03</pdfrwt>
<pdfrwt beam="1">  1       -2 0.15820645E-01 0.13196944E+03</pdfrwt>
<totfact> 0.68566904E+03</totfact>
</mgrwt>
</event>
<event>
 7    1  0.6387485E-006  0.1383080E+03  0.7546771E-02  0.1226762E+00
          2   -1    0    0  501    0  0.00000000000E+00  0.00000000000E+00  0.30375612817E+03  0.30375612817E+03  0.00000000000E+00 0. -1.
         -2   -1    0    0    0  501 -0.00000000000E+00 -0.00000000000E+00 -0.50585493895E+02  0.50585493895E+02  0.00000000000E+00 0.  1.
         23    2    1    2    0    0  0.57314010921E+02 -0.14794242902E+02  0.13652999072E+03  0.19434384820E+03  0.12500130998E+03 0.  0.
          5    1    3    3  502    0  0.75248838976E+02 -0.49600370857E+02  0.12319440357E+03  0.15271390123E+03  0.47000000000E+01 0. -1.
         -5    1    3    3    0  502 -0.17934828055E+02  0.34806127955E+02  0.13335587146E+02  0.41629946974E+02  0.47000000000E+01 0. -1.
        -11    1    1    2    0    0 -0.58009764899E+01  0.35046472950E+02  0.56485744971E+01  0.35969612012E+02  0.00000000000E+00 0.  1.
         11    1    1    2    0    0 -0.51513034431E+02 -0.20252230048E+02  0.11099206906E+03  0.12402816185E+03  0.00000000000E+00 0. -1.
<mgrwt>
<rscale>  0 0.13046891E+03</rscale>
<asrwt>0</asrwt>
<pdfrwt beam="1">  1        2 0.46731711E-01 0.13830796E+03</pdfrwt>
<pdfrwt beam="2">  1       -2 0.77823839E-02 0.13830796E+03</pdfrwt>
<totfact> 0.10091437E+04</totfact>
</mgrwt>
</event>
<event>
 7    1  0.6387485E-006  0.1373537E+03  0.7546771E-02  0.1229158E+00
         -3   -1    0    0    0  501 -0.00000000000E+00  0.00000000000E+00  0.88036628923E+03  0.88036628923E+03  0.00000000000E+00 0.  1.
          3   -1    0    0  501    0  0.00000000000E+00 -0.00000000000E+00 -0.16875295298E+02  0.16875295298E+02  0.00000000000E+00 0. -1.
         23    2    1    2    0    0  0.11385002079E+02  0.55844445286E+02  0.48084423626E+03  0.50007721226E+03  0.12497127003E+03 0.  0.
          5    1    3    3  502    0 -0.53191964715E+02  0.32818443395E+01  0.20814417435E+03  0.21490984837E+03  0.47000000000E+01 0.  1.
         -5    1    3    3    0  502  0.64576966794E+02  0.52562600946E+02  0.27270006191E+03  0.28516736389E+03  0.47000000000E+01 0.  1.
        -11    1    1    2    0    0 -0.15745751369E+01 -0.79527684515E+02  0.31302037482E+03  0.32296886374E+03  0.00000000000E+00 0.  1.
         11    1    1    2    0    0 -0.98104269420E+01  0.23683239230E+02  0.69626382843E+02  0.74195508523E+02  0.00000000000E+00 0. -1.
<mgrwt>
<rscale>  0 0.12885933E+03</rscale>
<asrwt>0</asrwt>
<pdfrwt beam="2">  1        3 0.25962000E-02 0.13735370E+03</pdfrwt>
<pdfrwt beam="1">  1       -3 0.13544093E+00 0.13735370E+03</pdfrwt>
<totfact> 0.65409139E+02</totfact>
</mgrwt>
</event>
<event>
 7    1  0.6387485E-006  0.1492757E+03  0.7546771E-02  0.1210574E+00
          2   -1    0    0  501    0  0.00000000000E+00  0.00000000000E+00  0.45540526167E+03  0.45540526167E+03  0.00000000000E+00 0. -1.
         -2   -1    0    0    0  501 -0.00000000000E+00 -0.00000000000E+00 -0.42158913872E+02  0.42158913872E+02  0.00000000000E+00 0.  1.
         23    2    1    2    0    0 -0.39834547176E+02  0.71222237830E+02  0.17765885652E+03  0.23204718651E+03  0.12499531653E+03 0.  0.
          5    1    3    3  502    0 -0.53908963599E+02  0.98774782318E+02  0.16131665014E+03  0.19674294293E+03  0.47000000000E+01 0.  1.
         -5    1    3    3    0  502  0.14074416423E+02 -0.27552544489E+02  0.16342206379E+02  0.35304243580E+02  0.47000000000E+01 0.  1.
        -11    1    1    2    0    0  0.28529346942E+02 -0.13905596269E+02  0.11211050293E+02  0.33659722120E+02  0.00000000000E+00 0.  1.
         11    1    1    2    0    0  0.11305200235E+02 -0.57316641561E+02  0.22437644098E+03  0.23185726691E+03  0.00000000000E+00 0. -1.
<mgrwt>
<rscale>  0 0.14206767E+03</rscale>
<asrwt>0</asrwt>
<pdfrwt beam="1">  1        2 0.70062344E-01 0.14927568E+03</pdfrwt>
<pdfrwt beam="2">  1       -2 0.64859871E-02 0.14927568E+03</pdfrwt>
<totfact> 0.87029561E+03</totfact>
</mgrwt>
</event>
<event>
 7    1  0.6387485E-006  0.1500553E+03  0.7546771E-02  0.1209444E+00
          1   -1    0    0  501    0  0.00000000000E+00  0.00000000000E+00  0.43854004943E+03  0.43854004943E+03  0.00000000000E+00 0. -1.
         -1   -1    0    0    0  501 -0.00000000000E+00 -0.00000000000E+00 -0.44496994255E+02  0.44496994255E+02  0.00000000000E+00 0.  1.
         23    2    1    2    0    0  0.64363250996E+02 -0.52402889309E+02  0.16654108672E+03  0.22417074359E+03  0.12501159078E+03 0.  0.
          5    1    3    3  502    0  0.19489552386E+02  0.22098887490E+02  0.12343192027E+03  0.12698713486E+03  0.47000000000E+01 0.  1.
         -5    1    3    3    0  502  0.44873698610E+02 -0.74501776799E+02  0.43109166453E+02  0.97183608728E+02  0.47000000000E+01 0.  1.
        -11    1    1    2    0    0 -0.81554814374E+01  0.64100535026E+02  0.10036259045E+03  0.11936515417E+03  0.00000000000E+00 0.  1.
         11    1    1    2    0    0 -0.56207769559E+02 -0.11697645717E+02  0.12713937800E+03  0.13950114592E+03  0.00000000000E+00 0. -1.
<mgrwt>
<rscale>  0 0.14292679E+03</rscale>
<asrwt>0</asrwt>
<pdfrwt beam="1">  1        1 0.67467697E-01 0.15005529E+03</pdfrwt>
<pdfrwt beam="2">  1       -1 0.68456917E-02 0.15005529E+03</pdfrwt>
<totfact> 0.56735585E+03</totfact>
</mgrwt>
</event>
<event>
 7    1  0.6387485E-006  0.1624919E+03  0.7546771E-02  0.1193027E+00
          1   -1    0    0  501    0  0.00000000000E+00  0.00000000000E+00  0.14617809022E+03  0.14617809022E+03  0.00000000000E+00 0. -1.
         -1   -1    0    0    0  501 -0.00000000000E+00 -0.00000000000E+00 -0.17489410624E+03  0.17489410624E+03  0.00000000000E+00 0.  1.
         23    2    1    2    0    0 -0.10360254539E+03  0.66288597960E+01 -0.68966283832E+02  0.17652189507E+03  0.12500480767E+03 0.  0.
          5    1    3    3  502    0 -0.62892870960E+02  0.35438681676E+02  0.19440245586E+02  0.74909455511E+02  0.47000000000E+01 0.  1.
         -5    1    3    3    0  502 -0.40709674429E+02 -0.28809821880E+02 -0.88406529418E+02  0.10161243956E+03  0.47000000000E+01 0.  1.
        -11    1    1    2    0    0  0.10091850695E+03  0.14079811468E+02  0.31114672969E+01  0.10194345180E+03  0.00000000000E+00 0.  1.
         11    1    1    2    0    0  0.26840384336E+01 -0.20708671264E+02  0.37138800519E+02  0.42606849588E+02  0.00000000000E+00 0. -1.
<mgrwt>
<rscale>  0 0.15622385E+03</rscale>
<asrwt>0</asrwt>
<pdfrwt beam="1">  1        1 0.22488937E-01 0.16249194E+03</pdfrwt>
<pdfrwt beam="2">  1       -1 0.26906786E-01 0.16249194E+03</pdfrwt>
<totfact> 0.26349567E+03</totfact>
</mgrwt>
</event>
<event>
 7    1  0.6387485E-006  0.1314075E+03  0.7546771E-02  0.1251503E+00
         -2   -1    0    0    0  501 -0.00000000000E+00  0.00000000000E+00  0.15809450198E+02  0.15809450198E+02  0.00000000000E+00 0.  1.
          2   -1    0    0  501    0  0.00000000000E+00 -0.00000000000E+00 -0.73285772276E+03  0.73285772276E+03  0.00000000000E+00 0. -1.
         23    2    1    2    0    0 -0.35347587700E+02 -0.20433106208E+02 -0.35651721247E+03  0.37996375843E+03  0.12490384761E+03 0.  0.
          5    1    3    3  502    0 -0.42192312587E+01 -0.38294370887E+02 -0.33624628156E+03  0.33847882152E+03  0.47000000000E+01 0.  1.
         -5    1    3    3    0  502 -0.31128356441E+02  0.17861264679E+02 -0.20270930908E+02  0.41484936911E+02  0.47000000000E+01 0.  1.
        -11    1    1    2    0    0 -0.17970249763E+02 -0.39311779605E+01 -0.97356695128E+02  0.99079312285E+02  0.00000000000E+00 0. -1.
         11    1    1    2    0    0  0.53317837462E+02  0.24364284168E+02 -0.26317436497E+03  0.26962410225E+03  0.00000000000E+00 0.  1.
<mgrwt>
<rscale>  0 0.11504479E+03</rscale>
<asrwt>0</asrwt>
<pdfrwt beam="2">  1        2 0.11274734E+00 0.13140751E+03</pdfrwt>
<pdfrwt beam="1">  1       -2 0.24322232E-02 0.13140751E+03</pdfrwt>
<totfact> 0.21640850E+04</totfact>
</mgrwt>
</event>
<event>
 7    1  0.6387485E-006  0.1306989E+03  0.7546771E-02  0.1243514E+00
          1   -1    0    0  501    0  0.00000000000E+00  0.00000000000E+00  0.49658124197E+03  0.49658124197E+03  0.00000000000E+00 0. -1.
         -1   -1    0    0    0  501 -0.00000000000E+00 -0.00000000000E+00 -0.33120921821E+02  0.33120921821E+02  0.00000000000E+00 0.  1.
         23    2    1    2    0    0 -0.35699958295E+02 -0.13556149059E+02  0.13229289401E+03  0.18596667334E+03  0.12499575028E+03 0.  0.
          5    1    3    3  502    0 -0.81200031459E+02  0.46425835206E+01  0.82097821033E+02  0.11565959065E+03  0.47000000000E+01 0.  1.
         -5    1    3    3    0  502  0.45500073164E+02 -0.18198732579E+02  0.50195072977E+02  0.70307082691E+02  0.47000000000E+01 0.  1.
        -11    1    1    2    0    0  0.55075122796E+02  0.30913417883E+02  0.26958484802E+03  0.27688426976E+03  0.00000000000E+00 0. -1.
         11    1    1    2    0    0 -0.19375164501E+02 -0.17357268824E+02  0.61582578113E+02  0.66851220688E+02  0.00000000000E+00 0.  1.
<mgrwt>
<rscale>  0 0.11974781E+03</rscale>
<asrwt>0</asrwt>
<pdfrwt beam="1">  1        1 0.76397109E-01 0.13069887E+03</pdfrwt>
<pdfrwt beam="2">  1       -1 0.50955268E-02 0.13069887E+03</pdfrwt>
<totfact> 0.74435155E+03</totfact>
</mgrwt>
</event>
<event>
 7    1  0.6387485E-006  0.1261339E+03  0.7546771E-02  0.1248041E+00
         -2   -1    0    0    0  501 -0.00000000000E+00  0.00000000000E+00  0.24374640740E+02  0.24374640740E+02  0.00000000000E+00 0.  1.
          2   -1    0    0  501    0  0.00000000000E+00 -0.00000000000E+00 -0.49505287373E+03  0.49505287373E+03  0.00000000000E+00 0. -1.
         23    2    1    2    0    0  0.16625806052E+02 -0.31699383834E+01 -0.26694311652E+03  0.29524293589E+03  0.12499319100E+03 0.  0.
          5    1    3    3  502    0 -0.13148970347E+02  0.57039464500E+02 -0.11923437428E+03  0.13291095493E+03  0.47000000000E+01 0. -1.
         -5    1    3    3    0  502  0.29774776399E+02 -0.60209402883E+02 -0.14770874224E+03  0.16233198095E+03  0.47000000000E+01 0. -1.
        -11    1    1    2    0    0  0.35302681882E+02  0.81988905917E+01 -0.12155383998E+03  0.12684178006E+03  0.00000000000E+00 0. -1.
         11    1    1    2    0    0 -0.51928487934E+02 -0.50289522083E+01 -0.82181276494E+02  0.97342798530E+02  0.00000000000E+00 0.  1.
<mgrwt>
<rscale>  0 0.11705216E+03</rscale>
<asrwt>0</asrwt>
<pdfrwt beam="2">  1        2 0.76161985E-01 0.12613391E+03</pdfrwt>
<pdfrwt beam="1">  1       -2 0.37499445E-02 0.12613391E+03</pdfrwt>
<totfact> 0.17863621E+04</totfact>
</mgrwt>
</event>
<event>
 7    1  0.6387485E-006  0.1252282E+03  0.7546771E-02  0.1250204E+00
         -2   -1    0    0    0  501 -0.00000000000E+00  0.00000000000E+00  0.33457541470E+02  0.33457541470E+02  0.00000000000E+00 0.  1.
          2   -1    0    0  501    0  0.00000000000E+00 -0.00000000000E+00 -0.35139894980E+03  0.35139894980E+03  0.00000000000E+00 0. -1.
         23    2    1    2    0    0 -0.57789628135E+01  0.52855105733E+01 -0.18914020520E+03  0.22683942517E+03  0.12498309709E+03 0.  0.
          5    1    3    3  502    0  0.16745617545E+02  0.47831345649E+02 -0.16521445351E+03  0.17287613769E+03  0.47000000000E+01 0. -1.
         -5    1    3    3    0  502 -0.22524580359E+02 -0.42545835075E+02 -0.23925751689E+02  0.53963287488E+02  0.47000000000E+01 0. -1.
        -11    1    1    2    0    0  0.48179368834E+02 -0.25780665996E+01 -0.78854740882E+02  0.92444405825E+02  0.00000000000E+00 0.  1.
         11    1    1    2    0    0 -0.42400406021E+02 -0.27074439737E+01 -0.49946462248E+02  0.65572660269E+02  0.00000000000E+00 0. -1.
<mgrwt>
<rscale>  0 0.11579235E+03</rscale>
<asrwt>0</asrwt>
<pdfrwt beam="2">  1        2 0.54061377E-01 0.12522822E+03</pdfrwt>
<pdfrwt beam="1">  1       -2 0.51473140E-02 0.12522822E+03</pdfrwt>
<totfact> 0.16083243E+04</totfact>
</mgrwt>
</event>
<event>
 7    1  0.6387485E-006  0.1182956E+03  0.7546771E-02  0.1260077E+00
          3   -1    0    0  501    0  0.00000000000E+00  0.00000000000E+00  0.43499454126E+02  0.43499454126E+02  0.00000000000E+00 0. -1.
         -3   -1    0    0    0  501 -0.00000000000E+00 -0.00000000000E+00 -0.25232371793E+03  0.25232371793E+03  0.00000000000E+00 0.  1.
         23    2    1    2    0    0  0.13840507564E+02  0.96494802087E+01 -0.13857798581E+03  0.18220235048E+03  0.11708614884E+03 0.  0.
          5    1    3    3  502    0 -0.10869382955E+02  0.10405927558E+02  0.17820367253E+02  0.23792484174E+02  0.47000000000E+01 0. -1.
         -5    1    3    3    0  502  0.24709890519E+02 -0.75644734936E+00 -0.15639835306E+03  0.15840986630E+03  0.47000000000E+01 0.  1.
        -11    1    1    2    0    0 -0.20450887536E+02  0.36874272838E+02 -0.36481135556E+02  0.55756829624E+02  0.00000000000E+00 0.  1.
         11    1    1    2    0    0  0.66103799727E+01 -0.46523753046E+02 -0.33765142442E+02  0.57863991955E+02  0.00000000000E+00 0. -1.
<mgrwt>
<rscale>  0 0.11026652E+03</rscale>
<asrwt>0</asrwt>
<pdfrwt beam="1">  1        3 0.66922238E-02 0.11829556E+03</pdfrwt>
<pdfrwt beam="2">  1       -3 0.38819033E-01 0.11829556E+03</pdfrwt>
<totfact> 0.20999060E+03</totfact>
</mgrwt>
</event>
<event>
 7    1  0.6387485E-006  0.1476226E+03  0.7546771E-02  0.1212762E+00
          1   -1    0    0  501    0  0.00000000000E+00  0.00000000000E+00  0.36773207943E+03  0.36773207943E+03  0.00000000000E+00 0. -1.
         -1   -1    0    0    0  501 -0.00000000000E+00 -0.00000000000E+00 -0.52823954200E+02  0.52823954200E+02  0.00000000000E+00 0.  1.
         23    2    1    2    0    0  0.60643803580E+02  0.49889891612E+02  0.11573615240E+03  0.18758277186E+03  0.12500306848E+03 0.  0.
          5    1    3    3  502    0  0.45143484398E+02  0.57754540825E+02  0.31038825295E+01  0.73520373069E+02  0.47000000000E+01 0.  1.
         -5    1    3    3    0  502  0.15500319183E+02 -0.78646492137E+01  0.11263226987E+03  0.11406239879E+03  0.47000000000E+01 0.  1.
        -11    1    1    2    0    0 -0.78061779242E+01 -0.24975450030E+02  0.80049947545E+00  0.26179196271E+02  0.00000000000E+00 0.  1.
         11    1    1    2    0    0 -0.52837625656E+02 -0.24914441582E+02  0.19837147336E+03  0.20679406550E+03  0.00000000000E+00 0. -1.
<mgrwt>
<rscale>  0 0.14042197E+03</rscale>
<asrwt>0</asrwt>
<pdfrwt beam="1">  1        1 0.56574164E-01 0.14762262E+03</pdfrwt>
<pdfrwt beam="2">  1       -1 0.81267624E-02 0.14762262E+03</pdfrwt>
<totfact> 0.54700264E+03</totfact>
</mgrwt>
</event>
<event>
 7    1  0.6387485E-006  0.1480097E+03  0.7546771E-02  0.1212112E+00
         -2   -1    0    0    0  501 -0.00000000000E+00  0.00000000000E+00  0.24009630402E+02  0.24009630402E+02  0.00000000000E+00 0.  1.
          2   -1    0    0  501    0  0.00000000000E+00 -0.00000000000E+00 -0.77230151089E+03  0.77230151089E+03  0.00000000000E+00 0. -1.
         23    2    1    2    0    0  0.76128932076E+02  0.26079873624E+02 -0.35391242469E+03  0.38361553463E+03  0.12422197856E+03 0.  0.
          5    1    3    3  502    0  0.36154560671E+02 -0.32790202122E+02 -0.26567664688E+03  0.27016387677E+03  0.47000000000E+01 0. -1.
         -5    1    3    3    0  502  0.39974371405E+02  0.58870075746E+02 -0.88235777806E+02  0.11345165787E+03  0.47000000000E+01 0.  1.
        -11    1    1    2    0    0  0.20713208590E+02 -0.89090993358E+01 -0.92010383552E+02  0.94732886278E+02  0.00000000000E+00 0. -1.
         11    1    1    2    0    0 -0.96842140666E+02 -0.17170774288E+02 -0.30236907225E+03  0.31796272038E+03  0.00000000000E+00 0.  1.
<mgrwt>
<rscale>  0 0.14090817E+03</rscale>
<asrwt>0</asrwt>
<pdfrwt beam="2">  1        2 0.11881564E+00 0.14800971E+03</pdfrwt>
<pdfrwt beam="1">  1       -2 0.36937887E-02 0.14800971E+03</pdfrwt>
<totfact> 0.11075065E+04</totfact>
</mgrwt>
</event>
<event>
 7    1  0.6387485E-006  0.1398829E+03  0.7546771E-02  0.1225188E+00
         -1   -1    0    0    0  501 -0.00000000000E+00  0.00000000000E+00  0.96476777996E+02  0.96476777996E+02  0.00000000000E+00 0.  1.
          1   -1    0    0  501    0  0.00000000000E+00 -0.00000000000E+00 -0.17179047262E+03  0.17179047262E+03  0.00000000000E+00 0. -1.
         23    2    1    2    0    0  0.29288289824E+02 -0.55538383925E+02 -0.85997246241E+01  0.14014699824E+03  0.12499963937E+03 0.  0.
          5    1    3    3  502    0 -0.21753322567E+02  0.16008857675E+02 -0.38438355792E+02  0.47213215975E+02  0.47000000000E+01 0. -1.
         -5    1    3    3    0  502  0.51041612391E+02 -0.71547241599E+02  0.29838631168E+02  0.92933782264E+02  0.47000000000E+01 0. -1.
        -11    1    1    2    0    0  0.19214338674E+02 -0.99378302676E+01 -0.34034489603E+02  0.40327382306E+02  0.00000000000E+00 0. -1.
         11    1    1    2    0    0 -0.48502628498E+02  0.65476214192E+02 -0.32679480397E+02  0.87792870070E+02  0.00000000000E+00 0.  1.
<mgrwt>
<rscale>  0 0.13154012E+03</rscale>
<asrwt>0</asrwt>
<pdfrwt beam="2">  1        1 0.26429303E-01 0.13988290E+03</pdfrwt>
<pdfrwt beam="1">  1       -1 0.14842581E-01 0.13988290E+03</pdfrwt>
<totfact> 0.55628435E+03</totfact>
</mgrwt>
</event>
<event>
 7    1  0.6387485E-006  0.1570372E+03  0.7546771E-02  0.1199819E+00
          1   -1    0    0  501    0  0.00000000000E+00  0.00000000000E+00  0.45249462565E+03  0.45249462565E+03  0.00000000000E+00 0. -1.
         -1   -1    0    0    0  501 -0.00000000000E+00 -0.00000000000E+00 -0.48076551988E+02  0.48076551988E+02  0.00000000000E+00 0.  1.
         23    2    1    2    0    0 -0.62874263223E+02 -0.71296678581E+02  0.26597565796E+03  0.30887493472E+03  0.12499714126E+03 0.  0.
          5    1    3    3  502    0 -0.98480400939E+02 -0.48520507336E+02  0.15474450537E+03  0.18979088741E+03  0.47000000000E+01 0.  1.
         -5    1    3    3    0  502  0.35606137716E+02 -0.22776171245E+02  0.11123115258E+03  0.11908404731E+03  0.47000000000E+01 0.  1.
        -11    1    1    2    0    0  0.83857944865E+02  0.35879993894E+02  0.90237615426E+02  0.12830571350E+03  0.00000000000E+00 0.  1.
         11    1    1    2    0    0 -0.20983681642E+02  0.35416684686E+02  0.48204800285E+02  0.63390529418E+02  0.00000000000E+00 0. -1.
<mgrwt>
<rscale>  0 0.15053336E+03</rscale>
<asrwt>0</asrwt>
<pdfrwt beam="1">  1        1 0.69614555E-01 0.15703718E+03</pdfrwt>
<pdfrwt beam="2">  1       -1 0.73963929E-02 0.15703718E+03</pdfrwt>
<totfact> 0.48624581E+03</totfact>
</mgrwt>
</event>
<event>
 7    1  0.6387485E-006  0.1372115E+03  0.7546771E-02  0.1229931E+00
          1   -1    0    0  501    0  0.00000000000E+00  0.00000000000E+00  0.26636457837E+03  0.26636457837E+03  0.00000000000E+00 0. -1.
         -1   -1    0    0    0  501 -0.00000000000E+00 -0.00000000000E+00 -0.55083246742E+02  0.55083246742E+02  0.00000000000E+00 0.  1.
         23    2    1    2    0    0 -0.33345893961E+02 -0.45809914309E+02  0.11862485158E+03  0.18138039487E+03  0.12496597672E+03 0.  0.
          5    1    3    3  502    0  0.31114506712E+02 -0.41707759425E+02  0.75289252138E+01  0.52786593365E+02  0.47000000000E+01 0.  1.
         -5    1    3    3    0  502 -0.64460400674E+02 -0.41021548846E+01  0.11109592637E+03  0.12859380150E+03  0.47000000000E+01 0.  1.
        -11    1    1    2    0    0  0.31060212347E+02 -0.16884824745E+02  0.59238299880E+02  0.68985580162E+02  0.00000000000E+00 0. -1.
         11    1    1    2    0    0  0.22856816141E+01  0.62694739054E+02  0.33418180169E+02  0.71081850083E+02  0.00000000000E+00 0.  1.
<mgrwt>
<rscale>  0 0.12834614E+03</rscale>
<asrwt>0</asrwt>
<pdfrwt beam="1">  1        1 0.40979165E-01 0.13721149E+03</pdfrwt>
<pdfrwt beam="2">  1       -1 0.84743458E-02 0.13721149E+03</pdfrwt>
<totfact> 0.76309763E+03</totfact>
</mgrwt>
</event>
<event>
 7    1  0.6387485E-006  0.1808919E+03  0.7546771E-02  0.1172502E+00
         -2   -1    0    0    0  501 -0.00000000000E+00  0.00000000000E+00  0.28940239368E+03  0.28940239368E+03  0.00000000000E+00 0.  1.
          2   -1    0    0  501    0  0.00000000000E+00 -0.00000000000E+00 -0.13788853229E+03  0.13788853229E+03  0.00000000000E+00 0. -1.
         23    2    1    2    0    0  0.59618307757E+02 -0.11637220434E+03  0.19112794311E+03  0.26315728754E+03  0.12500013913E+03 0.  0.
          5    1    3    3  502    0  0.48045805965E+02 -0.30082070366E+01  0.11838190413E+03  0.12788203160E+03  0.47000000000E+01 0.  1.
         -5    1    3    3    0  502  0.11572501791E+02 -0.11336399730E+03  0.72746038986E+02  0.13527525594E+03  0.47000000000E+01 0.  1.
        -11    1    1    2    0    0 -0.80846683482E+02  0.10245961217E+03 -0.45245694708E+02  0.13813519192E+03  0.00000000000E+00 0. -1.
         11    1    1    2    0    0  0.21228375726E+02  0.13912592164E+02  0.56316129846E+01  0.25998446520E+02  0.00000000000E+00 0.  1.
<mgrwt>
<rscale>  0 0.17522883E+03</rscale>
<asrwt>0</asrwt>
<pdfrwt beam="2">  1        2 0.21213620E-01 0.18089187E+03</pdfrwt>
<pdfrwt beam="1">  1       -2 0.44523445E-01 0.18089187E+03</pdfrwt>
<totfact> 0.12407991E+03</totfact>
</mgrwt>
</event>
<event>
 7    1  0.6387485E-006  0.1269009E+03  0.7546771E-02  0.1247206E+00
         -2   -1    0    0    0  501 -0.00000000000E+00  0.00000000000E+00  0.61862959127E+02  0.61862959127E+02  0.00000000000E+00 0.  1.
          2   -1    0    0  501    0  0.00000000000E+00 -0.00000000000E+00 -0.20725468287E+03  0.20725468287E+03  0.00000000000E+00 0. -1.
         23    2    1    2    0    0 -0.17594283288E+02  0.88976394681E+01 -0.52346370093E+02  0.13727341227E+03  0.12535996355E+03 0.  0.
          5    1    3    3  502    0 -0.17145096522E+02 -0.54379308201E+02 -0.37223631876E+01  0.57332447034E+02  0.47000000000E+01 0.  1.
         -5    1    3    3    0  502 -0.44918676606E+00  0.63276947669E+02 -0.48624006906E+02  0.79940965235E+02  0.47000000000E+01 0.  1.
        -11    1    1    2    0    0 -0.15655646629E+02  0.15439588042E+02  0.74607759644E+01  0.23219460120E+02  0.00000000000E+00 0.  1.
         11    1    1    2    0    0  0.33249929917E+02 -0.24337227510E+02 -0.10050612962E+03  0.10862476961E+03  0.00000000000E+00 0. -1.
<mgrwt>
<rscale>  0 0.11754311E+03</rscale>
<asrwt>0</asrwt>
<pdfrwt beam="2">  1        2 0.31885336E-01 0.12690093E+03</pdfrwt>
<pdfrwt beam="1">  1       -2 0.95173784E-02 0.12690093E+03</pdfrwt>
<totfact> 0.11022060E+04</totfact>
</mgrwt>
</event>
<event>
 7    1  0.6387485E-006  0.1929579E+03  0.7546771E-02  0.1160603E+00
         -1   -1    0    0    0  501 -0.00000000000E+00  0.00000000000E+00  0.94718193647E+03  0.94718193647E+03  0.00000000000E+00 0.  1.
          1   -1    0    0  501    0  0.00000000000E+00 -0.00000000000E+00 -0.38500464538E+02  0.38500464538E+02  0.00000000000E+00 0. -1.
         23    2    1    2    0    0 -0.11522914452E+03  0.91261316245E+02  0.33488768413E+03  0.38650033574E+03  0.12500545971E+03 0.  0.
          5    1    3    3  502    0 -0.83139258142E+02  0.52246139896E+02  0.31828106839E+03  0.33311668207E+03  0.47000000000E+01 0.  1.
         -5    1    3    3    0  502 -0.32089886378E+02  0.39015176349E+02  0.16606615743E+02  0.53383653676E+02  0.47000000000E+01 0.  1.
        -11    1    1    2    0    0  0.24478813015E+02 -0.52465489439E+02  0.34767925307E+03  0.35246659825E+03  0.00000000000E+00 0.  1.
         11    1    1    2    0    0  0.90750331506E+02 -0.38795826806E+02  0.22611453474E+03  0.24671546702E+03  0.00000000000E+00 0. -1.
<mgrwt>
<rscale>  0 0.18764509E+03</rscale>
<asrwt>0</asrwt>
<pdfrwt beam="2">  1        1 0.59231491E-02 0.19295789E+03</pdfrwt>
<pdfrwt beam="1">  1       -1 0.14572028E+00 0.19295789E+03</pdfrwt>
<totfact> 0.53531066E+02</totfact>
</mgrwt>
</event>
<event>
 7    1  0.6387485E-006  0.1606492E+03  0.7546771E-02  0.1195645E+00
         -1   -1    0    0    0  501 -0.00000000000E+00  0.00000000000E+00  0.82688288962E+03  0.82688288962E+03  0.00000000000E+00 0.  1.
          1   -1    0    0  501    0  0.00000000000E+00 -0.00000000000E+00 -0.34806685195E+02  0.34806685195E+02  0.00000000000E+00 0. -1.
         23    2    1    2    0    0 -0.98044870565E+02  0.23871324634E+02  0.63086996708E+03  0.65100313180E+03  0.12500210185E+03 0.  0.
          5    1    3    3  502    0 -0.64679466018E+02  0.17444235479E+02  0.10913405397E+03  0.12814080697E+03  0.47000000000E+01 0.  1.
         -5    1    3    3    0  502 -0.33365404548E+02  0.64270891549E+01  0.52173591311E+03  0.52286232483E+03  0.47000000000E+01 0.  1.
        -11    1    1    2    0    0  0.19705099478E+02 -0.46827760001E+02  0.84912494167E+02  0.98950804533E+02  0.00000000000E+00 0.  1.
         11    1    1    2    0    0  0.78339771087E+02  0.22956435367E+02  0.76293743182E+02  0.11173563848E+03  0.00000000000E+00 0. -1.
<mgrwt>
<rscale>  0 0.15399799E+03</rscale>
<asrwt>0</asrwt>
<pdfrwt beam="2">  1        1 0.53548753E-02 0.16064919E+03</pdfrwt>
<pdfrwt beam="1">  1       -1 0.12721274E+00 0.16064919E+03</pdfrwt>
<totfact> 0.85996327E+02</totfact>
</mgrwt>
</event>
<event>
 7    1  0.6387485E-006  0.1338774E+03  0.7546771E-02  0.1237482E+00
          2   -1    0    0  501    0  0.00000000000E+00  0.00000000000E+00  0.34374157080E+03  0.34374157080E+03  0.00000000000E+00 0. -1.
         -2   -1    0    0    0  501 -0.00000000000E+00 -0.00000000000E+00 -0.46707405969E+02  0.46707405969E+02  0.00000000000E+00 0.  1.
         23    2    1    2    0    0  0.35769408535E+02 -0.31920015432E+02  0.88396621471E+02  0.16042790874E+03  0.12499925297E+03 0.  0.
          5    1    3    3  502    0  0.57056498743E+01 -0.56749618003E+02 -0.66237432106E+01  0.57611088847E+02  0.47000000000E+01 0. -1.
         -5    1    3    3    0  502  0.30063758660E+02  0.24829602571E+02  0.95020364681E+02  0.10281681989E+03  0.47000000000E+01 0. -1.
        -11    1    1    2    0    0 -0.25584297874E+02 -0.26653547847E+02  0.69385651022E+02  0.78608755735E+02  0.00000000000E+00 0.  1.
         11    1    1    2    0    0 -0.10185110661E+02  0.58573563279E+02  0.13925189234E+03  0.15141231229E+03  0.00000000000E+00 0. -1.
<mgrwt>
<rscale>  0 0.12346849E+03</rscale>
<asrwt>0</asrwt>
<pdfrwt beam="1">  1        2 0.52883317E-01 0.13387737E+03</pdfrwt>
<pdfrwt beam="2">  1       -2 0.71857550E-02 0.13387737E+03</pdfrwt>
<totfact> 0.99823624E+03</totfact>
</mgrwt>
</event>
<event>
 7    1  0.6387485E-006  0.1264891E+03  0.7546771E-02  0.1247268E+00
          2   -1    0    0  501    0  0.00000000000E+00  0.00000000000E+00  0.48494372923E+03  0.48494372923E+03  0.00000000000E+00 0. -1.
         -2   -1    0    0    0  501 -0.00000000000E+00 -0.00000000000E+00 -0.25956634647E+02  0.25956634647E+02  0.00000000000E+00 0.  1.
         23    2    1    2    0    0  0.19239048238E+02 -0.19559803655E+01  0.21630277656E+03  0.25057212319E+03  0.12500212371E+03 0.  0.
          5    1    3    3  502    0  0.70654771211E+02 -0.35304111207E+00  0.15499226479E+03  0.17040221090E+03  0.47000000000E+01 0.  1.
         -5    1    3    3    0  502 -0.51415722973E+02 -0.16029392534E+01  0.61310511771E+02  0.80169912291E+02  0.47000000000E+01 0.  1.
        -11    1    1    2    0    0  0.32968619523E+02 -0.13889274136E+02  0.13434192720E+03  0.13902372177E+03  0.00000000000E+00 0. -1.
         11    1    1    2    0    0 -0.52207667761E+02  0.15845254501E+02  0.10834239082E+03  0.12130451893E+03  0.00000000000E+00 0.  1.
<mgrwt>
<rscale>  0 0.11750643E+03</rscale>
<asrwt>0</asrwt>
<pdfrwt beam="1">  1        2 0.74606721E-01 0.12648912E+03</pdfrwt>
<pdfrwt beam="2">  1       -2 0.39933288E-02 0.12648912E+03</pdfrwt>
<totfact> 0.16649615E+04</totfact>
</mgrwt>
</event>
<event>
 7    1  0.6387485E-006  0.1294235E+03  0.7546771E-02  0.1242359E+00
         -1   -1    0    0    0  501 -0.00000000000E+00  0.00000000000E+00  0.87196346838E+03  0.87196346838E+03  0.00000000000E+00 0.  1.
          1   -1    0    0  501    0  0.00000000000E+00 -0.00000000000E+00 -0.19093064729E+02  0.19093064729E+02  0.00000000000E+00 0. -1.
         23    2    1    2    0    0 -0.25523699614E+02 -0.21774799255E+02  0.68511118416E+03  0.69722863592E+03  0.12499933981E+03 0.  0.
          5    1    3    3  502    0 -0.44750634196E+02 -0.34177398633E+02  0.66187156857E+03  0.66427914097E+03  0.47000000000E+01 0. -1.
         -5    1    3    3    0  502  0.19226934581E+02  0.12402599378E+02  0.23239615590E+02  0.32949494951E+02  0.47000000000E+01 0. -1.
        -11    1    1    2    0    0  0.31761335177E+02 -0.13586068154E+02  0.16349400549E+02  0.38218667669E+02  0.00000000000E+00 0. -1.
         11    1    1    2    0    0 -0.62376355625E+01  0.35360867409E+02  0.15140981894E+03  0.15560922953E+03  0.00000000000E+00 0.  1.
<mgrwt>
<rscale>  0 0.12044847E+03</rscale>
<asrwt>0</asrwt>
<pdfrwt beam="2">  1        1 0.29373952E-02 0.12942348E+03</pdfrwt>
<pdfrwt beam="1">  1       -1 0.13414820E+00 0.12942348E+03</pdfrwt>
<totfact> 0.17158225E+03</totfact>
</mgrwt>
</event>
<event>
 7    1  0.1039821E-005  0.1526495E+03  0.7546771E-02  0.1205557E+00
         -1   -1    0    0    0  501 -0.00000000000E+00  0.00000000000E+00  0.12097349005E+03  0.12097349005E+03  0.00000000000E+00 0.  1.
          1   -1    0    0  501    0  0.00000000000E+00 -0.00000000000E+00 -0.19768191413E+03  0.19768191413E+03  0.00000000000E+00 0. -1.
         23    2    1    2    0    0 -0.47119420861E+02  0.73866215634E+02  0.26089124042E+02  0.15486288909E+03  0.12500165755E+03 0.  0.
          5    1    3    3  502    0 -0.73760839409E+02  0.49800319888E+02  0.58220283417E+02  0.10645386180E+03  0.47000000000E+01 0.  1.
         -5    1    3    3    0  502  0.26641418548E+02  0.24065895747E+02 -0.32131159375E+02  0.48409027289E+02  0.47000000000E+01 0.  1.
        -11    1    1    2    0    0  0.39738829810E+02 -0.61101028825E+02 -0.14554420213E+02  0.74325913825E+02  0.00000000000E+00 0.  1.
         11    1    1    2    0    0  0.73805910513E+01 -0.12765186809E+02 -0.88243127913E+02  0.89466601268E+02  0.00000000000E+00 0. -1.
<mgrwt>
<rscale>  0 0.14593646E+03</rscale>
<asrwt>0</asrwt>
<pdfrwt beam="2">  1        1 0.30412602E-01 0.15264951E+03</pdfrwt>
<pdfrwt beam="1">  1       -1 0.18611306E-01 0.15264951E+03</pdfrwt>
<totfact> 0.32784029E+03</totfact>
</mgrwt>
</event>
<event>
 7    1  0.6387485E-006  0.1478158E+03  0.7546771E-02  0.1213240E+00
         -1   -1    0    0    0  501 -0.00000000000E+00  0.00000000000E+00  0.83086570494E+02  0.83086570494E+02  0.00000000000E+00 0.  1.
          1   -1    0    0  501    0  0.00000000000E+00 -0.00000000000E+00 -0.25395097681E+03  0.25395097681E+03  0.00000000000E+00 0. -1.
         23    2    1    2    0    0 -0.75558630077E+02  0.22689392899E+02 -0.27061669207E+02  0.15027255748E+03  0.12500236982E+03 0.  0.
          5    1    3    3  502    0 -0.51964561278E+01  0.58751366947E+02  0.14367411644E+02  0.60887098730E+02  0.47000000000E+01 0. -1.
         -5    1    3    3    0  502 -0.70362173949E+02 -0.36061974047E+02 -0.41429080851E+02  0.89385458746E+02  0.47000000000E+01 0. -1.
        -11    1    1    2    0    0 -0.19055834329E+01 -0.39777835065E+02 -0.46388463722E+02  0.61137525115E+02  0.00000000000E+00 0.  1.
         11    1    1    2    0    0  0.77464213510E+02  0.17088442166E+02 -0.97414273382E+02  0.12562746471E+03  0.00000000000E+00 0. -1.
<mgrwt>
<rscale>  0 0.14006643E+03</rscale>
<asrwt>0</asrwt>
<pdfrwt beam="2">  1        1 0.39069381E-01 0.14781579E+03</pdfrwt>
<pdfrwt beam="1">  1       -1 0.12782549E-01 0.14781579E+03</pdfrwt>
<totfact> 0.43322131E+03</totfact>
</mgrwt>
</event>
<event>
 7    1  0.6387485E-006  0.1304846E+03  0.7546771E-02  0.1240085E+00
          1   -1    0    0  501    0  0.00000000000E+00  0.00000000000E+00  0.52088575660E+02  0.52088575660E+02  0.00000000000E+00 0. -1.
         -1   -1    0    0    0  501 -0.00000000000E+00 -0.00000000000E+00 -0.26559461966E+03  0.26559461966E+03  0.00000000000E+00 0.  1.
         23    2    1    2    0    0  0.18492488078E+01  0.37404119081E+02 -0.15460183494E+03  0.20230661249E+03  0.12499500088E+03 0.  0.
          5    1    3    3  502    0  0.22461115709E+02  0.69273584962E+02 -0.43847652420E+02  0.85135409291E+02  0.47000000000E+01 0.  1.
         -5    1    3    3    0  502 -0.20611866901E+02 -0.31869465881E+02 -0.11075418252E+03  0.11717120320E+03  0.47000000000E+01 0.  1.
        -11    1    1    2    0    0  0.11432233293E+02  0.28142196763E+02 -0.29420178867E+02  0.42287422732E+02  0.00000000000E+00 0.  1.
         11    1    1    2    0    0 -0.13281482101E+02 -0.65546315844E+02 -0.29484030189E+02  0.73089160097E+02  0.00000000000E+00 0. -1.
<mgrwt>
<rscale>  0 0.12184430E+03</rscale>
<asrwt>0</asrwt>
<pdfrwt beam="1">  1        1 0.80136269E-02 0.13048463E+03</pdfrwt>
<pdfrwt beam="2">  1       -1 0.40860711E-01 0.13048463E+03</pdfrwt>
<totfact> 0.49059982E+03</totfact>
</mgrwt>
</event>
<event>
 7    1  0.6387485E-006  0.1649623E+03  0.7546771E-02  0.1187285E+00
          1   -1    0    0  501    0  0.00000000000E+00  0.00000000000E+00  0.10081515996E+03  0.10081515996E+03  0.00000000000E+00 0. -1.
         -1   -1    0    0    0  501 -0.00000000000E+00 -0.00000000000E+00 -0.25289456761E+03  0.25289456761E+03  0.00000000000E+00 0.  1.
         23    2    1    2    0    0 -0.88988479451E+02  0.79957960133E+02 -0.10641396402E+03  0.19630711893E+03  0.11357961235E+03 0.  0.
          5    1    3    3  502    0 -0.71632932180E+02  0.10759736291E+03 -0.97994169835E+02  0.16227574310E+03  0.47000000000E+01 0. -1.
         -5    1    3    3    0  502 -0.17355547271E+02 -0.27639402775E+02 -0.84197941877E+01  0.34031375831E+02  0.47000000000E+01 0.  1.
        -11    1    1    2    0    0  0.96632459170E+02 -0.32840841701E+02 -0.23284405885E+02  0.10468293369E+03  0.00000000000E+00 0.  1.
         11    1    1    2    0    0 -0.76439797184E+01 -0.47117118432E+02 -0.22381037747E+02  0.52719674941E+02  0.00000000000E+00 0. -1.
<mgrwt>
<rscale>  0 0.16125693E+03</rscale>
<asrwt>0</asrwt>
<pdfrwt beam="1">  1        1 0.15510025E-01 0.16496228E+03</pdfrwt>
<pdfrwt beam="2">  1       -1 0.38906856E-01 0.16496228E+03</pdfrwt>
<totfact> 0.22641333E+03</totfact>
</mgrwt>
</event>
<event>
 7    1  0.6387485E-006  0.1778359E+03  0.7546771E-02  0.1176580E+00
         -1   -1    0    0    0  501 -0.00000000000E+00  0.00000000000E+00  0.90192759246E+02  0.90192759246E+02  0.00000000000E+00 0.  1.
          1   -1    0    0  501    0  0.00000000000E+00 -0.00000000000E+00 -0.31732862822E+03  0.31732862822E+03  0.00000000000E+00 0. -1.
         23    2    1    2    0    0  0.11228181443E+03  0.58264077020E+02 -0.78673993713E+02  0.19446135932E+03  0.12499485773E+03 0.  0.
          5    1    3    3  502    0  0.11168845154E+03 -0.20739179908E+01 -0.73316118519E+02  0.13370098944E+03  0.47000000000E+01 0.  1.
         -5    1    3    3    0  502  0.59336289077E+00  0.60337995010E+02 -0.53578751946E+01  0.60760369880E+02  0.47000000000E+01 0.  1.
        -11    1    1    2    0    0 -0.45355521098E+02 -0.41799621562E+02 -0.12647972549E+03  0.14071763435E+03  0.00000000000E+00 0. -1.
         11    1    1    2    0    0 -0.66926293329E+02 -0.16464455458E+02 -0.21982149777E+02  0.72342393802E+02  0.00000000000E+00 0.  1.
<mgrwt>
<rscale>  0 0.17122178E+03</rscale>
<asrwt>0</asrwt>
<pdfrwt beam="2">  1        1 0.48819790E-01 0.17783594E+03</pdfrwt>
<pdfrwt beam="1">  1       -1 0.13875809E-01 0.17783594E+03</pdfrwt>
<totfact> 0.29133640E+03</totfact>
</mgrwt>
</event>
<event>
 7    1  0.6387485E-006  0.1358824E+03  0.7546771E-02  0.1234021E+00
          1   -1    0    0  501    0  0.00000000000E+00  0.00000000000E+00  0.55286887611E+03  0.55286887611E+03  0.00000000000E+00 0. -1.
         -1   -1    0    0    0  501 -0.00000000000E+00 -0.00000000000E+00 -0.25207165442E+02  0.25207165442E+02  0.00000000000E+00 0.  1.
         23    2    1    2    0    0  0.46114644517E+02 -0.26218371451E+02  0.28094176065E+03  0.31207740728E+03  0.12510024706E+03 0.  0.
          5    1    3    3  502    0  0.63001793627E+02 -0.16443361465E+02  0.28432569315E+03  0.29172384188E+03  0.47000000000E+01 0. -1.
         -5    1    3    3    0  502 -0.16887149110E+02 -0.97750099859E+01 -0.33839324952E+01  0.20353565399E+02  0.47000000000E+01 0. -1.
        -11    1    1    2    0    0 -0.38833625936E+02 -0.29514069817E+01  0.22636642304E+03  0.22969222622E+03  0.00000000000E+00 0. -1.
         11    1    1    2    0    0 -0.72810185808E+01  0.29169778433E+02  0.20353526975E+02  0.36306408053E+02  0.00000000000E+00 0.  1.
<mgrwt>
<rscale>  0 0.12567302E+03</rscale>
<asrwt>0</asrwt>
<pdfrwt beam="1">  1        1 0.85056741E-01 0.13588243E+03</pdfrwt>
<pdfrwt beam="2">  1       -1 0.38780259E-02 0.13588243E+03</pdfrwt>
<totfact> 0.96858544E+03</totfact>
</mgrwt>
</event>
<event>
 7    1  0.6387485E-006  0.1577379E+03  0.7546771E-02  0.1199006E+00
          2   -1    0    0  501    0  0.00000000000E+00  0.00000000000E+00  0.73160171084E+03  0.73160171084E+03  0.00000000000E+00 0. -1.
         -2   -1    0    0    0  501 -0.00000000000E+00 -0.00000000000E+00 -0.35681548073E+02  0.35681548073E+02  0.00000000000E+00 0.  1.
         23    2    1    2    0    0  0.89637831549E+02  0.34945303215E+02  0.20523325859E+03  0.25884734761E+03  0.12500057547E+03 0.  0.
          5    1    3    3  502    0  0.95793568889E+02 -0.17320475370E+02  0.16795502516E+03  0.19418390043E+03  0.47000000000E+01 0.  1.
         -5    1    3    3    0  502 -0.61557373395E+01  0.52265778585E+02  0.37278233431E+02  0.64663447179E+02  0.47000000000E+01 0.  1.
        -11    1    1    2    0    0 -0.99282624286E+02 -0.38799048960E+02  0.48503822057E+03  0.49661300939E+03  0.00000000000E+00 0. -1.
         11    1    1    2    0    0  0.96447927366E+01  0.38537457447E+01  0.56486836020E+01  0.11822901913E+02  0.00000000000E+00 0.  1.
<mgrwt>
<rscale>  0 0.15119981E+03</rscale>
<asrwt>0</asrwt>
<pdfrwt beam="1">  1        2 0.11255410E+00 0.15773794E+03</pdfrwt>
<pdfrwt beam="2">  1       -2 0.54894695E-02 0.15773794E+03</pdfrwt>
<totfact> 0.65575718E+03</totfact>
</mgrwt>
</event>
<event>
 7    1  0.6387485E-006  0.1571936E+03  0.7546771E-02  0.1197403E+00
         -1   -1    0    0    0  501 -0.00000000000E+00  0.00000000000E+00  0.23910241387E+03  0.23910241387E+03  0.00000000000E+00 0.  1.
          1   -1    0    0  501    0  0.00000000000E+00 -0.00000000000E+00 -0.96204261019E+02  0.96204261019E+02  0.00000000000E+00 0. -1.
         23    2    1    2    0    0  0.53330302032E+02 -0.78997550134E+02  0.11079910755E+03  0.19231812859E+03  0.12500034524E+03 0.  0.
          5    1    3    3  502    0 -0.21771338578E+02 -0.41358445433E+02 -0.70667275994E+01  0.47503061281E+02  0.47000000000E+01 0.  1.
         -5    1    3    3    0  502  0.75101640610E+02 -0.37639104701E+02  0.11786583515E+03  0.14481506731E+03  0.47000000000E+01 0.  1.
        -11    1    1    2    0    0 -0.28370622128E+02  0.21376145396E+02  0.63514860100E+02  0.72773410291E+02  0.00000000000E+00 0.  1.
         11    1    1    2    0    0 -0.24959679904E+02  0.57621404738E+02 -0.31415814798E+02  0.70215136005E+02  0.00000000000E+00 0. -1.
<mgrwt>
<rscale>  0 0.15252615E+03</rscale>
<asrwt>0</asrwt>
<pdfrwt beam="2">  1        1 0.14800656E-01 0.15719358E+03</pdfrwt>
<pdfrwt beam="1">  1       -1 0.36784986E-01 0.15719358E+03</pdfrwt>
<totfact> 0.26480341E+03</totfact>
</mgrwt>
</event>
<event>
 7    1  0.6387485E-006  0.1310004E+03  0.7546771E-02  0.1239720E+00
          2   -1    0    0  501    0  0.00000000000E+00  0.00000000000E+00  0.84505874457E+03  0.84505874457E+03  0.00000000000E+00 0. -1.
         -2   -1    0    0    0  501 -0.00000000000E+00 -0.00000000000E+00 -0.16992987475E+02  0.16992987475E+02  0.00000000000E+00 0.  1.
         23    2    1    2    0    0 -0.26531780105E+02  0.28853676979E+02  0.34594354879E+03  0.36991627800E+03  0.12499857499E+03 0.  0.
          5    1    3    3  502    0 -0.53355749343E+02  0.65855492744E+02  0.21532971443E+03  0.23145789645E+03  0.47000000000E+01 0.  1.
         -5    1    3    3    0  502  0.26823969238E+02 -0.37001815765E+02  0.13061383436E+03  0.13845838155E+03  0.47000000000E+01 0.  1.
        -11    1    1    2    0    0 -0.13427341931E+02  0.26843103990E+02  0.16188926143E+03  0.16464804496E+03  0.00000000000E+00 0. -1.
         11    1    1    2    0    0  0.39959122036E+02 -0.55696780969E+02  0.32023294688E+03  0.32748740909E+03  0.00000000000E+00 0.  1.
<mgrwt>
<rscale>  0 0.12207048E+03</rscale>
<asrwt>0</asrwt>
<pdfrwt beam="1">  1        2 0.13000901E+00 0.13100043E+03</pdfrwt>
<pdfrwt beam="2">  1       -2 0.26143064E-02 0.13100043E+03</pdfrwt>
<totfact> 0.16330211E+04</totfact>
</mgrwt>
</event>
<event>
 7    1  0.6387485E-006  0.1352633E+03  0.7546771E-02  0.1231718E+00
         -1   -1    0    0    0  501 -0.00000000000E+00  0.00000000000E+00  0.83919233862E+03  0.83919233862E+03  0.00000000000E+00 0.  1.
          1   -1    0    0  501    0  0.00000000000E+00 -0.00000000000E+00 -0.18996382020E+02  0.18996382020E+02  0.00000000000E+00 0. -1.
         23    2    1    2    0    0  0.47566871324E+02  0.20164163338E+02  0.58349770235E+03  0.59897056001E+03  0.12500784930E+03 0.  0.
          5    1    3    3  502    0  0.73409247233E+02  0.49534442655E+02  0.48205001475E+03  0.49013965898E+03  0.47000000000E+01 0.  1.
         -5    1    3    3    0  502 -0.25842375909E+02 -0.29370279317E+02  0.10144768760E+03  0.10883090103E+03  0.47000000000E+01 0.  1.
        -11    1    1    2    0    0 -0.35021443046E+02  0.25582491587E+02  0.18068731348E+03  0.18581945700E+03  0.00000000000E+00 0.  1.
         11    1    1    2    0    0 -0.12545428278E+02 -0.45746654925E+02  0.56010940774E+02  0.73398703625E+02  0.00000000000E+00 0. -1.
<mgrwt>
<rscale>  0 0.12716919E+03</rscale>
<asrwt>0</asrwt>
<pdfrwt beam="2">  1        1 0.29225210E-02 0.13526331E+03</pdfrwt>
<pdfrwt beam="1">  1       -1 0.12910648E+00 0.13526331E+03</pdfrwt>
<totfact> 0.19010506E+03</totfact>
</mgrwt>
</event>
<event>
 7    1  0.6387485E-006  0.1320261E+03  0.7546771E-02  0.1239472E+00
         -1   -1    0    0    0  501 -0.00000000000E+00  0.00000000000E+00  0.22853600737E+02  0.22853600737E+02  0.00000000000E+00 0.  1.
          1   -1    0    0  501    0  0.00000000000E+00 -0.00000000000E+00 -0.62983988569E+03  0.62983988569E+03  0.00000000000E+00 0. -1.
         23    2    1    2    0    0  0.40127140068E+02 -0.13948149570E+02 -0.24938100180E+03  0.28217328874E+03  0.12500457020E+03 0.  0.
          5    1    3    3  502    0  0.59854186613E+01 -0.58350827966E+02 -0.19604976774E+03  0.20469060993E+03  0.47000000000E+01 0.  1.
         -5    1    3    3    0  502  0.34141721406E+02  0.44402678397E+02 -0.53331234056E+02  0.77482678808E+02  0.47000000000E+01 0.  1.
        -11    1    1    2    0    0  0.16576894565E+02 -0.15930487493E+02 -0.36925661950E+02  0.43498027261E+02  0.00000000000E+00 0.  1.
         11    1    1    2    0    0 -0.56704034632E+02  0.29878637062E+02 -0.32067962121E+03  0.32702217043E+03  0.00000000000E+00 0. -1.
<mgrwt>
<rscale>  0 0.12222413E+03</rscale>
<asrwt>0</asrwt>
<pdfrwt beam="2">  1        1 0.96898446E-01 0.13202606E+03</pdfrwt>
<pdfrwt beam="1">  1       -1 0.35159385E-02 0.13202606E+03</pdfrwt>
<totfact> 0.93527980E+03</totfact>
</mgrwt>
</event>
<event>
 7    1  0.6387485E-006  0.1257103E+03  0.7546771E-02  0.1247655E+00
          2   -1    0    0  501    0  0.00000000000E+00  0.00000000000E+00  0.18056719816E+03  0.18056719816E+03  0.00000000000E+00 0. -1.
         -2   -1    0    0    0  501 -0.00000000000E+00 -0.00000000000E+00 -0.75321059012E+02  0.75321059012E+02  0.00000000000E+00 0.  1.
         23    2    1    2    0    0 -0.32312507114E+01 -0.12937630672E+02  0.18482696870E+02  0.12706173040E+03  0.12500099992E+03 0.  0.
          5    1    3    3  502    0 -0.16153125357E+02 -0.27700786992E+02 -0.47814374400E+02  0.57762976534E+02  0.47000000000E+01 0. -1.
         -5    1    3    3    0  502  0.12921874645E+02  0.14763156320E+02  0.66297071270E+02  0.69298753869E+02  0.47000000000E+01 0. -1.
        -11    1    1    2    0    0  0.44337362355E+02  0.43490993569E+01  0.17575498024E+02  0.47891695487E+02  0.00000000000E+00 0. -1.
         11    1    1    2    0    0 -0.41106111644E+02  0.85885313147E+01  0.69187944250E+02  0.80934831279E+02  0.00000000000E+00 0.  1.
<mgrwt>
<rscale>  0 0.11727874E+03</rscale>
<asrwt>0</asrwt>
<pdfrwt beam="1">  1        2 0.27779569E-01 0.12571028E+03</pdfrwt>
<pdfrwt beam="2">  1       -2 0.11587855E-01 0.12571028E+03</pdfrwt>
<totfact> 0.93761728E+03</totfact>
</mgrwt>
</event>
<event>
 7    1  0.6387485E-006  0.1669684E+03  0.7546771E-02  0.1187659E+00
         -1   -1    0    0    0  501 -0.00000000000E+00  0.00000000000E+00  0.42020894626E+03  0.42020894626E+03  0.00000000000E+00 0.  1.
          1   -1    0    0  501    0  0.00000000000E+00 -0.00000000000E+00 -0.96493101570E+02  0.96493101570E+02  0.00000000000E+00 0. -1.
         23    2    1    2    0    0 -0.54720675045E+02 -0.96214103974E+02  0.33281244776E+03  0.37234738335E+03  0.12500776944E+03 0.  0.
          5    1    3    3  502    0 -0.19570729353E+02 -0.10523285405E+03  0.14106362479E+03  0.17713837320E+03  0.47000000000E+01 0.  1.
         -5    1    3    3    0  502 -0.35149945692E+02  0.90187500741E+01  0.19174882296E+03  0.19520901015E+03  0.47000000000E+01 0.  1.
        -11    1    1    2    0    0  0.48255089587E+02  0.11096935619E+03 -0.22882222608E+02  0.12315172673E+03  0.00000000000E+00 0.  1.
         11    1    1    2    0    0  0.64655854578E+01 -0.14755252220E+02  0.13785619541E+02  0.21202937757E+02  0.00000000000E+00 0. -1.
<mgrwt>
<rscale>  0 0.16092274E+03</rscale>
<asrwt>0</asrwt>
<pdfrwt beam="2">  1        1 0.14845093E-01 0.16696841E+03</pdfrwt>
<pdfrwt beam="1">  1       -1 0.64647529E-01 0.16696841E+03</pdfrwt>
<totfact> 0.94198481E+02</totfact>
</mgrwt>
</event>
<event>
 7    1  0.6387485E-006  0.1293561E+03  0.7546771E-02  0.1242704E+00
         -4   -1    0    0    0  501 -0.00000000000E+00  0.00000000000E+00  0.22599722821E+03  0.22599722821E+03  0.00000000000E+00 0. -1.
          4   -1    0    0  501    0  0.00000000000E+00 -0.00000000000E+00 -0.57145384445E+02  0.57145384445E+02  0.00000000000E+00 0.  1.
         23    2    1    2    0    0 -0.15839501221E+02  0.29315528558E+02  0.11186764333E+03  0.17101859091E+03  0.12499079486E+03 0.  0.
          5    1    3    3  502    0  0.37988000157E+01 -0.56357862471E+01  0.12747397111E+03  0.12774152136E+03  0.47000000000E+01 0.  1.
         -5    1    3    3    0  502 -0.19638301237E+02  0.34951314805E+02 -0.15606327786E+02  0.43277069553E+02  0.47000000000E+01 0.  1.
        -11    1    1    2    0    0 -0.23567428418E+02 -0.46703019203E+02  0.22491163892E+02  0.56942498524E+02  0.00000000000E+00 0.  1.
         11    1    1    2    0    0  0.39406929639E+02  0.17387490645E+02  0.34493036546E+02  0.55181523218E+02  0.00000000000E+00 0. -1.
<mgrwt>
<rscale>  0 0.12023858E+03</rscale>
<asrwt>0</asrwt>
<pdfrwt beam="2">  1        4 0.87915977E-02 0.12935605E+03</pdfrwt>
<pdfrwt beam="1">  1       -4 0.34768804E-01 0.12935605E+03</pdfrwt>
<totfact> 0.12321750E+03</totfact>
</mgrwt>
</event>
<event>
 7    1  0.6387485E-006  0.1384603E+03  0.7546771E-02  0.1226383E+00
          1   -1    0    0  501    0  0.00000000000E+00  0.00000000000E+00  0.55199104269E+02  0.55199104269E+02  0.00000000000E+00 0. -1.
         -1   -1    0    0    0  501 -0.00000000000E+00 -0.00000000000E+00 -0.28602019281E+03  0.28602019281E+03  0.00000000000E+00 0.  1.
         23    2    1    2    0    0  0.46291346893E+02 -0.37458307497E+02 -0.15365742630E+03  0.20683776210E+03  0.12500096630E+03 0.  0.
          5    1    3    3  502    0  0.66090833273E+02 -0.67293038198E+02 -0.13858914234E+03  0.16770626585E+03  0.47000000000E+01 0. -1.
         -5    1    3    3    0  502 -0.19799486380E+02  0.29834730701E+02 -0.15068283962E+02  0.39131496246E+02  0.47000000000E+01 0. -1.
        -11    1    1    2    0    0  0.25959855288E+02  0.18259750379E+02 -0.39500507249E+02  0.50671714431E+02  0.00000000000E+00 0.  1.
         11    1    1    2    0    0 -0.72251202181E+02  0.19198557119E+02 -0.37663154993E+02  0.83709820548E+02  0.00000000000E+00 0. -1.
<mgrwt>
<rscale>  0 0.13072565E+03</rscale>
<asrwt>0</asrwt>
<pdfrwt beam="1">  1        1 0.84921699E-02 0.13846030E+03</pdfrwt>
<pdfrwt beam="2">  1       -1 0.44003106E-01 0.13846030E+03</pdfrwt>
<totfact> 0.39964858E+03</totfact>
</mgrwt>
</event>
<event>
 7    1  0.6387485E-006  0.1557904E+03  0.7546771E-02  0.1201597E+00
         -2   -1    0    0    0  501 -0.00000000000E+00  0.00000000000E+00  0.54848947073E+02  0.54848947073E+02  0.00000000000E+00 0.  1.
          2   -1    0    0  501    0  0.00000000000E+00 -0.00000000000E+00 -0.37501568902E+03  0.37501568902E+03  0.00000000000E+00 0. -1.
         23    2    1    2    0    0 -0.82869308930E+02  0.42175691613E+02 -0.18515007499E+03  0.24197355707E+03  0.12499816289E+03 0.  0.
          5    1    3    3  502    0 -0.10411163389E+03 -0.43260012148E+01 -0.12890518666E+03  0.16582093880E+03  0.47000000000E+01 0. -1.
         -5    1    3    3    0  502  0.21242324958E+02  0.46501692828E+02 -0.56244888335E+02  0.76152618270E+02  0.47000000000E+01 0. -1.
        -11    1    1    2    0    0  0.99727270172E+01  0.39971808710E+01  0.12812279112E+02  0.16720862272E+02  0.00000000000E+00 0.  1.
         11    1    1    2    0    0  0.72896581913E+02 -0.46172872484E+02 -0.14782894606E+03  0.17117021675E+03  0.00000000000E+00 0. -1.
<mgrwt>
<rscale>  0 0.14908915E+03</rscale>
<asrwt>0</asrwt>
<pdfrwt beam="2">  1        2 0.57694719E-01 0.15579041E+03</pdfrwt>
<pdfrwt beam="1">  1       -2 0.84382999E-02 0.15579041E+03</pdfrwt>
<totfact> 0.71714378E+03</totfact>
</mgrwt>
</event>
<event>
 7    1  0.6387485E-006  0.2091615E+03  0.7546771E-02  0.1145688E+00
         -1   -1    0    0    0  501 -0.00000000000E+00  0.00000000000E+00  0.13408424034E+03  0.13408424034E+03  0.00000000000E+00 0.  1.
          1   -1    0    0  501    0  0.00000000000E+00 -0.00000000000E+00 -0.30641938863E+03  0.30641938863E+03  0.00000000000E+00 0. -1.
         23    2    1    2    0    0  0.16186533718E+03  0.43859122823E+02 -0.60044175764E+02  0.21760941145E+03  0.12499817148E+03 0.  0.
          5    1    3    3  502    0  0.17065093772E+03  0.20259241947E+02 -0.75422723497E+02  0.18773080900E+03  0.47000000000E+01 0.  1.
         -5    1    3    3    0  502 -0.87856005352E+01  0.23599880876E+02  0.15378547734E+02  0.29878602452E+02  0.47000000000E+01 0.  1.
        -11    1    1    2    0    0 -0.11247636040E+03 -0.15789173430E+02 -0.12039014948E+03  0.16551138250E+03  0.00000000000E+00 0. -1.
         11    1    1    2    0    0 -0.49388976781E+02 -0.28069949393E+02  0.80991769529E+01  0.57382835009E+02  0.00000000000E+00 0.  1.
<mgrwt>
<rscale>  0 0.20487689E+03</rscale>
<asrwt>0</asrwt>
<pdfrwt beam="2">  1        1 0.47141444E-01 0.20916155E+03</pdfrwt>
<pdfrwt beam="1">  1       -1 0.20628345E-01 0.20916155E+03</pdfrwt>
<totfact> 0.16240567E+03</totfact>
</mgrwt>
</event>
<event>
 7    1  0.6387485E-006  0.1298581E+03  0.7546771E-02  0.1241682E+00
         -3   -1    0    0    0  501 -0.00000000000E+00  0.00000000000E+00  0.83283549092E+02  0.83283549092E+02  0.00000000000E+00 0.  1.
          3   -1    0    0  501    0  0.00000000000E+00 -0.00000000000E+00 -0.20126629309E+03  0.20126629309E+03  0.00000000000E+00 0. -1.
         23    2    1    2    0    0 -0.62372637555E+01  0.34594945433E+02  0.21382882954E+01  0.12987570372E+03  0.12500964935E+03 0.  0.
          5    1    3    3  502    0  0.50337743720E+01  0.66587517912E+02  0.40668133989E+02  0.78327667833E+02  0.47000000000E+01 0.  1.
         -5    1    3    3    0  502 -0.11271038127E+02 -0.31992572479E+02 -0.38529845694E+02  0.51548035883E+02  0.47000000000E+01 0. -1.
        -11    1    1    2    0    0 -0.16925024364E+02 -0.60368073202E+02 -0.74061656679E+02  0.97035507428E+02  0.00000000000E+00 0.  1.
         11    1    1    2    0    0  0.23162288120E+02  0.25773127769E+02 -0.46059375615E+02  0.57638631039E+02  0.00000000000E+00 0. -1.
<mgrwt>
<rscale>  0 0.12086173E+03</rscale>
<asrwt>0</asrwt>
<pdfrwt beam="2">  1        3 0.30964045E-01 0.12985810E+03</pdfrwt>
<pdfrwt beam="1">  1       -3 0.12812854E-01 0.12985810E+03</pdfrwt>
<totfact> 0.11254297E+03</totfact>
</mgrwt>
</event>
<event>
 7    1  0.6387485E-006  0.1363515E+03  0.7546771E-02  0.1230652E+00
         -2   -1    0    0    0  501 -0.00000000000E+00  0.00000000000E+00  0.78597410160E+02  0.78597410160E+02  0.00000000000E+00 0.  1.
          2   -1    0    0  501    0  0.00000000000E+00 -0.00000000000E+00 -0.19139412877E+03  0.19139412877E+03  0.00000000000E+00 0. -1.
         23    2    1    2    0    0  0.49529009279E+02  0.22704794981E+02 -0.40893000548E+02  0.14235158121E+03  0.12499241858E+03 0.  0.
          5    1    3    3  502    0  0.63183817939E+02 -0.36482232486E+02 -0.92295914683E+01  0.73691407200E+02  0.47000000000E+01 0.  1.
         -5    1    3    3    0  502 -0.13654808659E+02  0.59187027467E+02 -0.31663409080E+02  0.68660174006E+02  0.47000000000E+01 0.  1.
        -11    1    1    2    0    0 -0.23773885503E+02 -0.40100366748E+02  0.28274818873E+01  0.46703658305E+02  0.00000000000E+00 0.  1.
         11    1    1    2    0    0 -0.25755123777E+02  0.17395571767E+02 -0.74731199951E+02  0.80936299421E+02  0.00000000000E+00 0. -1.
<mgrwt>
<rscale>  0 0.12786949E+03</rscale>
<asrwt>0</asrwt>
<pdfrwt beam="2">  1        2 0.29445250E-01 0.13635151E+03</pdfrwt>
<pdfrwt beam="1">  1       -2 0.12091909E-01 0.13635151E+03</pdfrwt>
<totfact> 0.82753892E+03</totfact>
</mgrwt>
</event>
<event>
 6    1  0.6387485E-006  0.2834751E+03  0.7546771E-02  0.1126994E+00
          2   -1    0    0  501    0  0.00000000000E+00  0.00000000000E+00  0.26905331587E+03  0.26905331587E+03  0.00000000000E+00 0. -1.
         -2   -1    0    0    0  501 -0.00000000000E+00 -0.00000000000E+00 -0.15549189148E+03  0.15549189148E+03  0.00000000000E+00 0.  1.
          5    1    1    2  502    0 -0.11248764844E+02  0.43399266413E+02  0.16380121824E+03  0.16989102429E+03  0.47000000000E+01 0. -1.
         -5    1    1    2    0  502  0.12544837407E+02  0.37825523443E+02 -0.11138196457E+03  0.11838992863E+03  0.47000000000E+01 0.  1.
        -11    1    1    2    0    0 -0.17605715364E+02  0.15127816932E+02  0.56716373976E+01  0.23895177952E+02  0.00000000000E+00 0. -1.
         11    1    1    2    0    0  0.16309642801E+02 -0.96352606788E+02  0.55470533326E+02  0.11236907649E+03  0.00000000000E+00 0.  1.
<mgrwt>
<rscale>  0 0.22949715E+03</rscale>
<asrwt>0</asrwt>
<pdfrwt beam="1">  1        2 0.41392818E-01 0.28347510E+03</pdfrwt>
<pdfrwt beam="2">  1       -2 0.23921829E-01 0.28347510E+03</pdfrwt>
<totfact> 0.18902475E+03</totfact>
</mgrwt>
</event>
<event>
 7    1  0.6387485E-006  0.1264009E+03  0.7546771E-02  0.1249477E+00
         -2   -1    0    0    0  501 -0.00000000000E+00  0.00000000000E+00  0.65179731386E+02  0.65179731386E+02  0.00000000000E+00 0.  1.
          2   -1    0    0  501    0  0.00000000000E+00 -0.00000000000E+00 -0.18761418561E+03  0.18761418561E+03  0.00000000000E+00 0. -1.
         23    2    1    2    0    0  0.11008369873E+02 -0.15158655279E+02 -0.46125919525E+02  0.13455401014E+03  0.12500484853E+03 0.  0.
          5    1    3    3  502    0 -0.12953944643E+02  0.17600701714E+02 -0.79006526582E+02  0.82107920599E+02  0.47000000000E+01 0. -1.
         -5    1    3    3    0  502  0.23962314517E+02 -0.32759356993E+02  0.32880607057E+02  0.52446089540E+02  0.47000000000E+01 0. -1.
        -11    1    1    2    0    0 -0.11028903805E+02 -0.34814705780E+02 -0.49548098079E+02  0.61552534318E+02  0.00000000000E+00 0. -1.
         11    1    1    2    0    0  0.20533931590E-01  0.49973361059E+02 -0.26760436619E+02  0.56687372538E+02  0.00000000000E+00 0.  1.
<mgrwt>
<rscale>  0 0.11621399E+03</rscale>
<asrwt>0</asrwt>
<pdfrwt beam="2">  1        2 0.28863721E-01 0.12640087E+03</pdfrwt>
<pdfrwt beam="1">  1       -2 0.10027651E-01 0.12640087E+03</pdfrwt>
<totfact> 0.11305704E+04</totfact>
</mgrwt>
</event>
<event>
 6    1  0.6387485E-006  0.1711874E+03  0.7546771E-02  0.1187626E+00
          1   -1    0    0  501    0  0.00000000000E+00  0.00000000000E+00  0.17925368049E+03  0.17925368049E+03  0.00000000000E+00 0. -1.
         -1   -1    0    0    0  501 -0.00000000000E+00 -0.00000000000E+00 -0.18256978525E+03  0.18256978525E+03  0.00000000000E+00 0.  1.
          5    1    1    2  502    0 -0.38213245343E+02  0.15661193898E+01  0.97058292818E+01  0.39736607450E+02  0.47000000000E+01 0. -1.
         -5    1    1    2    0  502  0.64212766132E+02  0.95019719676E+02 -0.10833419670E+03  0.15783033497E+03  0.47000000000E+01 0.  1.
        -11    1    1    2    0    0  0.30620742005E+02 -0.17626773166E+02  0.15783483941E+02  0.38696916395E+02  0.00000000000E+00 0.  1.
         11    1    1    2    0    0 -0.56620262794E+02 -0.78959065900E+02  0.79528778723E+02  0.12555960693E+03  0.00000000000E+00 0. -1.
<mgrwt>
<rscale>  0 0.16095251E+03</rscale>
<asrwt>0</asrwt>
<pdfrwt beam="1">  1        1 0.27577489E-01 0.17118745E+03</pdfrwt>
<pdfrwt beam="2">  1       -1 0.28087659E-01 0.17118745E+03</pdfrwt>
<totfact> 0.18991317E+03</totfact>
</mgrwt>
</event>
<event>
 7    1  0.6387485E-006  0.1299168E+03  0.7546771E-02  0.1242023E+00
          1   -1    0    0  501    0  0.00000000000E+00  0.00000000000E+00  0.56447230667E+03  0.56447230667E+03  0.00000000000E+00 0. -1.
         -1   -1    0    0    0  501 -0.00000000000E+00 -0.00000000000E+00 -0.45035840568E+02  0.45035840568E+02  0.00000000000E+00 0.  1.
         23    2    1    2    0    0  0.14910674505E+02 -0.32124260732E+02  0.65682140054E+02  0.14557647657E+03  0.12499628261E+03 0.  0.
          5    1    3    3  502    0 -0.50808237288E+02 -0.20447874664E+02  0.55100537520E+02  0.77831560369E+02  0.47000000000E+01 0. -1.
         -5    1    3    3    0  502  0.65718911793E+02 -0.11676386068E+02  0.10581602534E+02  0.67744916201E+02  0.47000000000E+01 0. -1.
        -11    1    1    2    0    0 -0.49420798599E+02  0.25831524293E+01  0.27984962574E+03  0.28419166251E+03  0.00000000000E+00 0. -1.
         11    1    1    2    0    0  0.34510124094E+02  0.29541108303E+02  0.17390470031E+03  0.17974000816E+03  0.00000000000E+00 0.  1.
<mgrwt>
<rscale>  0 0.12065352E+03</rscale>
<asrwt>0</asrwt>
<pdfrwt beam="1">  1        1 0.86841888E-01 0.12991677E+03</pdfrwt>
<pdfrwt beam="2">  1       -1 0.69285913E-02 0.12991677E+03</pdfrwt>
<totfact> 0.39788149E+03</totfact>
</mgrwt>
</event>
<event>
 7    1  0.6387485E-006  0.1350194E+03  0.7546771E-02  0.1228602E+00
          2   -1    0    0  501    0  0.00000000000E+00  0.00000000000E+00  0.23466659790E+03  0.23466659790E+03  0.00000000000E+00 0. -1.
         -2   -1    0    0    0  501 -0.00000000000E+00 -0.00000000000E+00 -0.77763320728E+02  0.77763320728E+02  0.00000000000E+00 0.  1.
         23    2    1    2    0    0 -0.66621538054E+02 -0.75225296877E+01  0.22911351612E+02  0.13694952650E+03  0.11719737621E+03 0.  0.
          5    1    3    3  502    0 -0.72581773830E+02  0.12267090211E+02  0.59431201992E+02  0.94724617522E+02  0.47000000000E+01 0. -1.
         -5    1    3    3    0  502  0.59602357763E+01 -0.19789619898E+02 -0.36519850379E+02  0.42224908975E+02  0.47000000000E+01 0.  1.
        -11    1    1    2    0    0  0.19289055124E+02  0.46907288884E+02  0.72314373272E+02  0.88327402202E+02  0.00000000000E+00 0.  1.
         11    1    1    2    0    0  0.47332482930E+02 -0.39384759196E+02  0.61677552288E+02  0.87152989928E+02  0.00000000000E+00 0. -1.
<mgrwt>
<rscale>  0 0.12923074E+03</rscale>
<asrwt>0</asrwt>
<pdfrwt beam="1">  1        2 0.36102553E-01 0.13501942E+03</pdfrwt>
<pdfrwt beam="2">  1       -2 0.11963588E-01 0.13501942E+03</pdfrwt>
<totfact> 0.67547698E+03</totfact>
</mgrwt>
</event>
<event>
 7    1  0.6387485E-006  0.1841411E+03  0.7546771E-02  0.1169078E+00
          1   -1    0    0  501    0  0.00000000000E+00  0.00000000000E+00  0.34329174103E+03  0.34329174103E+03  0.00000000000E+00 0. -1.
         -1   -1    0    0    0  501 -0.00000000000E+00 -0.00000000000E+00 -0.90615178527E+02  0.90615178527E+02  0.00000000000E+00 0.  1.
         23    2    1    2    0    0  0.12939161039E+03 -0.39237743086E+02  0.96215006953E+02  0.20776254581E+03  0.12500463414E+03 0.  0.
          5    1    3    3  502    0  0.13418797828E+03  0.88792625689E+01  0.79981878526E+02  0.15653895909E+03  0.47000000000E+01 0.  1.
         -5    1    3    3    0  502 -0.47963678973E+01 -0.48117005655E+02  0.16233128427E+02  0.51223586722E+02  0.47000000000E+01 0.  1.
        -11    1    1    2    0    0 -0.39383760254E+02  0.56685241605E+02  0.47737362730E+02  0.83923494851E+02  0.00000000000E+00 0.  1.
         11    1    1    2    0    0 -0.90007850131E+02 -0.17447498519E+02  0.10872419282E+03  0.14222087890E+03  0.00000000000E+00 0. -1.
<mgrwt>
<rscale>  0 0.17868897E+03</rscale>
<asrwt>0</asrwt>
<pdfrwt beam="1">  1        1 0.52814113E-01 0.18414111E+03</pdfrwt>
<pdfrwt beam="2">  1       -1 0.13940797E-01 0.18414111E+03</pdfrwt>
<totfact> 0.26237145E+03</totfact>
</mgrwt>
</event>
<event>
 7    1  0.6387485E-006  0.1363576E+03  0.7546771E-02  0.1227662E+00
          1   -1    0    0  501    0  0.00000000000E+00  0.00000000000E+00  0.63429705634E+03  0.63429705634E+03  0.00000000000E+00 0. -1.
         -1   -1    0    0    0  501 -0.00000000000E+00 -0.00000000000E+00 -0.24748494060E+02  0.24748494060E+02  0.00000000000E+00 0.  1.
         23    2    1    2    0    0  0.52134956311E+02  0.34866725336E+02  0.29203169584E+03  0.32229784690E+03  0.12107703555E+03 0.  0.
          5    1    3    3  502    0  0.68496184302E+02 -0.82442280815E+01  0.25114559228E+03  0.26049163726E+03  0.47000000000E+01 0. -1.
         -5    1    3    3    0  502 -0.16361227991E+02  0.43110953418E+02  0.40886103554E+02  0.61806209638E+02  0.47000000000E+01 0.  1.
        -11    1    1    2    0    0 -0.35160218838E+02  0.24568242922E+02  0.74232816389E+02  0.85734185586E+02  0.00000000000E+00 0.  1.
         11    1    1    2    0    0 -0.16974737473E+02 -0.59434968258E+02  0.24328405005E+03  0.25101351791E+03  0.00000000000E+00 0. -1.
<mgrwt>
<rscale>  0 0.12986090E+03</rscale>
<asrwt>0</asrwt>
<pdfrwt beam="1">  1        1 0.97584150E-01 0.13635758E+03</pdfrwt>
<pdfrwt beam="2">  1       -1 0.38074611E-02 0.13635758E+03</pdfrwt>
<totfact> 0.82594800E+03</totfact>
</mgrwt>
</event>
<event>
 7    1  0.6387485E-006  0.2005787E+03  0.7546771E-02  0.1153519E+00
         -2   -1    0    0    0  501 -0.00000000000E+00  0.00000000000E+00  0.52375504872E+02  0.52375504872E+02  0.00000000000E+00 0.  1.
          2   -1    0    0  501    0  0.00000000000E+00 -0.00000000000E+00 -0.75605469690E+03  0.75605469690E+03  0.00000000000E+00 0. -1.
         23    2    1    2    0    0  0.15368157568E+03  0.31456527154E+02 -0.25458146207E+03  0.32410418251E+03  0.12499704193E+03 0.  0.
          5    1    3    3  502    0  0.13257625326E+03 -0.26972682370E+02 -0.19857621270E+03  0.24033017034E+03  0.47000000000E+01 0. -1.
         -5    1    3    3    0  502  0.21105322415E+02  0.58429209525E+02 -0.56005249364E+02  0.83774012177E+02  0.47000000000E+01 0. -1.
        -11    1    1    2    0    0 -0.92490202780E+02 -0.18387589305E+02 -0.13893727526E+03  0.16791696611E+03  0.00000000000E+00 0.  1.
         11    1    1    2    0    0 -0.61191372897E+02 -0.13068937849E+02 -0.31016045470E+03  0.31640905315E+03  0.00000000000E+00 0. -1.
<mgrwt>
<rscale>  0 0.19558469E+03</rscale>
<asrwt>0</asrwt>
<pdfrwt beam="2">  1        2 0.11631611E+00 0.20057866E+03</pdfrwt>
<pdfrwt beam="1">  1       -2 0.80577696E-02 0.20057866E+03</pdfrwt>
<totfact> 0.35253656E+03</totfact>
</mgrwt>
</event>
<event>
 7    1  0.6387485E-006  0.1333520E+03  0.7546771E-02  0.1240179E+00
         -2   -1    0    0    0  501 -0.00000000000E+00  0.00000000000E+00  0.15401194221E+03  0.15401194221E+03  0.00000000000E+00 0.  1.
          2   -1    0    0  501    0  0.00000000000E+00 -0.00000000000E+00 -0.83645346459E+02  0.83645346459E+02  0.00000000000E+00 0. -1.
         23    2    1    2    0    0  0.16484064505E+02 -0.43454860821E+02  0.51742227547E+02  0.14303846799E+03  0.12499078326E+03 0.  0.
          5    1    3    3  502    0  0.65179242305E+02 -0.50568064195E+02  0.22648051499E+02  0.85676641978E+02  0.47000000000E+01 0.  1.
         -5    1    3    3    0  502 -0.48695177800E+02  0.71132033736E+01  0.29094176047E+02  0.57361826009E+02  0.47000000000E+01 0.  1.
        -11    1    1    2    0    0 -0.44551949653E+02  0.19858234728E+02 -0.78321025283E+01  0.49402100506E+02  0.00000000000E+00 0. -1.
         11    1    1    2    0    0  0.28067885148E+02  0.23596626093E+02  0.26456470729E+02  0.45216720172E+02  0.00000000000E+00 0.  1.
<mgrwt>
<rscale>  0 0.12178640E+03</rscale>
<asrwt>0</asrwt>
<pdfrwt beam="2">  1        2 0.12868515E-01 0.13335196E+03</pdfrwt>
<pdfrwt beam="1">  1       -2 0.23694145E-01 0.13335196E+03</pdfrwt>
<totfact> 0.69273178E+03</totfact>
</mgrwt>
</event>
<event>
 7    1  0.6387485E-006  0.1347684E+03  0.7546771E-02  0.1232700E+00
         -2   -1    0    0    0  501 -0.00000000000E+00  0.00000000000E+00  0.90966066622E+02  0.90966066622E+02  0.00000000000E+00 0.  1.
          2   -1    0    0  501    0  0.00000000000E+00 -0.00000000000E+00 -0.17392999918E+03  0.17392999918E+03  0.00000000000E+00 0. -1.
         23    2    1    2    0    0 -0.44980819430E+02 -0.22677813804E+02 -0.59216722276E+01  0.13489841526E+03  0.12499983553E+03 0.  0.
          5    1    3    3  502    0  0.32800293578E+02 -0.29058938795E+02  0.25176822177E+02  0.50756709484E+02  0.47000000000E+01 0. -1.
         -5    1    3    3    0  502 -0.77781113008E+02  0.63811249907E+01 -0.31098494404E+02  0.84141705778E+02  0.47000000000E+01 0. -1.
        -11    1    1    2    0    0  0.42400441412E+02  0.37067810003E+02 -0.50599747318E+01  0.56545763012E+02  0.00000000000E+00 0.  1.
         11    1    1    2    0    0  0.25803780188E+01 -0.14389996199E+02 -0.71982285594E+02  0.73451887523E+02  0.00000000000E+00 0. -1.
<mgrwt>
<rscale>  0 0.12652797E+03</rscale>
<asrwt>0</asrwt>
<pdfrwt beam="2">  1        2 0.26758461E-01 0.13476838E+03</pdfrwt>
<pdfrwt beam="1">  1       -2 0.13994780E-01 0.13476838E+03</pdfrwt>
<totfact> 0.72534985E+03</totfact>
</mgrwt>
</event>
<event>
 7    1  0.6387485E-006  0.1742795E+03  0.7546771E-02  0.1179833E+00
          1   -1    0    0  501    0  0.00000000000E+00  0.00000000000E+00  0.42425286479E+03  0.42425286479E+03  0.00000000000E+00 0. -1.
         -1   -1    0    0    0  501 -0.00000000000E+00 -0.00000000000E+00 -0.79168707882E+02  0.79168707882E+02  0.00000000000E+00 0.  1.
         23    2    1    2    0    0  0.14502197468E+02  0.12057090160E+03  0.66373349125E+02  0.18649066410E+03  0.12500276109E+03 0.  0.
          5    1    3    3  502    0 -0.16201410589E+02  0.13171019148E+03  0.74838922986E+02  0.15242379945E+03  0.47000000000E+01 0.  1.
         -5    1    3    3    0  502  0.30703608057E+02 -0.11139289877E+02 -0.84655738609E+01  0.34066864655E+02  0.47000000000E+01 0.  1.
        -11    1    1    2    0    0 -0.40717301597E+02 -0.67220089490E+02  0.21900548992E+03  0.23267970194E+03  0.00000000000E+00 0. -1.
         11    1    1    2    0    0  0.26215104130E+02 -0.53350812110E+02  0.59705317862E+02  0.84251206628E+02  0.00000000000E+00 0.  1.
<mgrwt>
<rscale>  0 0.16811031E+03</rscale>
<asrwt>0</asrwt>
<pdfrwt beam="1">  1        1 0.65269670E-01 0.17427951E+03</pdfrwt>
<pdfrwt beam="2">  1       -1 0.12179801E-01 0.17427951E+03</pdfrwt>
<totfact> 0.24727086E+03</totfact>
</mgrwt>
</event>
<event>
 7    1  0.6387485E-006  0.1374019E+03  0.7546771E-02  0.1228738E+00
          2   -1    0    0  501    0  0.00000000000E+00  0.00000000000E+00  0.64892899770E+03  0.64892899770E+03  0.00000000000E+00 0. -1.
         -2   -1    0    0    0  501 -0.00000000000E+00 -0.00000000000E+00 -0.24785913069E+02  0.24785913069E+02  0.00000000000E+00 0.  1.
         23    2    1    2    0    0  0.57034510201E+02 -0.16388689426E+01  0.25943796522E+03  0.29357678714E+03  0.12499460352E+03 0.  0.
          5    1    3    3  502    0  0.21108578456E+02 -0.27483243578E+02  0.50605926979E+01  0.35335539623E+02  0.47000000000E+01 0. -1.
         -5    1    3    3    0  502  0.35925931745E+02  0.25844374635E+02  0.25437737252E+03  0.25824124752E+03  0.47000000000E+01 0. -1.
        -11    1    1    2    0    0  0.11443680288E+02  0.30608224600E+02  0.10133030806E+03  0.10646902162E+03  0.00000000000E+00 0.  1.
         11    1    1    2    0    0 -0.68478190489E+02 -0.28969355658E+02  0.26337481135E+03  0.27366910201E+03  0.00000000000E+00 0. -1.
<mgrwt>
<rscale>  0 0.12913944E+03</rscale>
<asrwt>0</asrwt>
<pdfrwt beam="1">  1        2 0.99835218E-01 0.13740186E+03</pdfrwt>
<pdfrwt beam="2">  1       -2 0.38132179E-02 0.13740186E+03</pdfrwt>
<totfact> 0.12942518E+04</totfact>
</mgrwt>
</event>
<event>
 7    1  0.6387485E-006  0.2076839E+03  0.7546771E-02  0.1147521E+00
          2   -1    0    0  501    0  0.00000000000E+00  0.00000000000E+00  0.10113536704E+04  0.10113536704E+04  0.00000000000E+00 0. -1.
         -2   -1    0    0    0  501 -0.00000000000E+00 -0.00000000000E+00 -0.75075266487E+02  0.75075266487E+02  0.00000000000E+00 0.  1.
         23    2    1    2    0    0 -0.15853403421E+03 -0.48709758379E+02  0.10239183093E+03  0.23155275926E+03  0.12500765062E+03 0.  0.
          5    1    3    3  502    0 -0.17315862620E+03 -0.19101291984E+02  0.83959492426E+02  0.19344264150E+03  0.47000000000E+01 0. -1.
         -5    1    3    3    0  502  0.14624591984E+02 -0.29608466395E+02  0.18432338502E+02  0.38110117759E+02  0.47000000000E+01 0. -1.
        -11    1    1    2    0    0  0.64046015001E+02 -0.21410823003E+02  0.23353803933E+03  0.24310559679E+03  0.00000000000E+00 0.  1.
         11    1    1    2    0    0  0.94488019214E+02  0.70120581382E+02  0.60034853362E+03  0.61177058080E+03  0.00000000000E+00 0. -1.
<mgrwt>
<rscale>  0 0.20265098E+03</rscale>
<asrwt>0</asrwt>
<pdfrwt beam="1">  1        2 0.15559286E+00 0.20768388E+03</pdfrwt>
<pdfrwt beam="2">  1       -2 0.11550042E-01 0.20768388E+03</pdfrwt>
<totfact> 0.13606051E+03</totfact>
</mgrwt>
</event>
<event>
 7    1  0.6387485E-006  0.1377645E+03  0.7546771E-02  0.1218849E+00
         -2   -1    0    0    0  501 -0.00000000000E+00  0.00000000000E+00  0.92130395080E+02  0.92130395080E+02  0.00000000000E+00 0.  1.
          2   -1    0    0  501    0  0.00000000000E+00 -0.00000000000E+00 -0.21131142707E+03  0.21131142707E+03  0.00000000000E+00 0. -1.
         23    2    1    2    0    0  0.38117767626E+02 -0.41888874834E+01 -0.16846234723E+02  0.13182749286E+03  0.12499672501E+03 0.  0.
          5    1    3    3  502    0  0.34974175370E+02  0.55788423159E+02  0.83285788955E+01  0.66535677105E+02  0.47000000000E+01 0. -1.
         -5    1    3    3    0  502  0.31435922557E+01 -0.59977310643E+02 -0.25174813619E+02  0.65291815758E+02  0.47000000000E+01 0. -1.
        -11    1    1    2    0    0  0.30893346208E+02  0.33881522624E+01  0.15748805252E+02  0.34841114829E+02  0.00000000000E+00 0.  1.
         11    1    1    2    0    0 -0.69011113834E+02  0.80073522104E+00 -0.11808360252E+03  0.13677321446E+03  0.00000000000E+00 0. -1.
<mgrwt>
<rscale>  0 0.13597552E+03</rscale>
<asrwt>0</asrwt>
<pdfrwt beam="2">  1        2 0.32509450E-01 0.13776454E+03</pdfrwt>
<pdfrwt beam="1">  1       -2 0.14173907E-01 0.13776454E+03</pdfrwt>
<totfact> 0.57606454E+03</totfact>
</mgrwt>
</event>
<event>
 7    1  0.6387485E-006  0.1592340E+03  0.7546771E-02  0.1197855E+00
          2   -1    0    0  501    0  0.00000000000E+00  0.00000000000E+00  0.11945807968E+04  0.11945807968E+04  0.00000000000E+00 0.  1.
         -2   -1    0    0    0  501 -0.00000000000E+00 -0.00000000000E+00 -0.17950205652E+02  0.17950205652E+02  0.00000000000E+00 0. -1.
         23    2    1    2    0    0  0.27138114888E+02  0.94844349994E+02  0.68867363861E+03  0.70684287654E+03  0.12499417425E+03 0.  0.
          5    1    3    3  502    0  0.16823484776E+02  0.12056577039E+03  0.43893252705E+03  0.45552495863E+03  0.47000000000E+01 0.  1.
         -5    1    3    3    0  502  0.10314630111E+02 -0.25721420396E+02  0.24974111156E+03  0.25131791791E+03  0.47000000000E+01 0.  1.
        -11    1    1    2    0    0 -0.52940487907E+02 -0.83987425230E+02  0.43016738072E+03  0.44147543339E+03  0.00000000000E+00 0.  1.
         11    1    1    2    0    0  0.25802373019E+02 -0.10856924764E+02  0.57789571798E+02  0.64212692495E+02  0.00000000000E+00 0. -1.
<mgrwt>
<rscale>  0 0.15215036E+03</rscale>
<asrwt>0</asrwt>
<pdfrwt beam="1">  1        2 0.18378160E+00 0.15923402E+03</pdfrwt>
<pdfrwt beam="2">  1       -2 0.27615710E-02 0.15923402E+03</pdfrwt>
<totfact> 0.94245825E+03</totfact>
</mgrwt>
</event>
<event>
 7    1  0.6387485E-006  0.1421243E+03  0.7546771E-02  0.1221482E+00
          1   -1    0    0  501    0  0.00000000000E+00  0.00000000000E+00  0.38987919971E+02  0.38987919971E+02  0.00000000000E+00 0. -1.
         -1   -1    0    0    0  501 -0.00000000000E+00 -0.00000000000E+00 -0.46193536132E+03  0.46193536132E+03  0.00000000000E+00 0.  1.
         23    2    1    2    0    0  0.67256144333E+02 -0.71811286533E+01 -0.31174182557E+03  0.34261096100E+03  0.12499738887E+03 0.  0.
          5    1    3    3  502    0 -0.32835510601E+02  0.97366813132E+01 -0.12859668265E+03  0.13316219624E+03  0.47000000000E+01 0. -1.
         -5    1    3    3    0  502  0.10009165493E+03 -0.16917809966E+02 -0.18314514292E+03  0.20944876476E+03  0.47000000000E+01 0. -1.
        -11    1    1    2    0    0 -0.14269026796E+02  0.16164990759E+02  0.11439683070E+02  0.24408572279E+02  0.00000000000E+00 0. -1.
         11    1    1    2    0    0 -0.52987117536E+02 -0.89838621061E+01 -0.12264529885E+03  0.13390374802E+03  0.00000000000E+00 0.  1.
<mgrwt>
<rscale>  0 0.13410963E+03</rscale>
<asrwt>0</asrwt>
<pdfrwt beam="1">  1        1 0.59981416E-02 0.14212426E+03</pdfrwt>
<pdfrwt beam="2">  1       -1 0.71066978E-01 0.14212426E+03</pdfrwt>
<totfact> 0.26046478E+03</totfact>
</mgrwt>
</event>
<event>
 7    1  0.6387485E-006  0.1858468E+03  0.7546771E-02  0.1167433E+00
          3   -1    0    0  501    0  0.00000000000E+00  0.00000000000E+00  0.45139729486E+02  0.45139729486E+02  0.00000000000E+00 0. -1.
         -3   -1    0    0    0  501 -0.00000000000E+00 -0.00000000000E+00 -0.72262673922E+03  0.72262673922E+03  0.00000000000E+00 0.  1.
         23    2    1    2    0    0  0.50273398255E+02 -0.12801892495E+03 -0.44922257981E+03  0.48614810165E+03  0.12499116292E+03 0.  0.
          5    1    3    3  502    0  0.87664376243E+02 -0.93829960889E+02 -0.25738713734E+03  0.28767921873E+03  0.47000000000E+01 0. -1.
         -5    1    3    3    0  502 -0.37390977988E+02 -0.34188964066E+02 -0.19183544248E+03  0.19846888292E+03  0.47000000000E+01 0. -1.
        -11    1    1    2    0    0 -0.73144604083E+02  0.80078347332E+02 -0.17829981833E+03  0.20869475325E+03  0.00000000000E+00 0.  1.
         11    1    1    2    0    0  0.22871205828E+02  0.47940577623E+02 -0.49964611597E+02  0.72923613808E+02  0.00000000000E+00 0. -1.
<mgrwt>
<rscale>  0 0.18038316E+03</rscale>
<asrwt>0</asrwt>
<pdfrwt beam="1">  1        3 0.69445738E-02 0.18584685E+03</pdfrwt>
<pdfrwt beam="2">  1       -3 0.11117334E+00 0.18584685E+03</pdfrwt>
<totfact> 0.23055955E+02</totfact>
</mgrwt>
</event>
<event>
 7    1  0.6387485E-006  0.1376727E+03  0.7546771E-02  0.1227724E+00
          2   -1    0    0  501    0  0.00000000000E+00  0.00000000000E+00  0.63796184009E+03  0.63796184009E+03  0.00000000000E+00 0. -1.
         -2   -1    0    0    0  501 -0.00000000000E+00 -0.00000000000E+00 -0.24231796320E+02  0.24231796320E+02  0.00000000000E+00 0.  1.
         23    2    1    2    0    0  0.55680003050E+02  0.15029123678E+02  0.29898178647E+03  0.32915631567E+03  0.12501053639E+03 0.  0.
          5    1    3    3  502    0 -0.17999647215E+02  0.14465020876E+02  0.21916455452E+03  0.22042780243E+03  0.47000000000E+01 0.  1.
         -5    1    3    3    0  502  0.73679650265E+02  0.56410280135E+00  0.79817231952E+02  0.10872851324E+03  0.47000000000E+01 0.  1.
        -11    1    1    2    0    0 -0.81213668017E+02 -0.54099273389E+01  0.22749546808E+03  0.24161770462E+03  0.00000000000E+00 0.  1.
         11    1    1    2    0    0  0.25533664967E+02 -0.96191963389E+01  0.87252789217E+02  0.91419616117E+02  0.00000000000E+00 0. -1.
<mgrwt>
<rscale>  0 0.12981913E+03</rscale>
<asrwt>0</asrwt>
<pdfrwt beam="1">  1        2 0.98147963E-01 0.13767270E+03</pdfrwt>
<pdfrwt beam="2">  1       -2 0.37279691E-02 0.13767270E+03</pdfrwt>
<totfact> 0.13652736E+04</totfact>
</mgrwt>
</event>
<event>
 7    1  0.6387485E-006  0.1693881E+03  0.7546771E-02  0.1185103E+00
         -1   -1    0    0    0  501 -0.00000000000E+00  0.00000000000E+00  0.56179039570E+02  0.56179039570E+02  0.00000000000E+00 0.  1.
          1   -1    0    0  501    0  0.00000000000E+00 -0.00000000000E+00 -0.48098063051E+03  0.48098063051E+03  0.00000000000E+00 0. -1.
         23    2    1    2    0    0  0.49896567127E+02  0.10284478739E+03 -0.15136967522E+03  0.22716759539E+03  0.12500248043E+03 0.  0.
          5    1    3    3  502    0  0.55335932377E+02  0.71850629468E+02 -0.21317081550E+02  0.93279613704E+02  0.47000000000E+01 0.  1.
         -5    1    3    3    0  502 -0.54393652495E+01  0.30994157923E+02 -0.13005259367E+03  0.13388798168E+03  0.47000000000E+01 0.  1.
        -11    1    1    2    0    0 -0.32060713628E+00 -0.19707067793E+02  0.23467694957E+00  0.19711072604E+02  0.00000000000E+00 0.  1.
         11    1    1    2    0    0 -0.49575959991E+02 -0.83137719598E+02 -0.27366659267E+03  0.29028100209E+03  0.00000000000E+00 0. -1.
<mgrwt>
<rscale>  0 0.16322485E+03</rscale>
<asrwt>0</asrwt>
<pdfrwt beam="2">  1        1 0.73997022E-01 0.16938813E+03</pdfrwt>
<pdfrwt beam="1">  1       -1 0.86429290E-02 0.16938813E+03</pdfrwt>
<totfact> 0.35597971E+03</totfact>
</mgrwt>
</event>
<event>
 7    1  0.6387485E-006  0.1655059E+03  0.7546771E-02  0.1190312E+00
          2   -1    0    0  501    0  0.00000000000E+00  0.00000000000E+00  0.95709513946E+03  0.95709513946E+03  0.00000000000E+00 0. -1.
         -2   -1    0    0    0  501 -0.00000000000E+00 -0.00000000000E+00 -0.24298796676E+02  0.24298796676E+02  0.00000000000E+00 0.  1.
         23    2    1    2    0    0 -0.72185418944E+02  0.80978173073E+02  0.50246303286E+03  0.52901918598E+03  0.12499600202E+03 0.  0.
          5    1    3    3  502    0  0.29647856835E+02  0.25778644943E+02  0.22271111686E+03  0.22619873015E+03  0.47000000000E+01 0.  1.
         -5    1    3    3    0  502 -0.10183327578E+03  0.55199528130E+02  0.27975191600E+03  0.30282045583E+03  0.47000000000E+01 0.  1.
        -11    1    1    2    0    0  0.15427216721E+02  0.17521974546E+02  0.11047378780E+03  0.11291357933E+03  0.00000000000E+00 0.  1.
         11    1    1    2    0    0  0.56758202223E+02 -0.98500147619E+02  0.31985952213E+03  0.33946117082E+03  0.00000000000E+00 0. -1.
<mgrwt>
<rscale>  0 0.15857774E+03</rscale>
<asrwt>0</asrwt>
<pdfrwt beam="1">  1        2 0.14724538E+00 0.16550589E+03</pdfrwt>
<pdfrwt beam="2">  1       -2 0.37382772E-02 0.16550589E+03</pdfrwt>
<totfact> 0.82993518E+03</totfact>
</mgrwt>
</event>
<event>
 7    1  0.6387485E-006  0.1337832E+03  0.7546771E-02  0.1237510E+00
         -2   -1    0    0    0  501 -0.00000000000E+00  0.00000000000E+00  0.29903953237E+03  0.29903953237E+03  0.00000000000E+00 0.  1.
          2   -1    0    0  501    0  0.00000000000E+00 -0.00000000000E+00 -0.52290252420E+02  0.52290252420E+02  0.00000000000E+00 0. -1.
         23    2    1    2    0    0  0.24695702614E+02  0.40768515458E+02  0.20706807618E+03  0.24652611630E+03  0.12500395299E+03 0.  0.
          5    1    3    3  502    0  0.26426670070E+01 -0.14417888932E+02  0.18067542120E+03  0.18132996729E+03  0.47000000000E+01 0. -1.
         -5    1    3    3    0  502  0.22053035607E+02  0.55186404390E+02  0.26392654976E+02  0.65196149009E+02  0.47000000000E+01 0. -1.
        -11    1    1    2    0    0 -0.51564160839E+01 -0.59981962013E+02  0.47274437776E+01  0.60388518101E+02  0.00000000000E+00 0. -1.
         11    1    1    2    0    0 -0.19539286530E+02  0.19213446555E+02  0.34953759997E+02  0.44415150395E+02  0.00000000000E+00 0.  1.
<mgrwt>
<rscale>  0 0.12345119E+03</rscale>
<asrwt>0</asrwt>
<pdfrwt beam="2">  1        2 0.80446544E-02 0.13378317E+03</pdfrwt>
<pdfrwt beam="1">  1       -2 0.46006081E-01 0.13378317E+03</pdfrwt>
<totfact> 0.36540995E+03</totfact>
</mgrwt>
</event>
<event>
 7    1  0.6387485E-006  0.1960141E+03  0.7546771E-02  0.1158902E+00
          2   -1    0    0  501    0  0.00000000000E+00  0.00000000000E+00  0.37994896315E+03  0.37994896315E+03  0.00000000000E+00 0. -1.
         -2   -1    0    0    0  501 -0.00000000000E+00 -0.00000000000E+00 -0.89222697770E+02  0.89222697770E+02  0.00000000000E+00 0.  1.
         23    2    1    2    0    0  0.11362998112E+03  0.99425286558E+02  0.13827446307E+03  0.23987776994E+03  0.12499742860E+03 0.  0.
          5    1    3    3  502    0  0.82333939492E+02  0.10627791823E+03  0.46132279052E+02  0.14221164040E+03  0.47000000000E+01 0. -1.
         -5    1    3    3    0  502  0.31296041624E+02 -0.68526316742E+01  0.92142184021E+02  0.97666129534E+02  0.47000000000E+01 0. -1.
        -11    1    1    2    0    0 -0.88311767094E+02 -0.88792012487E+02  0.15765920012E+03  0.20134401672E+03  0.00000000000E+00 0. -1.
         11    1    1    2    0    0 -0.25318214021E+02 -0.10633274072E+02 -0.52073978142E+01  0.27949874252E+02  0.00000000000E+00 0.  1.
<mgrwt>
<rscale>  0 0.18951217E+03</rscale>
<asrwt>0</asrwt>
<pdfrwt beam="1">  1        2 0.58453686E-01 0.19601407E+03</pdfrwt>
<pdfrwt beam="2">  1       -2 0.13726569E-01 0.19601407E+03</pdfrwt>
<totfact> 0.32969077E+03</totfact>
</mgrwt>
</event>
<event>
 7    1  0.6387485E-006  0.1314681E+03  0.7546771E-02  0.1237277E+00
         -1   -1    0    0    0  501 -0.00000000000E+00  0.00000000000E+00  0.27046856866E+02  0.27046856866E+02  0.00000000000E+00 0.  1.
          1   -1    0    0  501    0  0.00000000000E+00 -0.00000000000E+00 -0.57443155087E+03  0.57443155087E+03  0.00000000000E+00 0. -1.
         23    2    1    2    0    0 -0.40704096559E+02 -0.77079843293E+00 -0.20090090229E+03  0.24009380694E+03  0.12500578379E+03 0.  0.
          5    1    3    3  502    0  0.11226243450E+02 -0.44908758092E+02 -0.14353147328E+03  0.15088472062E+03  0.47000000000E+01 0.  1.
         -5    1    3    3    0  502 -0.51930340009E+02  0.44137959659E+02 -0.57369429010E+02  0.89209086316E+02  0.47000000000E+01 0.  1.
        -11    1    1    2    0    0  0.56689817947E+02  0.29624536034E+02 -0.16571985307E+03  0.17763563352E+03  0.00000000000E+00 0.  1.
         11    1    1    2    0    0 -0.15985721388E+02 -0.28853737601E+02 -0.18076393865E+03  0.18374896728E+03  0.00000000000E+00 0. -1.
<mgrwt>
<rscale>  0 0.12359776E+03</rscale>
<asrwt>0</asrwt>
<pdfrwt beam="2">  1        1 0.88374079E-01 0.13146811E+03</pdfrwt>
<pdfrwt beam="1">  1       -1 0.41610552E-02 0.13146811E+03</pdfrwt>
<totfact> 0.82805603E+03</totfact>
</mgrwt>
</event>
<event>
 7    1  0.6387485E-006  0.1471878E+03  0.7546771E-02  0.1214012E+00
          4   -1    0    0  501    0  0.00000000000E+00  0.00000000000E+00  0.20356343036E+03  0.20356343036E+03  0.00000000000E+00 0. -1.
         -4   -1    0    0    0  501 -0.00000000000E+00 -0.00000000000E+00 -0.90181591643E+02  0.90181591643E+02  0.00000000000E+00 0.  1.
         23    2    1    2    0    0 -0.11225424037E+01 -0.77701859502E+02  0.34461819214E+02  0.15116830640E+03  0.12500160321E+03 0.  0.
          5    1    3    3  502    0 -0.26993975382E+02 -0.23280499211E+02  0.71676657403E+02  0.80189086333E+02  0.47000000000E+01 0. -1.
         -5    1    3    3    0  502  0.25871432978E+02 -0.54421360292E+02 -0.37214838189E+02  0.70979220071E+02  0.47000000000E+01 0. -1.
        -11    1    1    2    0    0  0.39778368316E+02  0.36872267937E+02  0.64992580841E+02  0.84651747135E+02  0.00000000000E+00 0. -1.
         11    1    1    2    0    0 -0.38655825912E+02  0.40829591566E+02  0.13927438667E+02  0.57924968469E+02  0.00000000000E+00 0.  1.
<mgrwt>
<rscale>  0 0.13949390E+03</rscale>
<asrwt>0</asrwt>
<pdfrwt beam="1">  1        4 0.31317451E-01 0.14718777E+03</pdfrwt>
<pdfrwt beam="2">  1       -4 0.13874091E-01 0.14718777E+03</pdfrwt>
<totfact> 0.71180195E+02</totfact>
</mgrwt>
</event>
<event>
 7    1  0.6387485E-006  0.1599443E+03  0.7546771E-02  0.1196571E+00
          2   -1    0    0  501    0  0.00000000000E+00  0.00000000000E+00  0.18815573704E+03  0.18815573704E+03  0.00000000000E+00 0. -1.
         -2   -1    0    0    0  501 -0.00000000000E+00 -0.00000000000E+00 -0.18064788286E+03  0.18064788286E+03  0.00000000000E+00 0.  1.
         23    2    1    2    0    0 -0.68905461301E+02 -0.72166175330E+02 -0.10664800890E+03  0.19223937149E+03  0.12500503465E+03 0.  0.
          5    1    3    3  502    0 -0.78947534856E+02 -0.68815231938E+02 -0.12950266618E+03  0.16661716584E+03  0.47000000000E+01 0. -1.
         -5    1    3    3    0  502  0.10042073555E+02 -0.33509433920E+01  0.22854657274E+02  0.25622205643E+02  0.47000000000E+01 0. -1.
        -11    1    1    2    0    0  0.47619070460E+02  0.92905456217E+02  0.81776630803E+02  0.13261378892E+03  0.00000000000E+00 0.  1.
         11    1    1    2    0    0  0.21286390841E+02 -0.20739280887E+02  0.32379232276E+02  0.43950459492E+02  0.00000000000E+00 0. -1.
<mgrwt>
<rscale>  0 0.15322030E+03</rscale>
<asrwt>0</asrwt>
<pdfrwt beam="1">  1        2 0.28947036E-01 0.15994430E+03</pdfrwt>
<pdfrwt beam="2">  1       -2 0.27791982E-01 0.15994430E+03</pdfrwt>
<totfact> 0.21001839E+03</totfact>
</mgrwt>
</event>
<event>
 7    1  0.6387485E-006  0.2801452E+03  0.7546771E-02  0.1096325E+00
          2   -1    0    0  501    0  0.00000000000E+00  0.00000000000E+00  0.89019260879E+03  0.89019260879E+03  0.00000000000E+00 0.  1.
         -2   -1    0    0    0  501 -0.00000000000E+00 -0.00000000000E+00 -0.95574196163E+02  0.95574196163E+02  0.00000000000E+00 0. -1.
         23    2    1    2    0    0  0.13839172795E+02  0.25033051866E+03  0.24910873503E+03  0.37488199169E+03  0.12499781819E+03 0.  0.
          5    1    3    3  502    0 -0.29475068024E+01  0.61596588299E+02 -0.24164917562E-01  0.61845922019E+02  0.47000000000E+01 0. -1.
         -5    1    3    3    0  502  0.16786679597E+02  0.18873393037E+03  0.24913289994E+03  0.31303606967E+03  0.47000000000E+01 0. -1.
        -11    1    1    2    0    0  0.23844802039E+02 -0.18854610913E+03  0.30176588725E+03  0.35662425683E+03  0.00000000000E+00 0. -1.
         11    1    1    2    0    0 -0.37683974834E+02 -0.61784409540E+02  0.24374379036E+03  0.25426055644E+03  0.00000000000E+00 0.  1.
<mgrwt>
<rscale>  0 0.27883818E+03</rscale>
<asrwt>0</asrwt>
<pdfrwt beam="1">  1        2 0.13695270E+00 0.28014522E+03</pdfrwt>
<pdfrwt beam="2">  1       -2 0.14703723E-01 0.28014522E+03</pdfrwt>
<totfact> 0.10925494E+03</totfact>
</mgrwt>
</event>
<event>
 7    1  0.6387485E-006  0.2364463E+03  0.7546771E-02  0.1125432E+00
         -2   -1    0    0    0  501 -0.00000000000E+00  0.00000000000E+00  0.38240886338E+02  0.38240886338E+02  0.00000000000E+00 0.  1.
          2   -1    0    0  501    0  0.00000000000E+00 -0.00000000000E+00 -0.13619274614E+04  0.13619274614E+04  0.00000000000E+00 0. -1.
         23    2    1    2    0    0  0.10388114576E+03  0.17172686133E+03 -0.62515819758E+03  0.66837836054E+03  0.12500181393E+03 0.  0.
          5    1    3    3  502    0  0.55582633036E+02  0.46713448682E+02 -0.85304494313E+02  0.11211833986E+03  0.47000000000E+01 0. -1.
         -5    1    3    3    0  502  0.48298512727E+02  0.12501341265E+03 -0.53985370327E+03  0.55626002068E+03  0.47000000000E+01 0. -1.
        -11    1    1    2    0    0 -0.10718780721E+03 -0.13420463175E+03 -0.63607869016E+03  0.65885977968E+03  0.00000000000E+00 0. -1.
         11    1    1    2    0    0  0.33066614453E+01 -0.37522229582E+02 -0.62449687320E+02  0.72930207521E+02  0.00000000000E+00 0.  1.
<mgrwt>
<rscale>  0 0.23172421E+03</rscale>
<asrwt>0</asrwt>
<pdfrwt beam="2">  1        2 0.20952733E+00 0.23644632E+03</pdfrwt>
<pdfrwt beam="1">  1       -2 0.58832125E-02 0.23644632E+03</pdfrwt>
<totfact> 0.24725886E+03</totfact>
</mgrwt>
</event>
<event>
 7    1  0.6387485E-006  0.1632148E+03  0.7546771E-02  0.1192632E+00
          3   -1    0    0  501    0  0.00000000000E+00  0.00000000000E+00  0.46280128272E+02  0.46280128272E+02  0.00000000000E+00 0. -1.
         -3   -1    0    0    0  501 -0.00000000000E+00 -0.00000000000E+00 -0.77275044541E+03  0.77275044541E+03  0.00000000000E+00 0.  1.
         23    2    1    2    0    0  0.97381294439E+02  0.39172420890E+02 -0.62923370057E+03  0.65005701723E+03  0.12498592183E+03 0.  0.
          5    1    3    3  502    0  0.11251215055E+03  0.74988875871E+01 -0.33065357742E+03  0.34938387999E+03  0.47000000000E+01 0.  1.
         -5    1    3    3    0  502 -0.15130856111E+02  0.31673533302E+02 -0.29858012315E+03  0.30067313724E+03  0.47000000000E+01 0.  1.
        -11    1    1    2    0    0 -0.53803165577E+02 -0.46453204753E+01 -0.99628914517E+02  0.11332378495E+03  0.00000000000E+00 0.  1.
         11    1    1    2    0    0 -0.43578128863E+02 -0.34527100414E+02  0.23922979472E+01  0.55649771497E+02  0.00000000000E+00 0. -1.
<mgrwt>
<rscale>  0 0.15656354E+03</rscale>
<asrwt>0</asrwt>
<pdfrwt beam="1">  1        3 0.71200196E-02 0.16321481E+03</pdfrwt>
<pdfrwt beam="2">  1       -3 0.11888469E+00 0.16321481E+03</pdfrwt>
<totfact> 0.18652030E+02</totfact>
</mgrwt>
</event>
<event>
 7    1  0.6387485E-006  0.1474827E+03  0.7546771E-02  0.1212303E+00
         -1   -1    0    0    0  501 -0.00000000000E+00  0.00000000000E+00  0.71215318255E+02  0.71215318255E+02  0.00000000000E+00 0.  1.
          1   -1    0    0  501    0  0.00000000000E+00 -0.00000000000E+00 -0.30173441461E+03  0.30173441461E+03  0.00000000000E+00 0. -1.
         23    2    1    2    0    0 -0.63122949408E+02  0.46283124201E+02 -0.51755067958E+02  0.15630015196E+03  0.12499806444E+03 0.  0.
          5    1    3    3  502    0 -0.24384428321E+01 -0.36493251650E+02  0.75886488555E+01  0.37648120948E+02  0.47000000000E+01 0.  1.
         -5    1    3    3    0  502 -0.60684506576E+02  0.82776375851E+02 -0.59343716813E+02  0.11865203101E+03  0.47000000000E+01 0.  1.
        -11    1    1    2    0    0  0.55225653672E+02  0.17452494672E+02 -0.91752288854E+02  0.10850320227E+03  0.00000000000E+00 0.  1.
         11    1    1    2    0    0  0.78972957357E+01 -0.63735618874E+02 -0.87011739542E+02  0.10814637863E+03  0.00000000000E+00 0. -1.
<mgrwt>
<rscale>  0 0.14076559E+03</rscale>
<asrwt>0</asrwt>
<pdfrwt beam="2">  1        1 0.46420679E-01 0.14748271E+03</pdfrwt>
<pdfrwt beam="1">  1       -1 0.10956203E-01 0.14748271E+03</pdfrwt>
<totfact> 0.44391616E+03</totfact>
</mgrwt>
</event>
<event>
 7    1  0.6387485E-006  0.1255903E+03  0.7546771E-02  0.1249519E+00
          2   -1    0    0  501    0  0.00000000000E+00  0.00000000000E+00  0.50281540842E+03  0.50281540842E+03  0.00000000000E+00 0. -1.
         -2   -1    0    0    0  501 -0.00000000000E+00 -0.00000000000E+00 -0.24019270214E+02  0.24019270214E+02  0.00000000000E+00 0.  1.
         23    2    1    2    0    0  0.12161911022E+02 -0.17772672450E+01  0.23886620138E+03  0.26987029770E+03  0.12498737800E+03 0.  0.
          5    1    3    3  502    0 -0.17773526923E+02 -0.57636103002E+02  0.13765713895E+03  0.15036421293E+03  0.47000000000E+01 0.  1.
         -5    1    3    3    0  502  0.29935437945E+02  0.55858835757E+02  0.10120906244E+03  0.11950608477E+03  0.47000000000E+01 0.  1.
        -11    1    1    2    0    0 -0.37930264711E+02  0.27411920683E+02  0.77637851899E+02  0.90651830782E+02  0.00000000000E+00 0.  1.
         11    1    1    2    0    0  0.25768353689E+02 -0.25634653438E+02  0.16229208492E+03  0.16631255015E+03  0.00000000000E+00 0. -1.
<mgrwt>
<rscale>  0 0.11618926E+03</rscale>
<asrwt>0</asrwt>
<pdfrwt beam="1">  1        2 0.77356209E-01 0.12559027E+03</pdfrwt>
<pdfrwt beam="2">  1       -2 0.36952727E-02 0.12559027E+03</pdfrwt>
<totfact> 0.17940853E+04</totfact>
</mgrwt>
</event>
<event>
 6    1  0.6387485E-006  0.4670501E+03  0.7546771E-02  0.1022756E+00
         -1   -1    0    0    0  501 -0.00000000000E+00  0.00000000000E+00  0.70631735334E+03  0.70631735334E+03  0.00000000000E+00 0.  1.
          1   -1    0    0  501    0  0.00000000000E+00 -0.00000000000E+00 -0.77208851689E+02  0.77208851689E+02  0.00000000000E+00 0. -1.
          5    1    1    2  502    0  0.64904218312E+02 -0.92786410330E+02  0.25093872856E+03  0.27534380507E+03  0.47000000000E+01 0.  1.
         -5    1    1    2    0  502 -0.49772213495E+01 -0.20615073652E+01  0.36197362632E+03  0.36204422202E+03  0.47000000000E+01 0.  1.
        -11    1    1    2    0    0 -0.31202733468E+02 -0.12853592092E+02  0.26133843146E+01  0.33847528464E+02  0.00000000000E+00 0.  1.
         11    1    1    2    0    0 -0.28724263495E+02  0.10770150979E+03  0.13582762448E+02  0.11229064947E+03  0.00000000000E+00 0. -1.
<mgrwt>
<rscale>  0 0.46705011E+03</rscale>
<asrwt>0</asrwt>
<pdfrwt beam="2">  1        1 0.11878285E-01 0.46705011E+03</pdfrwt>
<pdfrwt beam="1">  1       -1 0.10866420E+00 0.46705011E+03</pdfrwt>
<totfact> 0.42336298E+02</totfact>
</mgrwt>
</event>
<event>
 7    1  0.1323698E-005  0.2395146E+03  0.7546771E-02  0.1122810E+00
          1   -1    0    0  501    0  0.00000000000E+00  0.00000000000E+00  0.32768292032E+03  0.32768292032E+03  0.00000000000E+00 0. -1.
         -1   -1    0    0    0  501 -0.00000000000E+00 -0.00000000000E+00 -0.19252940521E+03  0.19252940521E+03  0.00000000000E+00 0.  1.
         23    2    1    2    0    0  0.54708814438E+02 -0.19684797368E+03 -0.30782804319E+02  0.24148463133E+03  0.12500026803E+03 0.  0.
          5    1    3    3  502    0 -0.16595229106E+02 -0.14499737920E+03  0.52798607816E+01  0.14611505238E+03  0.47000000000E+01 0.  1.
         -5    1    3    3    0  502  0.71304043544E+02 -0.51850594480E+02 -0.36062665100E+02  0.95369578943E+02  0.47000000000E+01 0.  1.
        -11    1    1    2    0    0 -0.53045667569E+02  0.17348496815E+03  0.96573782908E+02  0.20551732911E+03  0.00000000000E+00 0.  1.
         11    1    1    2    0    0 -0.16631468683E+01  0.23363005529E+02  0.69362536514E+02  0.73210365089E+02  0.00000000000E+00 0. -1.
<mgrwt>
<rscale>  0 0.23552526E+03</rscale>
<asrwt>0</asrwt>
<pdfrwt beam="1">  1        1 0.50412757E-01 0.23951461E+03</pdfrwt>
<pdfrwt beam="2">  1       -1 0.29619908E-01 0.23951461E+03</pdfrwt>
<totfact> 0.81948425E+02</totfact>
</mgrwt>
</event>
<event>
 7    1  0.6387485E-006  0.1269002E+03  0.7546771E-02  0.1246836E+00
         -1   -1    0    0    0  501 -0.00000000000E+00  0.00000000000E+00  0.16413964897E+03  0.16413964897E+03  0.00000000000E+00 0.  1.
          1   -1    0    0  501    0  0.00000000000E+00 -0.00000000000E+00 -0.99375622112E+02  0.99375622112E+02  0.00000000000E+00 0. -1.
         23    2    1    2    0    0  0.12903064117E+02  0.17666006795E+02  0.10149225464E+03  0.16249409592E+03  0.12500030638E+03 0.  0.
          5    1    3    3  502    0  0.85311779011E+01 -0.38882794295E+02  0.97528194626E+02  0.10544425748E+03  0.47000000000E+01 0. -1.
         -5    1    3    3    0  502  0.43718862160E+01  0.56548801090E+02  0.39640600145E+01  0.57049838436E+02  0.47000000000E+01 0. -1.
        -11    1    1    2    0    0 -0.16455894470E+02  0.31714927084E+02 -0.37104812571E+02  0.51511165573E+02  0.00000000000E+00 0. -1.
         11    1    1    2    0    0  0.35528303533E+01 -0.49380933879E+02  0.37658479306E+00  0.49510009598E+02  0.00000000000E+00 0.  1.
<mgrwt>
<rscale>  0 0.11776149E+03</rscale>
<asrwt>0</asrwt>
<pdfrwt beam="2">  1        1 0.15288557E-01 0.12690017E+03</pdfrwt>
<pdfrwt beam="1">  1       -1 0.25252254E-01 0.12690017E+03</pdfrwt>
<totfact> 0.47322645E+03</totfact>
</mgrwt>
</event>
<event>
 7    1  0.6387485E-006  0.1927507E+03  0.7546771E-02  0.1160608E+00
         -2   -1    0    0    0  501 -0.00000000000E+00  0.00000000000E+00  0.16381083338E+03  0.16381083338E+03  0.00000000000E+00 0.  1.
          2   -1    0    0  501    0  0.00000000000E+00 -0.00000000000E+00 -0.36435824243E+03  0.36435824243E+03  0.00000000000E+00 0. -1.
         23    2    1    2    0    0 -0.29593009167E+02  0.14370394401E+03  0.71612546297E+02  0.20562387499E+03  0.12500500576E+03 0.  0.
          5    1    3    3  502    0 -0.66677044817E+02  0.66591261644E+02  0.73977872476E+02  0.11989595510E+03  0.47000000000E+01 0. -1.
         -5    1    3    3    0  502  0.37084035650E+02  0.77112682362E+02 -0.23653261785E+01  0.85727919892E+02  0.47000000000E+01 0. -1.
        -11    1    1    2    0    0  0.13641912143E+02 -0.12015684076E+03 -0.12992445734E+03  0.17749403585E+03  0.00000000000E+00 0. -1.
         11    1    1    2    0    0  0.15951097024E+02 -0.23547103246E+02 -0.14223549801E+03  0.14505116498E+03  0.00000000000E+00 0.  1.
<mgrwt>
<rscale>  0 0.18763876E+03</rscale>
<asrwt>0</asrwt>
<pdfrwt beam="2">  1        2 0.56055114E-01 0.19275067E+03</pdfrwt>
<pdfrwt beam="1">  1       -2 0.25201667E-01 0.19275067E+03</pdfrwt>
<totfact> 0.12332373E+03</totfact>
</mgrwt>
</event>
<event>
 7    1  0.6387485E-006  0.1290371E+03  0.7546771E-02  0.1243202E+00
         -2   -1    0    0    0  501 -0.00000000000E+00  0.00000000000E+00  0.74992915178E+03  0.74992915178E+03  0.00000000000E+00 0.  1.
          2   -1    0    0  501    0  0.00000000000E+00 -0.00000000000E+00 -0.17655127900E+02  0.17655127900E+02  0.00000000000E+00 0. -1.
         23    2    1    2    0    0 -0.93825202123E+01 -0.30578942564E+02  0.49421045597E+03  0.51077837164E+03  0.12500986654E+03 0.  0.
          5    1    3    3  502    0 -0.32814681231E+02  0.27243232555E+02  0.36173996547E+03  0.36427584279E+03  0.47000000000E+01 0. -1.
         -5    1    3    3    0  502  0.23432161019E+02 -0.57822175118E+02  0.13247049050E+03  0.14650252885E+03  0.47000000000E+01 0. -1.
        -11    1    1    2    0    0  0.28075714431E+02 -0.24952204873E+02  0.10012584638E+03  0.10693943792E+03  0.00000000000E+00 0.  1.
         11    1    1    2    0    0 -0.18693194219E+02  0.55531147437E+02  0.13793772153E+03  0.14986647012E+03  0.00000000000E+00 0. -1.
<mgrwt>
<rscale>  0 0.11993618E+03</rscale>
<asrwt>0</asrwt>
<pdfrwt beam="2">  1        2 0.27161741E-02 0.12903709E+03</pdfrwt>
<pdfrwt beam="1">  1       -2 0.11537369E+00 0.12903709E+03</pdfrwt>
<totfact> 0.20918307E+03</totfact>
</mgrwt>
</event>
<event>
 7    1  0.6387485E-006  0.2256611E+03  0.7546771E-02  0.1132863E+00
          1   -1    0    0  501    0  0.00000000000E+00  0.00000000000E+00  0.87486377612E+03  0.87486377612E+03  0.00000000000E+00 0. -1.
         -1   -1    0    0    0  501 -0.00000000000E+00 -0.00000000000E+00 -0.55605550143E+02  0.55605550143E+02  0.00000000000E+00 0.  1.
         23    2    1    2    0    0 -0.37395816048E+02 -0.18413183712E+03  0.34557424950E+03  0.41272813763E+03  0.12497989105E+03 0.  0.
          5    1    3    3  502    0  0.11394201984E+02 -0.91737310840E+02  0.64481528693E+02  0.11280744471E+03  0.47000000000E+01 0.  1.
         -5    1    3    3    0  502 -0.48790018032E+02 -0.92394526284E+02  0.28109272081E+03  0.29992069292E+03  0.47000000000E+01 0.  1.
        -11    1    1    2    0    0 -0.23094853645E+01  0.58179814270E+02  0.60507277688E+02  0.83972347617E+02  0.00000000000E+00 0.  1.
         11    1    1    2    0    0  0.39705301413E+02  0.12595202285E+03  0.41317669879E+03  0.43376884102E+03  0.00000000000E+00 0. -1.
<mgrwt>
<rscale>  0 0.22137431E+03</rscale>
<asrwt>0</asrwt>
<pdfrwt beam="1">  1        1 0.13459442E+00 0.22566115E+03</pdfrwt>
<pdfrwt beam="2">  1       -1 0.85547006E-02 0.22566115E+03</pdfrwt>
<totfact> 0.15516652E+03</totfact>
</mgrwt>
</event>
<event>
 6    1  0.6387485E-006  0.1735843E+03  0.7546771E-02  0.1191512E+00
          1   -1    0    0  501    0  0.00000000000E+00  0.00000000000E+00  0.99168331652E+02  0.99168331652E+02  0.00000000000E+00 0. -1.
         -1   -1    0    0    0  501 -0.00000000000E+00 -0.00000000000E+00 -0.23272109472E+03  0.23272109472E+03  0.00000000000E+00 0.  1.
          5    1    1    2  502    0 -0.14409107679E+02  0.10036395965E+03 -0.53442670314E+02  0.11471162012E+03  0.47000000000E+01 0. -1.
         -5    1    1    2    0  502  0.50838485136E+02 -0.46007166120E+02 -0.71413888358E+02  0.99112281558E+02  0.47000000000E+01 0.  1.
        -11    1    1    2    0    0  0.20226619500E+02 -0.15127029049E+02  0.29852800225E+02  0.39104127986E+02  0.00000000000E+00 0. -1.
         11    1    1    2    0    0 -0.56655996956E+02 -0.39229764482E+02 -0.38549004624E+02  0.78961396707E+02  0.00000000000E+00 0.  1.
<mgrwt>
<rscale>  0 0.15753180E+03</rscale>
<asrwt>0</asrwt>
<pdfrwt beam="1">  1        1 0.15256667E-01 0.17358428E+03</pdfrwt>
<pdfrwt beam="2">  1       -1 0.35803245E-01 0.17358428E+03</pdfrwt>
<totfact> 0.26792062E+03</totfact>
</mgrwt>
</event>
<event>
 7    1  0.6387485E-006  0.1392118E+03  0.7546771E-02  0.1228375E+00
          1   -1    0    0  501    0  0.00000000000E+00  0.00000000000E+00  0.32389819156E+02  0.32389819156E+02  0.00000000000E+00 0.  1.
         -1   -1    0    0    0  501 -0.00000000000E+00 -0.00000000000E+00 -0.45831063215E+03  0.45831063215E+03  0.00000000000E+00 0. -1.
         23    2    1    2    0    0  0.61166732530E+02  0.36589560229E+01 -0.26080299478E+03  0.29563173470E+03  0.12500065340E+03 0.  0.
          5    1    3    3  502    0  0.94389716353E+02 -0.99834024894E+01 -0.22699129103E+03  0.24608174065E+03  0.47000000000E+01 0. -1.
         -5    1    3    3    0  502 -0.33222983823E+02  0.13642358512E+02 -0.33811703744E+02  0.49549994046E+02  0.47000000000E+01 0. -1.
        -11    1    1    2    0    0 -0.21118850173E+01 -0.30652554548E+02 -0.93399381254E+02  0.98323362317E+02  0.00000000000E+00 0. -1.
         11    1    1    2    0    0 -0.59054847513E+02  0.26993598525E+02 -0.71718436964E+02  0.96745354290E+02  0.00000000000E+00 0.  1.
<mgrwt>
<rscale>  0 0.12938209E+03</rscale>
<asrwt>0</asrwt>
<pdfrwt beam="1">  1        1 0.49830498E-02 0.13921178E+03</pdfrwt>
<pdfrwt beam="2">  1       -1 0.70509317E-01 0.13921178E+03</pdfrwt>
<totfact> 0.34029616E+03</totfact>
</mgrwt>
</event>
<event>
 7    1  0.6387485E-006  0.1272123E+03  0.7546771E-02  0.1245634E+00
         -2   -1    0    0    0  501 -0.00000000000E+00  0.00000000000E+00  0.29109948385E+02  0.29109948385E+02  0.00000000000E+00 0.  1.
          2   -1    0    0  501    0  0.00000000000E+00 -0.00000000000E+00 -0.56783637059E+03  0.56783637059E+03  0.00000000000E+00 0. -1.
         23    2    1    2    0    0  0.60895073896E+01 -0.22805951667E+02 -0.15032425831E+03  0.19692729769E+03  0.12500313760E+03 0.  0.
          5    1    3    3  502    0  0.50765025008E+02 -0.88204644647E+01 -0.15320450389E+02  0.53960120066E+02  0.47000000000E+01 0.  1.
         -5    1    3    3    0  502 -0.44675517618E+02 -0.13985487202E+02 -0.13500380792E+03  0.14296717763E+03  0.47000000000E+01 0.  1.
        -11    1    1    2    0    0 -0.40779907951E+01  0.55388411733E+02 -0.31246536959E+03  0.31736274727E+03  0.00000000000E+00 0. -1.
         11    1    1    2    0    0 -0.20115165945E+01 -0.32582460066E+02 -0.75936794313E+02  0.82656274012E+02  0.00000000000E+00 0.  1.
<mgrwt>
<rscale>  0 0.11847529E+03</rscale>
<asrwt>0</asrwt>
<pdfrwt beam="2">  1        2 0.87359432E-01 0.12721233E+03</pdfrwt>
<pdfrwt beam="1">  1       -2 0.44784541E-02 0.12721233E+03</pdfrwt>
<totfact> 0.11799471E+04</totfact>
</mgrwt>
</event>
<event>
 7    1  0.6387485E-006  0.1296607E+03  0.7546771E-02  0.1244887E+00
          2   -1    0    0  501    0  0.00000000000E+00  0.00000000000E+00  0.23688330616E+03  0.23688330616E+03  0.00000000000E+00 0. -1.
         -2   -1    0    0    0  501 -0.00000000000E+00 -0.00000000000E+00 -0.51972563836E+02  0.51972563836E+02  0.00000000000E+00 0.  1.
         23    2    1    2    0    0  0.23868279332E+02  0.24294985626E+02  0.98661112109E+02  0.16292915084E+03  0.12510776181E+03 0.  0.
          5    1    3    3  502    0 -0.21962856482E+02  0.36366364938E+02 -0.10341159630E+02  0.43976233878E+02  0.47000000000E+01 0.  1.
         -5    1    3    3    0  502  0.45831135814E+02 -0.12071379312E+02  0.10900227174E+03  0.11895291696E+03  0.47000000000E+01 0.  1.
        -11    1    1    2    0    0 -0.28695361529E+02 -0.12890547224E+00 -0.69489811909E+01  0.29525052574E+02  0.00000000000E+00 0.  1.
         11    1    1    2    0    0  0.48270821968E+01 -0.24166080154E+02  0.93198611403E+02  0.96401666583E+02  0.00000000000E+00 0. -1.
<mgrwt>
<rscale>  0 0.11892162E+03</rscale>
<asrwt>0</asrwt>
<pdfrwt beam="1">  1        2 0.36443585E-01 0.12966068E+03</pdfrwt>
<pdfrwt beam="2">  1       -2 0.79957792E-02 0.12966068E+03</pdfrwt>
<totfact> 0.12540527E+04</totfact>
</mgrwt>
</event>
<event>
 7    1  0.6387485E-006  0.1384972E+03  0.7546771E-02  0.1226990E+00
          1   -1    0    0  501    0  0.00000000000E+00  0.00000000000E+00  0.31596906229E+02  0.31596906229E+02  0.00000000000E+00 0. -1.
         -1   -1    0    0    0  501 -0.00000000000E+00 -0.00000000000E+00 -0.53607548897E+03  0.53607548897E+03  0.00000000000E+00 0.  1.
         23    2    1    2    0    0 -0.41217243790E+02 -0.43060586938E+02 -0.36857011875E+03  0.39373266529E+03  0.12501361507E+03 0.  0.
          5    1    3    3  502    0  0.34899851344E+02 -0.48487984536E+02 -0.19666341461E+03  0.20559103316E+03  0.47000000000E+01 0.  1.
         -5    1    3    3    0  502 -0.76117095134E+02  0.54273975981E+01 -0.17190670413E+03  0.18814163213E+03  0.47000000000E+01 0.  1.
        -11    1    1    2    0    0 -0.20189362872E+02  0.10751931168E+02 -0.84613334601E+02  0.87650617735E+02  0.00000000000E+00 0.  1.
         11    1    1    2    0    0  0.61406606662E+02  0.32308655770E+02 -0.51295129394E+02  0.86289112169E+02  0.00000000000E+00 0. -1.
<mgrwt>
<rscale>  0 0.13031428E+03</rscale>
<asrwt>0</asrwt>
<pdfrwt beam="1">  1        1 0.48610628E-02 0.13849722E+03</pdfrwt>
<pdfrwt beam="2">  1       -1 0.82473147E-01 0.13849722E+03</pdfrwt>
<totfact> 0.25640727E+03</totfact>
</mgrwt>
</event>
<event>
 7    1  0.6387485E-006  0.1252425E+03  0.7546771E-02  0.1250429E+00
         -2   -1    0    0    0  501 -0.00000000000E+00  0.00000000000E+00  0.68222400275E+02  0.68222400275E+02  0.00000000000E+00 0.  1.
          2   -1    0    0  501    0  0.00000000000E+00 -0.00000000000E+00 -0.19704950421E+03  0.19704950421E+03  0.00000000000E+00 0. -1.
         23    2    1    2    0    0 -0.46996574649E+01 -0.62200371309E+01 -0.26033149095E+02  0.12791954129E+03  0.12499963419E+03 0.  0.
          5    1    3    3  502    0 -0.34240989733E+02  0.50285341595E+02 -0.83634970095E+01  0.61588140412E+02  0.47000000000E+01 0. -1.
         -5    1    3    3    0  502  0.29541332268E+02 -0.56505378726E+02 -0.17669652086E+02  0.66331400874E+02  0.47000000000E+01 0. -1.
        -11    1    1    2    0    0  0.11577321296E+02  0.47595714880E+02 -0.51151935429E+02  0.70823067862E+02  0.00000000000E+00 0. -1.
         11    1    1    2    0    0 -0.68776638309E+01 -0.41375677749E+02 -0.51642019410E+02  0.66529295334E+02  0.00000000000E+00 0.  1.
<mgrwt>
<rscale>  0 0.11566248E+03</rscale>
<asrwt>0</asrwt>
<pdfrwt beam="2">  1        2 0.30315308E-01 0.12524250E+03</pdfrwt>
<pdfrwt beam="1">  1       -2 0.10495754E-01 0.12524250E+03</pdfrwt>
<totfact> 0.99718137E+03</totfact>
</mgrwt>
</event>
<event>
 7    1  0.6387485E-006  0.1407010E+03  0.7546771E-02  0.1223558E+00
         -1   -1    0    0    0  501 -0.00000000000E+00  0.00000000000E+00  0.16200707715E+03  0.16200707715E+03  0.00000000000E+00 0.  1.
          1   -1    0    0  501    0  0.00000000000E+00 -0.00000000000E+00 -0.11861658727E+03  0.11861658727E+03  0.00000000000E+00 0. -1.
         23    2    1    2    0    0  0.14439539720E+02  0.62956357439E+02  0.82072192556E+02  0.16288835934E+03  0.12499907828E+03 0.  0.
          5    1    3    3  502    0  0.21823856989E+02  0.72064647757E+02 -0.43301676174E+01  0.75567417197E+02  0.47000000000E+01 0. -1.
         -5    1    3    3    0  502 -0.73843172692E+01 -0.91082903178E+01  0.86402360174E+02  0.87320942148E+02  0.47000000000E+01 0. -1.
        -11    1    1    2    0    0  0.27536832718E+02 -0.57495848173E+02 -0.40220482231E+02  0.75377297008E+02  0.00000000000E+00 0.  1.
         11    1    1    2    0    0 -0.41976372438E+02 -0.54605092657E+01  0.15387795536E+01  0.42358008062E+02  0.00000000000E+00 0. -1.
<mgrwt>
<rscale>  0 0.13266263E+03</rscale>
<asrwt>0</asrwt>
<pdfrwt beam="2">  1        1 0.18248706E-01 0.14070101E+03</pdfrwt>
<pdfrwt beam="1">  1       -1 0.24924166E-01 0.14070101E+03</pdfrwt>
<totfact> 0.38751770E+03</totfact>
</mgrwt>
</event>
<event>
 7    1  0.6387485E-006  0.1499177E+03  0.7546771E-02  0.1209944E+00
         -2   -1    0    0    0  501 -0.00000000000E+00  0.00000000000E+00  0.95949294990E+02  0.95949294990E+02  0.00000000000E+00 0.  1.
          2   -1    0    0  501    0  0.00000000000E+00 -0.00000000000E+00 -0.19534844330E+03  0.19534844330E+03  0.00000000000E+00 0. -1.
         23    2    1    2    0    0 -0.64253623657E+02 -0.52163396968E+02 -0.40207522215E+02  0.15521587032E+03  0.12500309364E+03 0.  0.
          5    1    3    3  502    0 -0.17984226981E+02 -0.73087437135E+02 -0.64028596215E+02  0.98929050437E+02  0.47000000000E+01 0.  1.
         -5    1    3    3    0  502 -0.46269396676E+02  0.20924040167E+02  0.23821074000E+02  0.56286819880E+02  0.47000000000E+01 0.  1.
        -11    1    1    2    0    0  0.35264649967E+02  0.50004251976E+02  0.90994422148E+01  0.61861301325E+02  0.00000000000E+00 0.  1.
         11    1    1    2    0    0  0.28988973690E+02  0.21591449921E+01 -0.68291068310E+02  0.74220566648E+02  0.00000000000E+00 0. -1.
<mgrwt>
<rscale>  0 0.14254567E+03</rscale>
<asrwt>0</asrwt>
<pdfrwt beam="2">  1        2 0.30053606E-01 0.14991772E+03</pdfrwt>
<pdfrwt beam="1">  1       -2 0.14761430E-01 0.14991772E+03</pdfrwt>
<totfact> 0.59009747E+03</totfact>
</mgrwt>
</event>
<event>
 6    1  0.6387485E-006  0.2790293E+03  0.7546771E-02  0.1131485E+00
          2   -1    0    0  501    0  0.00000000000E+00  0.00000000000E+00  0.58686274501E+02  0.58686274501E+02  0.00000000000E+00 0. -1.
         -2   -1    0    0    0  501 -0.00000000000E+00 -0.00000000000E+00 -0.71189107963E+03  0.71189107963E+03  0.00000000000E+00 0.  1.
          5    1    1    2  502    0  0.33969905198E+02  0.85095734970E+02 -0.36265979966E+02  0.98653686561E+02  0.47000000000E+01 0. -1.
         -5    1    1    2    0  502 -0.62948373977E+02 -0.24133222590E+02 -0.51290836633E+03  0.51734127273E+03  0.47000000000E+01 0.  1.
        -11    1    1    2    0    0  0.61294159037E+02 -0.26983950035E+02 -0.68047987680E+02  0.95475840498E+02  0.00000000000E+00 0.  1.
         11    1    1    2    0    0 -0.32315690258E+02 -0.33978562345E+02 -0.35982471154E+02  0.59106554342E+02  0.00000000000E+00 0. -1.
<mgrwt>
<rscale>  0 0.22324708E+03</rscale>
<asrwt>0</asrwt>
<pdfrwt beam="1">  1        2 0.90286574E-02 0.27902926E+03</pdfrwt>
<pdfrwt beam="2">  1       -2 0.10952171E+00 0.27902926E+03</pdfrwt>
<totfact> 0.50449854E+02</totfact>
</mgrwt>
</event>
<event>
 7    1  0.6387485E-006  0.2436421E+03  0.7546771E-02  0.1119981E+00
         -2   -1    0    0    0  501 -0.00000000000E+00  0.00000000000E+00  0.48658918126E+02  0.48658918126E+02  0.00000000000E+00 0.  1.
          2   -1    0    0  501    0  0.00000000000E+00 -0.00000000000E+00 -0.13391355451E+04  0.13391355451E+04  0.00000000000E+00 0. -1.
         23    2    1    2    0    0 -0.15558394472E+03 -0.13974741828E+03 -0.39867605261E+03  0.46723020848E+03  0.12500307203E+03 0.  0.
          5    1    3    3  502    0 -0.77295819067E+02 -0.13574278830E+03 -0.31971523103E+03  0.35586608039E+03  0.47000000000E+01 0.  1.
         -5    1    3    3    0  502 -0.78288125655E+02 -0.40046299834E+01 -0.78960821581E+02  0.11136412809E+03  0.47000000000E+01 0.  1.
        -11    1    1    2    0    0  0.81762904543E+02  0.15164048476E+02 -0.35024782543E+03  0.35998424985E+03  0.00000000000E+00 0.  1.
         11    1    1    2    0    0  0.73821040180E+02  0.12458336981E+03 -0.54155274890E+03  0.56058000486E+03  0.00000000000E+00 0. -1.
<mgrwt>
<rscale>  0 0.23971793E+03</rscale>
<asrwt>0</asrwt>
<pdfrwt beam="2">  1        2 0.20602086E+00 0.24364210E+03</pdfrwt>
<pdfrwt beam="1">  1       -2 0.74859873E-02 0.24364210E+03</pdfrwt>
<totfact> 0.17530532E+03</totfact>
</mgrwt>
</event>
<event>
 7    1  0.6387485E-006  0.1513785E+03  0.7546771E-02  0.1207276E+00
         -2   -1    0    0    0  501 -0.00000000000E+00  0.00000000000E+00  0.70872324674E+02  0.70872324674E+02  0.00000000000E+00 0.  1.
          2   -1    0    0  501    0  0.00000000000E+00 -0.00000000000E+00 -0.32196985699E+03  0.32196985699E+03  0.00000000000E+00 0. -1.
         23    2    1    2    0    0 -0.85375574116E+02 -0.63573917949E+00 -0.57679920837E+02  0.16199515180E+03  0.12500425240E+03 0.  0.
          5    1    3    3  502    0 -0.13054623310E+02  0.56798069556E+02 -0.16378061455E+02  0.60718817447E+02  0.47000000000E+01 0.  1.
         -5    1    3    3    0  502 -0.72320950805E+02 -0.57433808736E+02 -0.41301859381E+02  0.10127633435E+03  0.47000000000E+01 0.  1.
        -11    1    1    2    0    0  0.14256169657E+02  0.10377198610E+02  0.62185084589E+01  0.18697445594E+02  0.00000000000E+00 0.  1.
         11    1    1    2    0    0  0.71119404459E+02 -0.97414594308E+01 -0.19963611994E+03  0.21214958427E+03  0.00000000000E+00 0. -1.
<mgrwt>
<rscale>  0 0.14459538E+03</rscale>
<asrwt>0</asrwt>
<pdfrwt beam="2">  1        2 0.49533824E-01 0.15137852E+03</pdfrwt>
<pdfrwt beam="1">  1       -2 0.10903435E-01 0.15137852E+03</pdfrwt>
<totfact> 0.56321366E+03</totfact>
</mgrwt>
</event>
<event>
 7    1  0.6387485E-006  0.1529678E+03  0.7546771E-02  0.1205322E+00
          2   -1    0    0  501    0  0.00000000000E+00  0.00000000000E+00  0.47727893824E+03  0.47727893824E+03  0.00000000000E+00 0. -1.
         -2   -1    0    0    0  501 -0.00000000000E+00 -0.00000000000E+00 -0.41889965168E+02  0.41889965168E+02  0.00000000000E+00 0.  1.
         23    2    1    2    0    0 -0.77428899556E+02 -0.42173057931E+02  0.20319510762E+03  0.25433718930E+03  0.12500141118E+03 0.  0.
          5    1    3    3  502    0 -0.81391818893E+02 -0.69306810893E+02  0.19934718534E+03  0.22625086192E+03  0.47000000000E+01 0. -1.
         -5    1    3    3    0  502  0.39629193370E+01  0.27133752962E+02  0.38479222813E+01  0.28086327374E+02  0.47000000000E+01 0. -1.
        -11    1    1    2    0    0  0.59683463653E+02  0.70832296182E+01  0.21253484926E+03  0.22086953191E+03  0.00000000000E+00 0. -1.
         11    1    1    2    0    0  0.17745435903E+02  0.35089828313E+02  0.19659016194E+02  0.43962182204E+02  0.00000000000E+00 0.  1.
<mgrwt>
<rscale>  0 0.14612099E+03</rscale>
<asrwt>0</asrwt>
<pdfrwt beam="1">  1        2 0.73427525E-01 0.15296782E+03</pdfrwt>
<pdfrwt beam="2">  1       -2 0.64446103E-02 0.15296782E+03</pdfrwt>
<totfact> 0.83629325E+03</totfact>
</mgrwt>
</event>
<event>
 7    1  0.6387485E-006  0.1380375E+03  0.7546771E-02  0.1227394E+00
          1   -1    0    0  501    0  0.00000000000E+00  0.00000000000E+00  0.19752130466E+03  0.19752130466E+03  0.00000000000E+00 0. -1.
         -1   -1    0    0    0  501 -0.00000000000E+00 -0.00000000000E+00 -0.77591515999E+02  0.77591515999E+02  0.00000000000E+00 0.  1.
         23    2    1    2    0    0  0.46468037937E+01  0.58376552613E+02  0.78217370311E+02  0.15865783495E+03  0.12499974756E+03 0.  0.
          5    1    3    3  502    0  0.21483686983E+02 -0.30038535519E+02  0.53545055976E+02  0.65215224004E+02  0.47000000000E+01 0. -1.
         -5    1    3    3    0  502 -0.16836883189E+02  0.88415088133E+02  0.24672314335E+02  0.93442610942E+02  0.47000000000E+01 0. -1.
        -11    1    1    2    0    0  0.90780787579E+01  0.94944734818E+01  0.45251677114E+02  0.47119749812E+02  0.00000000000E+00 0. -1.
         11    1    1    2    0    0 -0.13724882552E+02 -0.67871026095E+02 -0.35392587673E+01  0.69335235897E+02  0.00000000000E+00 0.  1.
<mgrwt>
<rscale>  0 0.13004194E+03</rscale>
<asrwt>0</asrwt>
<pdfrwt beam="1">  1        1 0.30387893E-01 0.13803750E+03</pdfrwt>
<pdfrwt beam="2">  1       -1 0.11937156E-01 0.13803750E+03</pdfrwt>
<totfact> 0.65520680E+03</totfact>
</mgrwt>
</event>
<event>
 6    1  0.6387485E-006  0.7283001E+03  0.7546771E-02  0.9978619E-01
         -2   -1    0    0    0  501 -0.00000000000E+00  0.00000000000E+00  0.33575506247E+03  0.33575506247E+03  0.00000000000E+00 0.  1.
          2   -1    0    0  501    0  0.00000000000E+00 -0.00000000000E+00 -0.81202843186E+03  0.81202843186E+03  0.00000000000E+00 0. -1.
          5    1    1    2  502    0 -0.17052472408E+03 -0.58618559637E+02 -0.31288090443E+03  0.36115283110E+03  0.47000000000E+01 0. -1.
         -5    1    1    2    0  502  0.19951403874E+03  0.30690439543E+03  0.13220201184E+03  0.38922438454E+03  0.47000000000E+01 0.  1.
        -11    1    1    2    0    0 -0.26160499126E+02 -0.18862683463E+02 -0.62520351003E+02  0.70348893605E+02  0.00000000000E+00 0.  1.
         11    1    1    2    0    0 -0.28288155400E+01 -0.22942315233E+03 -0.23307412580E+03  0.32705738508E+03  0.00000000000E+00 0. -1.
<mgrwt>
<rscale>  0 0.56597764E+03</rscale>
<asrwt>0</asrwt>
<pdfrwt beam="2">  1        2 0.12492745E+00 0.72830015E+03</pdfrwt>
<pdfrwt beam="1">  1       -2 0.51654625E-01 0.72830015E+03</pdfrwt>
<totfact> 0.12110278E+02</totfact>
</mgrwt>
</event>
<event>
 7    1  0.6387485E-006  0.1708974E+03  0.7546771E-02  0.1178408E+00
         -2   -1    0    0    0  501 -0.00000000000E+00  0.00000000000E+00  0.61301219809E+02  0.61301219809E+02  0.00000000000E+00 0.  1.
          2   -1    0    0  501    0  0.00000000000E+00 -0.00000000000E+00 -0.58478779427E+03  0.58478779427E+03  0.00000000000E+00 0. -1.
         23    2    1    2    0    0  0.31848125051E+02  0.11209912051E+03 -0.11647221412E+03  0.20681319881E+03  0.12500162659E+03 0.  0.
          5    1    3    3  502    0 -0.72993351511E+01  0.12699865574E+03 -0.98668825200E+02  0.16105764781E+03  0.47000000000E+01 0. -1.
         -5    1    3    3    0  502  0.39147460202E+02 -0.14899535221E+02 -0.17803388918E+02  0.45755550997E+02  0.47000000000E+01 0. -1.
        -11    1    1    2    0    0 -0.54368489075E+02 -0.12172799506E+02 -0.87394829798E+02  0.10364345579E+03  0.00000000000E+00 0.  1.
         11    1    1    2    0    0  0.22520364024E+02 -0.99926321009E+02 -0.31961953055E+03  0.33563235948E+03  0.00000000000E+00 0. -1.
<mgrwt>
<rscale>  0 0.16946382E+03</rscale>
<asrwt>0</asrwt>
<pdfrwt beam="2">  1        2 0.89967351E-01 0.17089740E+03</pdfrwt>
<pdfrwt beam="1">  1       -2 0.94309571E-02 0.17089740E+03</pdfrwt>
<totfact> 0.37166663E+03</totfact>
</mgrwt>
</event>
<event>
 6    1  0.6387485E-006  0.1952643E+03  0.7546771E-02  0.1168738E+00
          1   -1    0    0  501    0  0.00000000000E+00  0.00000000000E+00  0.48152346669E+02  0.48152346669E+02  0.00000000000E+00 0. -1.
         -1   -1    0    0    0  501 -0.00000000000E+00 -0.00000000000E+00 -0.99874018184E+03  0.99874018184E+03  0.00000000000E+00 0.  1.
          5    1    1    2  502    0 -0.56417997618E+02 -0.21975029264E+02 -0.10525655975E+03  0.12151924019E+03  0.47000000000E+01 0. -1.
         -5    1    1    2    0  502 -0.23692368828E+02  0.89140658810E+02 -0.75455397507E+03  0.76018496215E+03  0.47000000000E+01 0.  1.
        -11    1    1    2    0    0  0.90438782236E+02 -0.25592087025E+02 -0.52048044369E+02  0.10743894626E+03  0.00000000000E+00 0. -1.
         11    1    1    2    0    0 -0.10328415790E+02 -0.41573542522E+02 -0.38729255989E+02  0.57749379910E+02  0.00000000000E+00 0.  1.
<mgrwt>
<rscale>  0 0.17903770E+03</rscale>
<asrwt>0</asrwt>
<pdfrwt beam="1">  1        1 0.74080545E-02 0.19526429E+03</pdfrwt>
<pdfrwt beam="2">  1       -1 0.15365231E+00 0.19526429E+03</pdfrwt>
<totfact> 0.34350600E+02</totfact>
</mgrwt>
</event>
<event>
 7    1  0.6387485E-006  0.1646983E+03  0.7546771E-02  0.1189895E+00
          1   -1    0    0  501    0  0.00000000000E+00  0.00000000000E+00  0.12307094291E+03  0.12307094291E+03  0.00000000000E+00 0. -1.
         -1   -1    0    0    0  501 -0.00000000000E+00 -0.00000000000E+00 -0.21280807484E+03  0.21280807484E+03  0.00000000000E+00 0.  1.
         23    2    1    2    0    0 -0.98300035259E+02 -0.43017194406E+02 -0.99956630289E+02  0.19265732179E+03  0.12494854843E+03 0.  0.
          5    1    3    3  502    0  0.74724403601E+01 -0.54624303766E+02 -0.17745800774E+02  0.58108995620E+02  0.47000000000E+01 0.  1.
         -5    1    3    3    0  502 -0.10577247562E+03  0.11607109359E+02 -0.82210829515E+02  0.13454832617E+03  0.47000000000E+01 0.  1.
        -11    1    1    2    0    0  0.97756201198E+01  0.51054635140E+02 -0.76872252855E+01  0.52547425727E+02  0.00000000000E+00 0.  1.
         11    1    1    2    0    0  0.88524415139E+02 -0.80374407333E+01  0.17906723642E+02  0.90674270225E+02  0.00000000000E+00 0. -1.
<mgrwt>
<rscale>  0 0.15894316E+03</rscale>
<asrwt>0</asrwt>
<pdfrwt beam="1">  1        1 0.18933991E-01 0.16469826E+03</pdfrwt>
<pdfrwt beam="2">  1       -1 0.32739704E-01 0.16469826E+03</pdfrwt>
<totfact> 0.23587691E+03</totfact>
</mgrwt>
</event>
<event>
 7    1  0.6387485E-006  0.1458453E+03  0.7546771E-02  0.1215382E+00
          1   -1    0    0  501    0  0.00000000000E+00  0.00000000000E+00  0.27082486817E+03  0.27082486817E+03  0.00000000000E+00 0. -1.
         -1   -1    0    0    0  501 -0.00000000000E+00 -0.00000000000E+00 -0.71914627582E+02  0.71914627582E+02  0.00000000000E+00 0.  1.
         23    2    1    2    0    0  0.65365182542E+02 -0.37059387926E+02  0.54030281098E+02  0.15553173964E+03  0.12499938175E+03 0.  0.
          5    1    3    3  502    0 -0.38781193244E+01  0.33028902458E+02  0.45463780708E+02  0.56524274107E+02  0.47000000000E+01 0.  1.
         -5    1    3    3    0  502  0.69243301866E+02 -0.70088290385E+02  0.85665003903E+01  0.99007465533E+02  0.47000000000E+01 0.  1.
        -11    1    1    2    0    0  0.20942054229E+02  0.14479721633E+02  0.54809960023E+02  0.60434788753E+02  0.00000000000E+00 0. -1.
         11    1    1    2    0    0 -0.86307236771E+02  0.22579666293E+02  0.90069999464E+02  0.12677296736E+03  0.00000000000E+00 0.  1.
<mgrwt>
<rscale>  0 0.13848545E+03</rscale>
<asrwt>0</asrwt>
<pdfrwt beam="1">  1        1 0.41665364E-01 0.14584530E+03</pdfrwt>
<pdfrwt beam="2">  1       -1 0.11063789E-01 0.14584530E+03</pdfrwt>
<totfact> 0.49967391E+03</totfact>
</mgrwt>
</event>
<event>
 7    1  0.6387485E-006  0.1371640E+03  0.7546771E-02  0.1228495E+00
         -2   -1    0    0    0  501 -0.00000000000E+00  0.00000000000E+00  0.67920413441E+03  0.67920413441E+03  0.00000000000E+00 0.  1.
          2   -1    0    0  501    0  0.00000000000E+00 -0.00000000000E+00 -0.34548620553E+02  0.34548620553E+02  0.00000000000E+00 0. -1.
         23    2    1    2    0    0 -0.55610007031E+02 -0.98457754104E+01  0.55922089617E+03  0.57579680929E+03  0.12499817079E+03 0.  0.
          5    1    3    3  502    0  0.12000798940E+02 -0.14870864834E+02  0.94298698629E+01  0.21821417043E+02  0.47000000000E+01 0.  1.
         -5    1    3    3    0  502 -0.67610805971E+02  0.50250894240E+01  0.54979102631E+03  0.55397539225E+03  0.47000000000E+01 0.  1.
        -11    1    1    2    0    0  0.56304976472E+01 -0.19231236515E+02 -0.12934985098E+02  0.23850719091E+02  0.00000000000E+00 0. -1.
         11    1    1    2    0    0  0.49979509384E+02  0.29077011926E+02  0.98369602779E+02  0.11410522658E+03  0.00000000000E+00 0.  1.
<mgrwt>
<rscale>  0 0.12930196E+03</rscale>
<asrwt>0</asrwt>
<pdfrwt beam="2">  1        2 0.53151729E-02 0.13716397E+03</pdfrwt>
<pdfrwt beam="1">  1       -2 0.10449293E+00 0.13716397E+03</pdfrwt>
<totfact> 0.10878629E+03</totfact>
</mgrwt>
</event>
<event>
 7    1  0.6387485E-006  0.2030799E+03  0.7546771E-02  0.1151178E+00
         -2   -1    0    0    0  501 -0.00000000000E+00  0.00000000000E+00  0.34384505371E+02  0.34384505371E+02  0.00000000000E+00 0. -1.
          2   -1    0    0  501    0  0.00000000000E+00 -0.00000000000E+00 -0.11348761496E+04  0.11348761496E+04  0.00000000000E+00 0.  1.
         23    2    1    2    0    0  0.15693171009E+03 -0.31460354448E+02 -0.46324765341E+03  0.50580610517E+03  0.12499644835E+03 0.  0.
          5    1    3    3  502    0  0.16003575267E+03 -0.27105471276E+02 -0.46921344164E+03  0.49651736376E+03  0.47000000000E+01 0.  1.
         -5    1    3    3    0  502 -0.31040425812E+01 -0.43548831721E+01  0.59657882240E+01  0.92887414067E+01  0.47000000000E+01 0.  1.
        -11    1    1    2    0    0 -0.13254990730E+02 -0.26275830951E+02 -0.87289149933E+02  0.92116826734E+02  0.00000000000E+00 0. -1.
         11    1    1    2    0    0 -0.14367671936E+03  0.57736185399E+02 -0.54995484088E+03  0.57133772307E+03  0.00000000000E+00 0.  1.
<mgrwt>
<rscale>  0 0.19830413E+03</rscale>
<asrwt>0</asrwt>
<pdfrwt beam="2">  1        2 0.17459630E+00 0.20307986E+03</pdfrwt>
<pdfrwt beam="1">  1       -2 0.52899249E-02 0.20307986E+03</pdfrwt>
<totfact> 0.38875795E+03</totfact>
</mgrwt>
</event>
<event>
 7    1  0.6387485E-006  0.1397576E+03  0.7546771E-02  0.1222216E+00
         -2   -1    0    0    0  501 -0.00000000000E+00  0.00000000000E+00  0.31934668799E+02  0.31934668799E+02  0.00000000000E+00 0.  1.
          2   -1    0    0  501    0  0.00000000000E+00 -0.00000000000E+00 -0.54026314430E+03  0.54026314430E+03  0.00000000000E+00 0. -1.
         23    2    1    2    0    0 -0.30226685206E+02 -0.54703049404E+02 -0.21414376465E+03  0.25571417834E+03  0.12500445173E+03 0.  0.
          5    1    3    3  502    0 -0.61848442199E+02 -0.71378012603E+02 -0.10766675755E+03  0.14329784076E+03  0.47000000000E+01 0.  1.
         -5    1    3    3    0  502  0.31621756993E+02  0.16674963199E+02 -0.10647700710E+03  0.11241633758E+03  0.47000000000E+01 0.  1.
        -11    1    1    2    0    0  0.62501801363E+02  0.48011575914E+02 -0.16065495743E+03  0.17894580728E+03  0.00000000000E+00 0.  1.
         11    1    1    2    0    0 -0.32275116156E+02  0.66914734906E+01 -0.13352975342E+03  0.13753782749E+03  0.00000000000E+00 0. -1.
<mgrwt>
<rscale>  0 0.13359579E+03</rscale>
<asrwt>0</asrwt>
<pdfrwt beam="2">  1        2 0.83117403E-01 0.13975761E+03</pdfrwt>
<pdfrwt beam="1">  1       -2 0.49130262E-02 0.13975761E+03</pdfrwt>
<totfact> 0.10932766E+04</totfact>
</mgrwt>
</event>
<event>
 7    1  0.6387485E-006  0.1727854E+03  0.7546771E-02  0.1180739E+00
         -2   -1    0    0    0  501 -0.00000000000E+00  0.00000000000E+00  0.50313282318E+02  0.50313282318E+02  0.00000000000E+00 0.  1.
          2   -1    0    0  501    0  0.00000000000E+00 -0.00000000000E+00 -0.58109923482E+03  0.58109923482E+03  0.00000000000E+00 0. -1.
         23    2    1    2    0    0  0.58950824566E+02 -0.10370888339E+03 -0.18145362627E+03  0.25055980328E+03  0.12499625723E+03 0.  0.
          5    1    3    3  502    0  0.11181035009E+02 -0.89112515808E+02 -0.17900776538E+03  0.20032954371E+03  0.47000000000E+01 0. -1.
         -5    1    3    3    0  502  0.47769789557E+02 -0.14596367580E+02 -0.24458608928E+01  0.50230259569E+02  0.47000000000E+01 0. -1.
        -11    1    1    2    0    0 -0.24456361206E+02  0.91940561598E+02 -0.14587778529E+03  0.17415943474E+03  0.00000000000E+00 0.  1.
         11    1    1    2    0    0 -0.34494463360E+02  0.11768321790E+02 -0.20345454095E+03  0.20669327912E+03  0.00000000000E+00 0. -1.
<mgrwt>
<rscale>  0 0.16725663E+03</rscale>
<asrwt>0</asrwt>
<pdfrwt beam="2">  1        2 0.89399877E-01 0.17278541E+03</pdfrwt>
<pdfrwt beam="1">  1       -2 0.77405054E-02 0.17278541E+03</pdfrwt>
<totfact> 0.50976770E+03</totfact>
</mgrwt>
</event>
<event>
 7    1  0.6387485E-006  0.2308942E+03  0.7546771E-02  0.1128896E+00
         -2   -1    0    0    0  501 -0.00000000000E+00  0.00000000000E+00  0.48827298873E+02  0.48827298873E+02  0.00000000000E+00 0.  1.
          2   -1    0    0  501    0  0.00000000000E+00 -0.00000000000E+00 -0.10508915274E+04  0.10508915274E+04  0.00000000000E+00 0. -1.
         23    2    1    2    0    0 -0.14012152207E+03 -0.13436325834E+03 -0.42128885902E+03  0.48041276871E+03  0.12499839786E+03 0.  0.
          5    1    3    3  502    0 -0.38675674483E+02 -0.38696099601E+02 -0.26619258251E+03  0.27179730850E+03  0.47000000000E+01 0.  1.
         -5    1    3    3    0  502 -0.10144584759E+03 -0.95667158740E+02 -0.15509627651E+03  0.20861546021E+03  0.47000000000E+01 0.  1.
        -11    1    1    2    0    0  0.51121729713E+02  0.10944867259E+03 -0.28859802887E+03  0.31285981757E+03  0.00000000000E+00 0.  1.
         11    1    1    2    0    0  0.88999792359E+02  0.24914585749E+02 -0.29217734060E+03  0.30644623995E+03  0.00000000000E+00 0. -1.
<mgrwt>
<rscale>  0 0.22682292E+03</rscale>
<asrwt>0</asrwt>
<pdfrwt beam="2">  1        2 0.16167560E+00 0.23089419E+03</pdfrwt>
<pdfrwt beam="1">  1       -2 0.75118931E-02 0.23089419E+03</pdfrwt>
<totfact> 0.25440145E+03</totfact>
</mgrwt>
</event>
<event>
 7    1  0.6387485E-006  0.1464360E+03  0.7546771E-02  0.1214612E+00
          2   -1    0    0  501    0  0.00000000000E+00  0.00000000000E+00  0.59929401689E+03  0.59929401689E+03  0.00000000000E+00 0. -1.
         -2   -1    0    0    0  501 -0.00000000000E+00 -0.00000000000E+00 -0.29673799715E+02  0.29673799715E+02  0.00000000000E+00 0.  1.
         23    2    1    2    0    0 -0.76269452820E+02 -0.11242164765E+01  0.28408194758E+03  0.31960297503E+03  0.12500086164E+03 0.  0.
          5    1    3    3  502    0 -0.44654304321E+02  0.20884226967E+01  0.13234725928E+02  0.46857404689E+02  0.47000000000E+01 0.  1.
         -5    1    3    3    0  502 -0.31615148498E+02 -0.32126391732E+01  0.27084722165E+03  0.27274557034E+03  0.47000000000E+01 0.  1.
        -11    1    1    2    0    0 -0.57849525055E+01 -0.30528628630E+02  0.77971605788E+02  0.83934701707E+02  0.00000000000E+00 0.  1.
         11    1    1    2    0    0  0.82054405325E+02  0.31652845106E+02  0.20756666381E+03  0.22543013987E+03  0.00000000000E+00 0. -1.
<mgrwt>
<rscale>  0 0.13905110E+03</rscale>
<asrwt>0</asrwt>
<pdfrwt beam="1">  1        2 0.92199070E-01 0.14643602E+03</pdfrwt>
<pdfrwt beam="2">  1       -2 0.45652004E-02 0.14643602E+03</pdfrwt>
<totfact> 0.10893679E+04</totfact>
</mgrwt>
</event>
<event>
 7    1  0.6387485E-006  0.1562247E+03  0.7546771E-02  0.1201712E+00
         -1   -1    0    0    0  501 -0.00000000000E+00  0.00000000000E+00  0.55859608119E+03  0.55859608119E+03  0.00000000000E+00 0.  1.
          1   -1    0    0  501    0  0.00000000000E+00 -0.00000000000E+00 -0.37546429401E+02  0.37546429401E+02  0.00000000000E+00 0. -1.
         23    2    1    2    0    0  0.93080106710E+02 -0.10836635832E+02  0.33457034808E+03  0.36924716885E+03  0.12499925979E+03 0.  0.
          5    1    3    3  502    0 -0.21225006704E+02 -0.33067667504E+02  0.78911341945E+02  0.88278318014E+02  0.47000000000E+01 0.  1.
         -5    1    3    3    0  502  0.11430511341E+03  0.22231031672E+02  0.25565900613E+03  0.28096885083E+03  0.47000000000E+01 0.  1.
        -11    1    1    2    0    0 -0.31636259404E+02  0.36579268451E+02  0.30219554399E+02  0.57027337809E+02  0.00000000000E+00 0. -1.
         11    1    1    2    0    0 -0.61443847306E+02 -0.25742632620E+02  0.15625974932E+03  0.16986800394E+03  0.00000000000E+00 0.  1.
<mgrwt>
<rscale>  0 0.14899595E+03</rscale>
<asrwt>0</asrwt>
<pdfrwt beam="2">  1        1 0.57763742E-02 0.15622469E+03</pdfrwt>
<pdfrwt beam="1">  1       -1 0.85937852E-01 0.15622469E+03</pdfrwt>
<totfact> 0.18695322E+03</totfact>
</mgrwt>
</event>
<event>
 7    1  0.6387485E-006  0.1771137E+03  0.7546771E-02  0.1176318E+00
         -1   -1    0    0    0  501 -0.00000000000E+00  0.00000000000E+00  0.68091343572E+02  0.68091343572E+02  0.00000000000E+00 0.  1.
          1   -1    0    0  501    0  0.00000000000E+00 -0.00000000000E+00 -0.42535518385E+03  0.42535518385E+03  0.00000000000E+00 0. -1.
         23    2    1    2    0    0  0.71686863826E+01  0.12527339364E+03 -0.13777480472E+03  0.22439067376E+03  0.12499785772E+03 0.  0.
          5    1    3    3  502    0  0.44265257468E+01 -0.20602527637E+02  0.27517771491E+01  0.21765122391E+02  0.47000000000E+01 0. -1.
         -5    1    3    3    0  502  0.27421606358E+01  0.14587592128E+03 -0.14052658187E+03  0.20262555136E+03  0.47000000000E+01 0. -1.
        -11    1    1    2    0    0  0.36573726635E+02 -0.74422203514E+02 -0.15613912181E+03  0.17679289357E+03  0.00000000000E+00 0. -1.
         11    1    1    2    0    0 -0.43742413018E+02 -0.50851190129E+02 -0.63349913744E+02  0.92262960095E+02  0.00000000000E+00 0.  1.
<mgrwt>
<rscale>  0 0.17147513E+03</rscale>
<asrwt>0</asrwt>
<pdfrwt beam="2">  1        1 0.65439260E-01 0.17711374E+03</pdfrwt>
<pdfrwt beam="1">  1       -1 0.10475591E-01 0.17711374E+03</pdfrwt>
<totfact> 0.31134536E+03</totfact>
</mgrwt>
</event>
<event>
 6    1  0.6387485E-006  0.1649374E+03  0.7546771E-02  0.1201583E+00
          1   -1    0    0  501    0  0.00000000000E+00  0.00000000000E+00  0.74185357158E+03  0.74185357158E+03  0.00000000000E+00 0. -1.
         -1   -1    0    0    0  501 -0.00000000000E+00 -0.00000000000E+00 -0.25623553615E+02  0.25623553615E+02  0.00000000000E+00 0.  1.
          5    1    1    2  502    0  0.63203851194E+02 -0.86015474665E+02  0.31952555253E+03  0.33691550485E+03  0.47000000000E+01 0. -1.
         -5    1    1    2    0  502 -0.61455330068E+01  0.56690937153E+02  0.13570936935E+03  0.14727780844E+03  0.47000000000E+01 0.  1.
        -11    1    1    2    0    0  0.13126256273E+02  0.35951301849E+02  0.71476625524E+02  0.81078373841E+02  0.00000000000E+00 0.  1.
         11    1    1    2    0    0 -0.70184574459E+02 -0.66267643363E+01  0.18951847056E+03  0.20220543806E+03  0.00000000000E+00 0. -1.
<mgrwt>
<rscale>  0 0.14909998E+03</rscale>
<asrwt>0</asrwt>
<pdfrwt beam="1">  1        1 0.11413130E+00 0.16493735E+03</pdfrwt>
<pdfrwt beam="2">  1       -1 0.39420857E-02 0.16493735E+03</pdfrwt>
<totfact> 0.63430114E+03</totfact>
</mgrwt>
</event>
<event>
 7    1  0.6387485E-006  0.1561448E+03  0.7546771E-02  0.1201082E+00
         -2   -1    0    0    0  501 -0.00000000000E+00  0.00000000000E+00  0.26118428460E+03  0.26118428460E+03  0.00000000000E+00 0.  1.
          2   -1    0    0  501    0  0.00000000000E+00 -0.00000000000E+00 -0.12304547638E+03  0.12304547638E+03  0.00000000000E+00 0. -1.
         23    2    1    2    0    0 -0.28041423553E+01  0.10803162750E+03  0.18751584931E+03  0.24401514008E+03  0.11270536407E+03 0.  0.
          5    1    3    3  502    0  0.16532189919E+02  0.49819805014E+02  0.68280643350E+01  0.53141685500E+02  0.47000000000E+01 0. -1.
         -5    1    3    3    0  502 -0.19336332274E+02  0.58211822485E+02  0.18068778498E+03  0.19087345458E+03  0.47000000000E+01 0.  1.
        -11    1    1    2    0    0  0.28816531939E+02 -0.18143839153E+02 -0.28340521674E+02  0.44303234430E+02  0.00000000000E+00 0. -1.
         11    1    1    2    0    0 -0.26012389584E+02 -0.89887788347E+02 -0.21036519423E+02  0.95911386473E+02  0.00000000000E+00 0.  1.
<mgrwt>
<rscale>  0 0.14950517E+03</rscale>
<asrwt>0</asrwt>
<pdfrwt beam="2">  1        2 0.18930073E-01 0.15614479E+03</pdfrwt>
<pdfrwt beam="1">  1       -2 0.40182198E-01 0.15614479E+03</pdfrwt>
<totfact> 0.17114983E+03</totfact>
</mgrwt>
</event>
<event>
 7    1  0.6387485E-006  0.1318321E+03  0.7546771E-02  0.1237945E+00
          2   -1    0    0  501    0  0.00000000000E+00  0.00000000000E+00  0.65513408903E+02  0.65513408903E+02  0.00000000000E+00 0. -1.
         -2   -1    0    0    0  501 -0.00000000000E+00 -0.00000000000E+00 -0.20677889851E+03  0.20677889851E+03  0.00000000000E+00 0.  1.
         23    2    1    2    0    0  0.22617769469E+02  0.35250807062E+02 -0.71535124247E+02  0.14998996385E+03  0.12500212942E+03 0.  0.
          5    1    3    3  502    0  0.72368042123E+02  0.36771363937E+02 -0.50736912046E+02  0.95841488774E+02  0.47000000000E+01 0.  1.
         -5    1    3    3    0  502 -0.49750272654E+02 -0.15205568744E+01 -0.20798212201E+02  0.54148475077E+02  0.47000000000E+01 0.  1.
        -11    1    1    2    0    0 -0.94132588826E+01 -0.63227078754E+02 -0.64713756188E+02  0.90962317311E+02  0.00000000000E+00 0. -1.
         11    1    1    2    0    0 -0.13204510586E+02  0.27976271692E+02 -0.50166091675E+01  0.31340026247E+02  0.00000000000E+00 0.  1.
<mgrwt>
<rscale>  0 0.12317773E+03</rscale>
<asrwt>0</asrwt>
<pdfrwt beam="1">  1        2 0.10078986E-01 0.13183215E+03</pdfrwt>
<pdfrwt beam="2">  1       -2 0.31812138E-01 0.13183215E+03</pdfrwt>
<totfact> 0.55170207E+03</totfact>
</mgrwt>
</event>
<event>
 7    1  0.6387485E-006  0.1279450E+03  0.7546771E-02  0.1245811E+00
          2   -1    0    0  501    0  0.00000000000E+00  0.00000000000E+00  0.96759764736E+02  0.96759764736E+02  0.00000000000E+00 0. -1.
         -2   -1    0    0    0  501 -0.00000000000E+00 -0.00000000000E+00 -0.13330947030E+03  0.13330947030E+03  0.00000000000E+00 0.  1.
         23    2    1    2    0    0  0.56732805267E+01  0.26706148397E+02 -0.45765707363E+02  0.13588388368E+03  0.12499810159E+03 0.  0.
          5    1    3    3  502    0  0.63883905757E+02  0.12514407686E+01 -0.19448299855E+02  0.66955551569E+02  0.47000000000E+01 0.  1.
         -5    1    3    3    0  502 -0.58210625230E+02  0.25454707628E+02 -0.26317407508E+02  0.68928332114E+02  0.47000000000E+01 0.  1.
        -11    1    1    2    0    0  0.61855116093E+01  0.21003434687E+02  0.32976242828E+02  0.39583297154E+02  0.00000000000E+00 0. -1.
         11    1    1    2    0    0 -0.11858792136E+02 -0.47709583084E+02 -0.23760241030E+02  0.54602054199E+02  0.00000000000E+00 0.  1.
<mgrwt>
<rscale>  0 0.11836986E+03</rscale>
<asrwt>0</asrwt>
<pdfrwt beam="1">  1        2 0.14886118E-01 0.12794503E+03</pdfrwt>
<pdfrwt beam="2">  1       -2 0.20509149E-01 0.12794503E+03</pdfrwt>
<totfact> 0.74458969E+03</totfact>
</mgrwt>
</event>
<event>
 7    1  0.6387485E-006  0.2101023E+03  0.7546771E-02  0.1145471E+00
         -1   -1    0    0    0  501 -0.00000000000E+00  0.00000000000E+00  0.40077640732E+03  0.40077640732E+03  0.00000000000E+00 0.  1.
          1   -1    0    0  501    0  0.00000000000E+00 -0.00000000000E+00 -0.10545694969E+03  0.10545694969E+03  0.00000000000E+00 0. -1.
         23    2    1    2    0    0  0.13452827408E+03 -0.10208743944E+03  0.21009190935E+03  0.29712218966E+03  0.12499313340E+03 0.  0.
          5    1    3    3  502    0  0.28592052290E+02 -0.38136920029E+02  0.15382055788E+03  0.16110488556E+03  0.47000000000E+01 0.  1.
         -5    1    3    3    0  502  0.10593622179E+03 -0.63950519407E+02  0.56271351466E+02  0.13601730410E+03  0.47000000000E+01 0.  1.
        -11    1    1    2    0    0 -0.11524513342E+03  0.39734904709E+02  0.74786378411E+02  0.14301505454E+03  0.00000000000E+00 0. -1.
         11    1    1    2    0    0 -0.19283140659E+02  0.62352534727E+02  0.10441169875E+02  0.66096112812E+02  0.00000000000E+00 0.  1.
<mgrwt>
<rscale>  0 0.20514257E+03</rscale>
<asrwt>0</asrwt>
<pdfrwt beam="2">  1        1 0.16224146E-01 0.21010232E+03</pdfrwt>
<pdfrwt beam="1">  1       -1 0.61657908E-01 0.21010232E+03</pdfrwt>
<totfact> 0.92307463E+02</totfact>
</mgrwt>
</event>
<event>
 7    1  0.6387485E-006  0.1586137E+03  0.7546771E-02  0.1198483E+00
         -2   -1    0    0    0  501 -0.00000000000E+00  0.00000000000E+00  0.10873277811E+03  0.10873277811E+03  0.00000000000E+00 0.  1.
          2   -1    0    0  501    0  0.00000000000E+00 -0.00000000000E+00 -0.26935361305E+03  0.26935361305E+03  0.00000000000E+00 0. -1.
         23    2    1    2    0    0 -0.18034453239E+02 -0.95957253538E+02  0.13628793104E+02  0.15919818222E+03  0.12500112484E+03 0.  0.
          5    1    3    3  502    0 -0.13568416535E+02 -0.81695439305E+02  0.65069509140E+02  0.10542474923E+03  0.47000000000E+01 0. -1.
         -5    1    3    3    0  502 -0.44660367036E+01 -0.14261814232E+02 -0.51440716036E+02  0.53773432988E+02  0.47000000000E+01 0. -1.
        -11    1    1    2    0    0 -0.79472180144E+01  0.93962948785E+02 -0.88707282572E+02  0.12946496051E+03  0.00000000000E+00 0.  1.
         11    1    1    2    0    0  0.25981671253E+02  0.19943047523E+01 -0.85542345473E+02  0.89423248440E+02  0.00000000000E+00 0. -1.
<mgrwt>
<rscale>  0 0.15163083E+03</rscale>
<asrwt>0</asrwt>
<pdfrwt beam="2">  1        2 0.41439017E-01 0.15861374E+03</pdfrwt>
<pdfrwt beam="1">  1       -2 0.16728120E-01 0.15861374E+03</pdfrwt>
<totfact> 0.34102327E+03</totfact>
</mgrwt>
</event>
<event>
 7    1  0.6387485E-006  0.1294091E+03  0.7546771E-02  0.1242461E+00
          2   -1    0    0  501    0  0.00000000000E+00  0.00000000000E+00  0.52868055060E+03  0.52868055060E+03  0.00000000000E+00 0.  1.
         -2   -1    0    0    0  501 -0.00000000000E+00 -0.00000000000E+00 -0.24229713639E+02  0.24229713639E+02  0.00000000000E+00 0. -1.
         23    2    1    2    0    0 -0.31321337254E+02  0.11858350252E+02  0.28394925537E+03  0.31204790352E+03  0.12500027131E+03 0.  0.
          5    1    3    3  502    0  0.85760491704E+00 -0.46666142172E+02  0.49376584519E+02  0.68107278687E+02  0.47000000000E+01 0.  1.
         -5    1    3    3    0  502 -0.32178942171E+02  0.58524492424E+02  0.23457267085E+03  0.24394062483E+03  0.47000000000E+01 0.  1.
        -11    1    1    2    0    0  0.63302059822E+01  0.31620452025E+02  0.15526034058E+03  0.15857395073E+03  0.00000000000E+00 0.  1.
         11    1    1    2    0    0  0.24991131272E+02 -0.43478802277E+02  0.65241241014E+02  0.82288409991E+02  0.00000000000E+00 0. -1.
<mgrwt>
<rscale>  0 0.12038666E+03</rscale>
<asrwt>0</asrwt>
<pdfrwt beam="1">  1        2 0.81335460E-01 0.12940910E+03</pdfrwt>
<pdfrwt beam="2">  1       -2 0.37276487E-02 0.12940910E+03</pdfrwt>
<totfact> 0.16801953E+04</totfact>
</mgrwt>
</event>
<event>
 7    1  0.6387485E-006  0.1374834E+03  0.7546771E-02  0.1226326E+00
          1   -1    0    0  501    0  0.00000000000E+00  0.00000000000E+00  0.11554051432E+03  0.11554051432E+03  0.00000000000E+00 0. -1.
         -1   -1    0    0    0  501 -0.00000000000E+00 -0.00000000000E+00 -0.14429284992E+03  0.14429284992E+03  0.00000000000E+00 0.  1.
         23    2    1    2    0    0  0.78356938239E+01  0.56713703844E+02 -0.48128881367E+02  0.14566429027E+03  0.12499541567E+03 0.  0.
          5    1    3    3  502    0  0.24085151678E+02 -0.23407700624E+02 -0.53782337062E+02  0.63581795821E+02  0.47000000000E+01 0. -1.
         -5    1    3    3    0  502 -0.16249457854E+02  0.80121404468E+02  0.56534556954E+01  0.82082494454E+02  0.47000000000E+01 0. -1.
        -11    1    1    2    0    0  0.32555825489E+02 -0.58218133573E+02 -0.51317594805E+01  0.66899684643E+02  0.00000000000E+00 0.  1.
         11    1    1    2    0    0 -0.40391519313E+02  0.15044297287E+01  0.24508305239E+02  0.47269389322E+02  0.00000000000E+00 0. -1.
<mgrwt>
<rscale>  0 0.13076402E+03</rscale>
<asrwt>0</asrwt>
<pdfrwt beam="1">  1        1 0.17775464E-01 0.13748344E+03</pdfrwt>
<pdfrwt beam="2">  1       -1 0.22198900E-01 0.13748344E+03</pdfrwt>
<totfact> 0.48354929E+03</totfact>
</mgrwt>
</event>
<event>
 7    1  0.6387485E-006  0.1705821E+03  0.7546771E-02  0.1183740E+00
          4   -1    0    0  501    0  0.00000000000E+00  0.00000000000E+00  0.10899280687E+03  0.10899280687E+03  0.00000000000E+00 0. -1.
         -4   -1    0    0    0  501 -0.00000000000E+00 -0.00000000000E+00 -0.23528578728E+03  0.23528578728E+03  0.00000000000E+00 0.  1.
         23    2    1    2    0    0  0.88281543948E+02 -0.75355024059E+02 -0.88109790614E+02  0.19199371134E+03  0.12500495726E+03 0.  0.
          5    1    3    3  502    0 -0.56798035027E+01  0.26777622789E+02 -0.31614470311E+02  0.42081658512E+02  0.47000000000E+01 0. -1.
         -5    1    3    3    0  502  0.93961347451E+02 -0.10213264685E+03 -0.56495320303E+02  0.14991205283E+03  0.47000000000E+01 0. -1.
        -11    1    1    2    0    0 -0.21350191124E+02  0.52825662837E+02 -0.55533410252E+02  0.79563439905E+02  0.00000000000E+00 0.  1.
         11    1    1    2    0    0 -0.66931352824E+02  0.22529361222E+02  0.17350220454E+02  0.72721442901E+02  0.00000000000E+00 0. -1.
<mgrwt>
<rscale>  0 0.16447101E+03</rscale>
<asrwt>0</asrwt>
<pdfrwt beam="1">  1        4 0.16768124E-01 0.17058209E+03</pdfrwt>
<pdfrwt beam="2">  1       -4 0.36197813E-01 0.17058209E+03</pdfrwt>
<totfact> 0.39689153E+02</totfact>
</mgrwt>
</event>
<event>
 7    1  0.6387485E-006  0.1333749E+03  0.7546771E-02  0.1235640E+00
         -1   -1    0    0    0  501 -0.00000000000E+00  0.00000000000E+00  0.25444522059E+02  0.25444522059E+02  0.00000000000E+00 0.  1.
          1   -1    0    0  501    0  0.00000000000E+00 -0.00000000000E+00 -0.56563086894E+03  0.56563086894E+03  0.00000000000E+00 0. -1.
         23    2    1    2    0    0  0.44202227627E+02 -0.14448555848E+02 -0.24638941715E+03  0.28017245464E+03  0.12500504694E+03 0.  0.
          5    1    3    3  502    0  0.41262309017E+02 -0.67921118843E+02 -0.14820093023E+03  0.16823038445E+03  0.47000000000E+01 0.  1.
         -5    1    3    3    0  502  0.29399186096E+01  0.53472562995E+02 -0.98188486921E+02  0.11194207019E+03  0.47000000000E+01 0.  1.
        -11    1    1    2    0    0 -0.29692591558E+02 -0.32192404179E+02 -0.20432717679E+03  0.20896793068E+03  0.00000000000E+00 0. -1.
         11    1    1    2    0    0 -0.14509636069E+02  0.46640960027E+02 -0.89469752943E+02  0.10193500568E+03  0.00000000000E+00 0.  1.
<mgrwt>
<rscale>  0 0.12463545E+03</rscale>
<asrwt>0</asrwt>
<pdfrwt beam="2">  1        1 0.87020130E-01 0.13337488E+03</pdfrwt>
<pdfrwt beam="1">  1       -1 0.39145420E-02 0.13337488E+03</pdfrwt>
<totfact> 0.92552985E+03</totfact>
</mgrwt>
</event>
<event>
 7    1  0.6387485E-006  0.1441832E+03  0.7546771E-02  0.1218811E+00
         -3   -1    0    0    0  501 -0.00000000000E+00  0.00000000000E+00  0.46281574682E+03  0.46281574682E+03  0.00000000000E+00 0.  1.
          3   -1    0    0  501    0  0.00000000000E+00 -0.00000000000E+00 -0.56957147013E+02  0.56957147013E+02  0.00000000000E+00 0. -1.
         23    2    1    2    0    0 -0.30737613926E+02  0.64950390777E+02  0.37465554389E+03  0.40144188011E+03  0.12500180943E+03 0.  0.
          5    1    3    3  502    0 -0.10096173058E+02  0.73492582550E+01  0.31686559638E+03  0.31714640228E+03  0.47000000000E+01 0.  1.
         -5    1    3    3    0  502 -0.20641440868E+02  0.57601132522E+02  0.57789947514E+02  0.84295477830E+02  0.47000000000E+01 0.  1.
        -11    1    1    2    0    0  0.27443843732E+02  0.13981118825E+02  0.23916811782E+02  0.38995514207E+02  0.00000000000E+00 0.  1.
         11    1    1    2    0    0  0.32937701938E+01 -0.78931509602E+02  0.72862441284E+01  0.79335499517E+02  0.00000000000E+00 0. -1.
<mgrwt>
<rscale>  0 0.13600294E+03</rscale>
<asrwt>0</asrwt>
<pdfrwt beam="2">  1        3 0.87626383E-02 0.14418324E+03</pdfrwt>
<pdfrwt beam="1">  1       -3 0.71202420E-01 0.14418324E+03</pdfrwt>
<totfact> 0.41276083E+02</totfact>
</mgrwt>
</event>
<event>
 7    1  0.6387485E-006  0.1321304E+03  0.7546771E-02  0.1238394E+00
         -1   -1    0    0    0  501 -0.00000000000E+00  0.00000000000E+00  0.10151738582E+03  0.10151738582E+03  0.00000000000E+00 0.  1.
          1   -1    0    0  501    0  0.00000000000E+00 -0.00000000000E+00 -0.16256374534E+03  0.16256374534E+03  0.00000000000E+00 0. -1.
         23    2    1    2    0    0 -0.38381749210E+02 -0.18925204493E+02  0.23224214943E+02  0.13415595258E+03  0.12500853337E+03 0.  0.
          5    1    3    3  502    0 -0.42801044890E+01 -0.66018522234E+02  0.34472919369E+02  0.74747820986E+02  0.47000000000E+01 0.  1.
         -5    1    3    3    0  502 -0.34101644721E+02  0.47093317741E+02 -0.11248704427E+02  0.59408131597E+02  0.47000000000E+01 0.  1.
        -11    1    1    2    0    0  0.43676573303E+02 -0.22079981812E+02 -0.18666699739E+02  0.52379522062E+02  0.00000000000E+00 0.  1.
         11    1    1    2    0    0 -0.52948240925E+01  0.41005186305E+02 -0.65603874725E+02  0.77545656519E+02  0.00000000000E+00 0. -1.
<mgrwt>
<rscale>  0 0.12289639E+03</rscale>
<asrwt>0</asrwt>
<pdfrwt beam="2">  1        1 0.25009807E-01 0.13213045E+03</pdfrwt>
<pdfrwt beam="1">  1       -1 0.15618059E-01 0.13213045E+03</pdfrwt>
<totfact> 0.54840318E+03</totfact>
</mgrwt>
</event>
<event>
 7    1  0.6387485E-006  0.3476122E+03  0.7546771E-02  0.1064706E+00
          2   -1    0    0  501    0  0.00000000000E+00  0.00000000000E+00  0.64347383393E+03  0.64347383393E+03  0.00000000000E+00 0. -1.
         -2   -1    0    0    0  501 -0.00000000000E+00 -0.00000000000E+00 -0.23834792025E+03  0.23834792025E+03  0.00000000000E+00 0.  1.
         23    2    1    2    0    0  0.28088912906E+03  0.16219938929E+03 -0.91401668635E+01  0.34773238629E+03  0.12500770021E+03 0.  0.
          5    1    3    3  502    0  0.15232106552E+03  0.21070037784E+02  0.17809800618E+02  0.15487069604E+03  0.47000000000E+01 0.  1.
         -5    1    3    3    0  502  0.12856806355E+03  0.14112935150E+03 -0.26949967482E+02  0.19286169025E+03  0.47000000000E+01 0.  1.
        -11    1    1    2    0    0 -0.47344629841E+02 -0.31563998046E+02  0.26050990210E+02  0.62581579066E+02  0.00000000000E+00 0.  1.
         11    1    1    2    0    0 -0.23354449922E+03 -0.13063539124E+03  0.38821509033E+03  0.47150778883E+03  0.00000000000E+00 0. -1.
<mgrwt>
<rscale>  0 0.34495333E+03</rscale>
<asrwt>0</asrwt>
<pdfrwt beam="1">  1        2 0.98995974E-01 0.34761224E+03</pdfrwt>
<pdfrwt beam="2">  1       -2 0.36668911E-01 0.34761224E+03</pdfrwt>
<totfact> 0.32741465E+02</totfact>
</mgrwt>
</event>
<event>
 7    1  0.6387485E-006  0.1347380E+03  0.7546771E-02  0.1231481E+00
          2   -1    0    0  501    0  0.00000000000E+00  0.00000000000E+00  0.37835906823E+03  0.37835906823E+03  0.00000000000E+00 0. -1.
         -2   -1    0    0    0  501 -0.00000000000E+00 -0.00000000000E+00 -0.58454055461E+02  0.58454055461E+02  0.00000000000E+00 0.  1.
         23    2    1    2    0    0 -0.50162368274E+02 -0.37648129227E+01  0.45646089446E+02  0.14225993339E+03  0.12499554456E+03 0.  0.
          5    1    3    3  502    0 -0.43862289781E+02 -0.61086523340E+02  0.15152655880E+02  0.76858030022E+02  0.47000000000E+01 0. -1.
         -5    1    3    3    0  502 -0.63000784931E+01  0.57321710417E+02  0.30493433565E+02  0.65401903373E+02  0.47000000000E+01 0. -1.
        -11    1    1    2    0    0  0.63406959510E+02  0.31188939500E+02  0.13926271519E+03  0.15616432469E+03  0.00000000000E+00 0.  1.
         11    1    1    2    0    0 -0.13244591236E+02 -0.27424126577E+02  0.13499620813E+03  0.13838886561E+03  0.00000000000E+00 0. -1.
<mgrwt>
<rscale>  0 0.12732401E+03</rscale>
<asrwt>0</asrwt>
<pdfrwt beam="1">  1        2 0.58209086E-01 0.13473798E+03</pdfrwt>
<pdfrwt beam="2">  1       -2 0.89929318E-02 0.13473798E+03</pdfrwt>
<totfact> 0.63771127E+03</totfact>
</mgrwt>
</event>
<event>
 7    1  0.6387485E-006  0.1586336E+03  0.7546771E-02  0.1195649E+00
          2   -1    0    0  501    0  0.00000000000E+00  0.00000000000E+00  0.31490135725E+03  0.31490135725E+03  0.00000000000E+00 0.  1.
         -2   -1    0    0    0  501 -0.00000000000E+00 -0.00000000000E+00 -0.72519604948E+02  0.72519604948E+02  0.00000000000E+00 0. -1.
         23    2    1    2    0    0  0.90134169403E+02  0.37615301066E+02  0.10232319535E+03  0.18877145112E+03  0.12500218032E+03 0.  0.
          5    1    3    3  502    0  0.62395067171E+02  0.65018625256E+02  0.11619530431E+03  0.14711901570E+03  0.47000000000E+01 0.  1.
         -5    1    3    3    0  502  0.27739102232E+02 -0.27403324190E+02 -0.13872108962E+02  0.41652435419E+02  0.47000000000E+01 0.  1.
        -11    1    1    2    0    0 -0.90275201314E+02 -0.65878704656E+02  0.12007055316E+03  0.16403217195E+03  0.00000000000E+00 0. -1.
         11    1    1    2    0    0  0.14103191021E+00  0.28263403590E+02  0.19988003803E+02  0.34617339131E+02  0.00000000000E+00 0.  1.
<mgrwt>
<rscale>  0 0.15399387E+03</rscale>
<asrwt>0</asrwt>
<pdfrwt beam="1">  1        2 0.48446362E-01 0.15863362E+03</pdfrwt>
<pdfrwt beam="2">  1       -2 0.11156862E-01 0.15863362E+03</pdfrwt>
<totfact> 0.55750583E+03</totfact>
</mgrwt>
</event>
<event>
 7    1  0.6387485E-006  0.1368621E+03  0.7546771E-02  0.1233284E+00
         -2   -1    0    0    0  501 -0.00000000000E+00  0.00000000000E+00  0.28696772299E+02  0.28696772299E+02  0.00000000000E+00 0.  1.
          2   -1    0    0  501    0  0.00000000000E+00 -0.00000000000E+00 -0.59064832559E+03  0.59064832559E+03  0.00000000000E+00 0. -1.
         23    2    1    2    0    0  0.55178018992E+02 -0.78892459809E+01 -0.18784313726E+03  0.23241403222E+03  0.12499753667E+03 0.  0.
          5    1    3    3  502    0  0.68746987807E+02 -0.90184667957E-01 -0.20032893408E+03  0.21184883360E+03  0.47000000000E+01 0.  1.
         -5    1    3    3    0  502 -0.13568968815E+02 -0.77990613129E+01  0.12485796822E+02  0.20565198622E+02  0.47000000000E+01 0.  1.
        -11    1    1    2    0    0 -0.30693686342E+02 -0.35812593999E+02 -0.14773863312E+03  0.15508497021E+03  0.00000000000E+00 0.  1.
         11    1    1    2    0    0 -0.24484332649E+02  0.43701839980E+02 -0.22636978291E+03  0.23184609545E+03  0.00000000000E+00 0. -1.
<mgrwt>
<rscale>  0 0.12614951E+03</rscale>
<asrwt>0</asrwt>
<pdfrwt beam="2">  1        2 0.90868964E-01 0.13686211E+03</pdfrwt>
<pdfrwt beam="1">  1       -2 0.44148885E-02 0.13686211E+03</pdfrwt>
<totfact> 0.11590732E+04</totfact>
</mgrwt>
</event>
<event>
 7    1  0.6387485E-006  0.1935887E+03  0.7546771E-02  0.1159882E+00
          2   -1    0    0  501    0  0.00000000000E+00  0.00000000000E+00  0.10156230528E+03  0.10156230528E+03  0.00000000000E+00 0. -1.
         -2   -1    0    0    0  501 -0.00000000000E+00 -0.00000000000E+00 -0.41200636015E+03  0.41200636015E+03  0.00000000000E+00 0.  1.
         23    2    1    2    0    0 -0.14774285393E+03  0.47059713767E+01 -0.27485283084E+03  0.33618547793E+03  0.12500599944E+03 0.  0.
          5    1    3    3  502    0 -0.13129750738E+03  0.39600690864E+02 -0.14077001812E+03  0.19658468445E+03  0.47000000000E+01 0.  1.
         -5    1    3    3    0  502 -0.16445346548E+02 -0.34894719487E+02 -0.13408281272E+03  0.13960079347E+03  0.47000000000E+01 0.  1.
        -11    1    1    2    0    0  0.10270190023E+03 -0.86726592881E+01 -0.66458716856E+02  0.12263627675E+03  0.00000000000E+00 0.  1.
         11    1    1    2    0    0  0.45040953699E+02  0.39666879114E+01  0.30867492829E+02  0.54746910750E+02  0.00000000000E+00 0. -1.
<mgrwt>
<rscale>  0 0.18843321E+03</rscale>
<asrwt>0</asrwt>
<pdfrwt beam="1">  1        2 0.15624970E-01 0.19358873E+03</pdfrwt>
<pdfrwt beam="2">  1       -2 0.63385593E-01 0.19358873E+03</pdfrwt>
<totfact> 0.86828537E+02</totfact>
</mgrwt>
</event>
<event>
 7    1  0.6387485E-006  0.1352973E+03  0.7546771E-02  0.1231672E+00
          1   -1    0    0  501    0  0.00000000000E+00  0.00000000000E+00  0.66741230356E+03  0.66741230356E+03  0.00000000000E+00 0. -1.
         -1   -1    0    0    0  501 -0.00000000000E+00 -0.00000000000E+00 -0.35423477259E+02  0.35423477259E+02  0.00000000000E+00 0.  1.
         23    2    1    2    0    0  0.34068029999E+02  0.39071736463E+02  0.12255290268E+03  0.18255016333E+03  0.12497246465E+03 0.  0.
          5    1    3    3  502    0  0.32648299646E+02  0.51252862483E+02  0.16871638971E+01  0.60972976838E+02  0.47000000000E+01 0. -1.
         -5    1    3    3    0  502  0.14197303521E+01 -0.12181126020E+02  0.12086573878E+03  0.12157718650E+03  0.47000000000E+01 0. -1.
        -11    1    1    2    0    0 -0.34526969792E+02  0.23814155058E+02  0.23726563328E+03  0.24094440512E+03  0.00000000000E+00 0. -1.
         11    1    1    2    0    0  0.45893979384E+00 -0.62885891521E+02  0.27217029034E+03  0.27934121236E+03  0.00000000000E+00 0.  1.
<mgrwt>
<rscale>  0 0.12719906E+03</rscale>
<asrwt>0</asrwt>
<pdfrwt beam="1">  1        1 0.10267881E+00 0.13529726E+03</pdfrwt>
<pdfrwt beam="2">  1       -1 0.54497662E-02 0.13529726E+03</pdfrwt>
<totfact> 0.45318607E+03</totfact>
</mgrwt>
</event>
<event>
 7    1  0.6387485E-006  0.1516515E+03  0.7546771E-02  0.1208153E+00
         -2   -1    0    0    0  501 -0.00000000000E+00  0.00000000000E+00  0.25446051142E+03  0.25446051142E+03  0.00000000000E+00 0.  1.
          2   -1    0    0  501    0  0.00000000000E+00 -0.00000000000E+00 -0.76968572033E+02  0.76968572033E+02  0.00000000000E+00 0. -1.
         23    2    1    2    0    0  0.60626649559E+00  0.85864588488E+02  0.12941838925E+03  0.19936721362E+03  0.12500028511E+03 0.  0.
          5    1    3    3  502    0 -0.78660623679E+00  0.11011307398E+03  0.59606912760E+02  0.12530196271E+03  0.47000000000E+01 0. -1.
         -5    1    3    3    0  502  0.13928727324E+01 -0.24248485492E+02  0.69811476490E+02  0.74065250913E+02  0.47000000000E+01 0. -1.
        -11    1    1    2    0    0 -0.21903758918E+02 -0.34895392598E+02  0.62602256262E+02  0.74943349060E+02  0.00000000000E+00 0.  1.
         11    1    1    2    0    0  0.21297492422E+02 -0.50969195890E+02 -0.14528706124E+02  0.57118520768E+02  0.00000000000E+00 0. -1.
<mgrwt>
<rscale>  0 0.14391704E+03</rscale>
<asrwt>0</asrwt>
<pdfrwt beam="2">  1        2 0.11841319E-01 0.15165146E+03</pdfrwt>
<pdfrwt beam="1">  1       -2 0.39147770E-01 0.15165146E+03</pdfrwt>
<totfact> 0.31165503E+03</totfact>
</mgrwt>
</event>
<event>
 7    1  0.6387485E-006  0.2170749E+03  0.7546771E-02  0.1139714E+00
         -2   -1    0    0    0  501 -0.00000000000E+00  0.00000000000E+00  0.64124823121E+02  0.64124823121E+02  0.00000000000E+00 0.  1.
          2   -1    0    0  501    0  0.00000000000E+00 -0.00000000000E+00 -0.75890677662E+03  0.75890677662E+03  0.00000000000E+00 0. -1.
         23    2    1    2    0    0 -0.17465473064E+03 -0.31514392210E+02 -0.22365691583E+03  0.31167917912E+03  0.12499625134E+03 0.  0.
          5    1    3    3  502    0 -0.15922557335E+03  0.40437709117E+00 -0.11278081260E+03  0.19517824781E+03  0.47000000000E+01 0.  1.
         -5    1    3    3    0  502 -0.15429157292E+02 -0.31918769301E+02 -0.11087610323E+03  0.11650093131E+03  0.47000000000E+01 0.  1.
        -11    1    1    2    0    0  0.55457636773E+02  0.21232863222E+02 -0.27721716784E+03  0.28350615884E+03  0.00000000000E+00 0.  1.
         11    1    1    2    0    0  0.11919709386E+03  0.10281528987E+02 -0.19390786983E+03  0.22784626178E+03  0.00000000000E+00 0. -1.
<mgrwt>
<rscale>  0 0.21235510E+03</rscale>
<asrwt>0</asrwt>
<pdfrwt beam="2">  1        2 0.11675489E+00 0.21707486E+03</pdfrwt>
<pdfrwt beam="1">  1       -2 0.98653575E-02 0.21707486E+03</pdfrwt>
<totfact> 0.25570969E+03</totfact>
</mgrwt>
</event>
<event>
 7    1  0.6387485E-006  0.1667977E+03  0.7546771E-02  0.1187837E+00
         -2   -1    0    0    0  501 -0.00000000000E+00  0.00000000000E+00  0.13896404260E+03  0.13896404260E+03  0.00000000000E+00 0.  1.
          2   -1    0    0  501    0  0.00000000000E+00 -0.00000000000E+00 -0.23984547115E+03  0.23984547115E+03  0.00000000000E+00 0. -1.
         23    2    1    2    0    0  0.72463087572E+02  0.83352066252E+02  0.46135802932E+02  0.17306067456E+03  0.12499207478E+03 0.  0.
          5    1    3    3  502    0  0.10165518997E+03  0.39490193415E+02  0.49914851102E+02  0.12002847739E+03  0.47000000000E+01 0.  1.
         -5    1    3    3    0  502 -0.29192102402E+02  0.43861872836E+02 -0.37790481698E+01  0.53032197168E+02  0.47000000000E+01 0.  1.
        -11    1    1    2    0    0 -0.40801730563E+02 -0.29609679666E+02 -0.13241489038E+03  0.14168704084E+03  0.00000000000E+00 0. -1.
         11    1    1    2    0    0 -0.31661357009E+02 -0.53742386585E+02 -0.14602341104E+02  0.64061798361E+02  0.00000000000E+00 0.  1.
<mgrwt>
<rscale>  0 0.16076350E+03</rscale>
<asrwt>0</asrwt>
<pdfrwt beam="2">  1        2 0.36899303E-01 0.16679774E+03</pdfrwt>
<pdfrwt beam="1">  1       -2 0.21379084E-01 0.16679774E+03</pdfrwt>
<totfact> 0.25581306E+03</totfact>
</mgrwt>
</event>
<event>
 6    1  0.6387485E-006  0.1676569E+03  0.7546771E-02  0.1207252E+00
          2   -1    0    0  501    0  0.00000000000E+00  0.00000000000E+00  0.86341765344E+03  0.86341765344E+03  0.00000000000E+00 0. -1.
         -2   -1    0    0    0  501 -0.00000000000E+00 -0.00000000000E+00 -0.22433180581E+02  0.22433180581E+02  0.00000000000E+00 0.  1.
          5    1    1    2  502    0 -0.34664137266E+02 -0.80716683003E+02  0.13444082676E+03  0.16066490354E+03  0.47000000000E+01 0. -1.
         -5    1    1    2    0  502  0.19485076198E+02  0.65286375291E+02  0.24141101001E+03  0.25088512261E+03  0.47000000000E+01 0.  1.
        -11    1    1    2    0    0  0.40435880814E+02 -0.23073909222E+02  0.21823928560E+03  0.22314984096E+03  0.00000000000E+00 0. -1.
         11    1    1    2    0    0 -0.25256819747E+02  0.38504216934E+02  0.24689335049E+03  0.25115096691E+03  0.00000000000E+00 0.  1.
<mgrwt>
<rscale>  0 0.14461375E+03</rscale>
<asrwt>0</asrwt>
<pdfrwt beam="1">  1        2 0.13283346E+00 0.16765685E+03</pdfrwt>
<pdfrwt beam="2">  1       -2 0.34512592E-02 0.16765685E+03</pdfrwt>
<totfact> 0.10719735E+04</totfact>
</mgrwt>
</event>
<event>
 7    1  0.6387485E-006  0.1493581E+03  0.7546771E-02  0.1210501E+00
         -2   -1    0    0    0  501 -0.00000000000E+00  0.00000000000E+00  0.30703450844E+02  0.30703450844E+02  0.00000000000E+00 0.  1.
          2   -1    0    0  501    0  0.00000000000E+00 -0.00000000000E+00 -0.77002157303E+03  0.77002157303E+03  0.00000000000E+00 0. -1.
         23    2    1    2    0    0  0.55957157488E+02 -0.59534588071E+02 -0.21170462035E+03  0.25908821063E+03  0.12502913243E+03 0.  0.
          5    1    3    3  502    0  0.48647885426E+02 -0.71238914921E+02 -0.22395882391E+03  0.24004425542E+03  0.47000000000E+01 0.  1.
         -5    1    3    3    0  502  0.73092720618E+01  0.11704326850E+02  0.12254203555E+02  0.19043955205E+02  0.47000000000E+01 0.  1.
        -11    1    1    2    0    0 -0.61666492551E+02  0.43895810188E+01 -0.19907621508E+03  0.20845470524E+03  0.00000000000E+00 0.  1.
         11    1    1    2    0    0  0.57093350627E+01  0.55145007053E+02 -0.32853728676E+03  0.33318210801E+03  0.00000000000E+00 0. -1.
<mgrwt>
<rscale>  0 0.14212253E+03</rscale>
<asrwt>0</asrwt>
<pdfrwt beam="2">  1        2 0.11846486E+00 0.14935814E+03</pdfrwt>
<pdfrwt beam="1">  1       -2 0.47236077E-02 0.14935814E+03</pdfrwt>
<totfact> 0.77048568E+03</totfact>
</mgrwt>
</event>
<event>
 7    1  0.6387485E-006  0.1330901E+03  0.7546771E-02  0.1235800E+00
          1   -1    0    0  501    0  0.00000000000E+00  0.00000000000E+00  0.48501146069E+03  0.48501146069E+03  0.00000000000E+00 0. -1.
         -1   -1    0    0    0  501 -0.00000000000E+00 -0.00000000000E+00 -0.45707321134E+02  0.45707321134E+02  0.00000000000E+00 0.  1.
         23    2    1    2    0    0  0.31618584044E+02 -0.32999130748E+02  0.75786773895E+02  0.15315551057E+03  0.12499719131E+03 0.  0.
          5    1    3    3  502    0 -0.41141305017E+02 -0.17184510669E+02 -0.26398775250E+01  0.44910726323E+02  0.47000000000E+01 0.  1.
         -5    1    3    3    0  502  0.72759889062E+02 -0.15814620079E+02  0.78426651420E+02  0.10824478425E+03  0.47000000000E+01 0.  1.
        -11    1    1    2    0    0 -0.54214476178E+02  0.38216943338E+02  0.33125594657E+03  0.33783168342E+03  0.00000000000E+00 0. -1.
         11    1    1    2    0    0  0.22595892134E+02 -0.52178125906E+01  0.32261419089E+02  0.39731587826E+02  0.00000000000E+00 0.  1.
<mgrwt>
<rscale>  0 0.12453351E+03</rscale>
<asrwt>0</asrwt>
<pdfrwt beam="1">  1        1 0.74617144E-01 0.13309010E+03</pdfrwt>
<pdfrwt beam="2">  1       -1 0.70318959E-02 0.13309010E+03</pdfrwt>
<totfact> 0.47567700E+03</totfact>
</mgrwt>
</event>
<event>
 7    1  0.6387485E-006  0.1378677E+03  0.7546771E-02  0.1226674E+00
         -3   -1    0    0    0  501 -0.00000000000E+00  0.00000000000E+00  0.19839233578E+03  0.19839233578E+03  0.00000000000E+00 0.  1.
          3   -1    0    0  501    0  0.00000000000E+00 -0.00000000000E+00 -0.10452263891E+03  0.10452263891E+03  0.00000000000E+00 0. -1.
         23    2    1    2    0    0  0.66515013141E-01  0.58164974807E+02  0.12684079276E+03  0.18733947069E+03  0.12499728737E+03 0.  0.
          5    1    3    3  502    0 -0.53966073535E+02  0.55215306817E+02  0.46155997241E+02  0.90075153516E+02  0.47000000000E+01 0.  1.
         -5    1    3    3    0  502  0.54032588548E+02  0.29496679901E+01  0.80684795521E+02  0.97264317171E+02  0.47000000000E+01 0.  1.
        -11    1    1    2    0    0  0.11041381931E+02  0.11924527837E+02 -0.41052900052E+02  0.44152543321E+02  0.00000000000E+00 0. -1.
         11    1    1    2    0    0 -0.11107896944E+02 -0.70089502644E+02  0.80818041596E+01  0.71422960691E+02  0.00000000000E+00 0.  1.
<mgrwt>
<rscale>  0 0.13052841E+03</rscale>
<asrwt>0</asrwt>
<pdfrwt beam="2">  1        3 0.16080406E-01 0.13786766E+03</pdfrwt>
<pdfrwt beam="1">  1       -3 0.30521898E-01 0.13786766E+03</pdfrwt>
<totfact> 0.79233882E+02</totfact>
</mgrwt>
</event>
<event>
 7    1  0.6387485E-006  0.1250203E+03  0.7546771E-02  0.1251597E+00
          2   -1    0    0  501    0  0.00000000000E+00  0.00000000000E+00  0.29539815959E+03  0.29539815959E+03  0.00000000000E+00 0. -1.
         -2   -1    0    0    0  501 -0.00000000000E+00 -0.00000000000E+00 -0.40785112243E+02  0.40785112243E+02  0.00000000000E+00 0.  1.
         23    2    1    2    0    0  0.20440499389E+01  0.13810157158E+01  0.18274552293E+03  0.22141814371E+03  0.12499593141E+03 0.  0.
          5    1    3    3  502    0  0.50140568417E+02  0.34008373352E+02  0.12680761048E+03  0.14061616598E+03  0.47000000000E+01 0.  1.
         -5    1    3    3    0  502 -0.48096518478E+02 -0.32627357636E+02  0.55937912455E+02  0.80801977734E+02  0.47000000000E+01 0.  1.
        -11    1    1    2    0    0  0.11442949006E+02 -0.42085728300E+02  0.50909037167E+02  0.67036405585E+02  0.00000000000E+00 0.  1.
         11    1    1    2    0    0 -0.13486998945E+02  0.40704712584E+02  0.20958487247E+02  0.47728722535E+02  0.00000000000E+00 0. -1.
<mgrwt>
<rscale>  0 0.11499075E+03</rscale>
<asrwt>0</asrwt>
<pdfrwt beam="1">  1        2 0.45445869E-01 0.12502027E+03</pdfrwt>
<pdfrwt beam="2">  1       -2 0.62746328E-02 0.12502027E+03</pdfrwt>
<totfact> 0.14331251E+04</totfact>
</mgrwt>
</event>
<event>
 6    1  0.6387485E-006  0.1349922E+03  0.7546771E-02  0.1237841E+00
          1   -1    0    0  501    0  0.00000000000E+00  0.00000000000E+00  0.39462073071E+03  0.39462073071E+03  0.00000000000E+00 0. -1.
         -1   -1    0    0    0  501 -0.00000000000E+00 -0.00000000000E+00 -0.33563256912E+02  0.33563256912E+02  0.00000000000E+00 0.  1.
          5    1    1    2  502    0  0.86001819078E+01 -0.23913050915E+02  0.19813059855E+03  0.19980896180E+03  0.47000000000E+01 0. -1.
         -5    1    1    2    0  502 -0.30222835483E+02  0.82872030265E+01 -0.86428030725E+01  0.32846393464E+02  0.47000000000E+01 0.  1.
        -11    1    1    2    0    0 -0.29474204298E+02  0.17007004780E+02  0.31296574382E+02  0.46232483155E+02  0.00000000000E+00 0.  1.
         11    1    1    2    0    0  0.51096857874E+02 -0.13811568920E+01  0.14027310394E+03  0.14929614920E+03  0.00000000000E+00 0. -1.
<mgrwt>
<rscale>  0 0.12324314E+03</rscale>
<asrwt>0</asrwt>
<pdfrwt beam="1">  1        1 0.60710878E-01 0.13499218E+03</pdfrwt>
<pdfrwt beam="2">  1       -1 0.51635783E-02 0.13499218E+03</pdfrwt>
<totfact> 0.98106549E+03</totfact>
</mgrwt>
</event>
<event>
 7    1  0.6387485E-006  0.1286825E+03  0.7546771E-02  0.1243446E+00
         -2   -1    0    0    0  501 -0.00000000000E+00  0.00000000000E+00  0.92194266303E+02  0.92194266303E+02  0.00000000000E+00 0.  1.
          2   -1    0    0  501    0  0.00000000000E+00 -0.00000000000E+00 -0.14917574844E+03  0.14917574844E+03  0.00000000000E+00 0. -1.
         23    2    1    2    0    0 -0.30432933481E+02 -0.24590528774E+01  0.98849742258E+00  0.12868633368E+03  0.12500793962E+03 0.  0.
          5    1    3    3  502    0  0.32377940663E+02 -0.40836567974E+02 -0.12273007859E+02  0.53746377063E+02  0.47000000000E+01 0.  1.
         -5    1    3    3    0  502 -0.62810874143E+02  0.38377515096E+02  0.13261505282E+02  0.74939956618E+02  0.47000000000E+01 0.  1.
        -11    1    1    2    0    0  0.44214720828E+02  0.38126271757E+02 -0.35760451666E+02  0.68464326765E+02  0.00000000000E+00 0.  1.
         11    1    1    2    0    0 -0.13781787347E+02 -0.35667218880E+02 -0.22209527891E+02  0.44219354294E+02  0.00000000000E+00 0. -1.
<mgrwt>
<rscale>  0 0.11978879E+03</rscale>
<asrwt>0</asrwt>
<pdfrwt beam="2">  1        2 0.22950115E-01 0.12868254E+03</pdfrwt>
<pdfrwt beam="1">  1       -2 0.14183733E-01 0.12868254E+03</pdfrwt>
<totfact> 0.83785395E+03</totfact>
</mgrwt>
</event>
<event>
 7    1  0.6387485E-006  0.1736039E+03  0.7546771E-02  0.1180064E+00
         -1   -1    0    0    0  501 -0.00000000000E+00  0.00000000000E+00  0.42381155062E+02  0.42381155062E+02  0.00000000000E+00 0.  1.
          1   -1    0    0  501    0  0.00000000000E+00 -0.00000000000E+00 -0.62499931444E+03  0.62499931444E+03  0.00000000000E+00 0. -1.
         23    2    1    2    0    0 -0.12237835373E+02  0.11984807632E+03 -0.30564039548E+03  0.35150300348E+03  0.12499993636E+03 0.  0.
          5    1    3    3  502    0 -0.20926432671E+02  0.44282725432E+02 -0.15598951618E+02  0.51616786490E+02  0.47000000000E+01 0. -1.
         -5    1    3    3    0  502  0.86885972978E+01  0.75565350887E+02 -0.29004144387E+03  0.29988621699E+03  0.47000000000E+01 0. -1.
        -11    1    1    2    0    0 -0.22258744050E+02 -0.24564744849E+02 -0.17871402629E+02  0.37659864685E+02  0.00000000000E+00 0.  1.
         11    1    1    2    0    0  0.34496579424E+02 -0.95283331470E+02 -0.25910636126E+03  0.27821760134E+03  0.00000000000E+00 0. -1.
<mgrwt>
<rscale>  0 0.16789256E+03</rscale>
<asrwt>0</asrwt>
<pdfrwt beam="2">  1        1 0.96153740E-01 0.17360389E+03</pdfrwt>
<pdfrwt beam="1">  1       -1 0.65201778E-02 0.17360389E+03</pdfrwt>
<totfact> 0.38390619E+03</totfact>
</mgrwt>
</event>
<event>
 7    1  0.6387485E-006  0.1456368E+03  0.7546771E-02  0.1219550E+00
          4   -1    0    0  501    0  0.00000000000E+00  0.00000000000E+00  0.11751798543E+03  0.11751798543E+03  0.00000000000E+00 0. -1.
         -4   -1    0    0    0  501 -0.00000000000E+00 -0.00000000000E+00 -0.13855344798E+03  0.13855344798E+03  0.00000000000E+00 0.  1.
         23    2    1    2    0    0 -0.39816003136E+02 -0.63238113957E+02 -0.20087751197E+02  0.14701560300E+03  0.12500278642E+03 0.  0.
          5    1    3    3  502    0 -0.54098545595E+02 -0.26656896769E+02  0.41828267579E+02  0.73545474025E+02  0.47000000000E+01 0. -1.
         -5    1    3    3    0  502  0.14282542459E+02 -0.36581217188E+02 -0.61916018776E+02  0.73470128972E+02  0.47000000000E+01 0. -1.
        -11    1    1    2    0    0 -0.63451501601E+01  0.59743818401E+02 -0.12447328027E+02  0.61355690386E+02  0.00000000000E+00 0.  1.
         11    1    1    2    0    0  0.46161153296E+02  0.34942955562E+01  0.11499616677E+02  0.47700140029E+02  0.00000000000E+00 0. -1.
<mgrwt>
<rscale>  0 0.13547570E+03</rscale>
<asrwt>0</asrwt>
<pdfrwt beam="1">  1        4 0.18079690E-01 0.14563677E+03</pdfrwt>
<pdfrwt beam="2">  1       -4 0.21315915E-01 0.14563677E+03</pdfrwt>
<totfact> 0.91121764E+02</totfact>
</mgrwt>
</event>
<event>
 7    1  0.6387485E-006  0.1414639E+03  0.7546771E-02  0.1222533E+00
         -1   -1    0    0    0  501 -0.00000000000E+00  0.00000000000E+00  0.16671148771E+02  0.16671148771E+02  0.00000000000E+00 0.  1.
          1   -1    0    0  501    0  0.00000000000E+00 -0.00000000000E+00 -0.96192151113E+03  0.96192151113E+03  0.00000000000E+00 0. -1.
         23    2    1    2    0    0  0.62908385037E+02  0.20719530244E+02 -0.53520552573E+03  0.55358556965E+03  0.12500105722E+03 0.  0.
          5    1    3    3  502    0 -0.59674432243E+00  0.13556531598E+02 -0.43109817914E+03  0.43133729924E+03  0.47000000000E+01 0. -1.
         -5    1    3    3    0  502  0.63505129359E+02  0.71629986458E+01 -0.10410734659E+03  0.12224827041E+03  0.47000000000E+01 0. -1.
        -11    1    1    2    0    0  0.17250028287E+02 -0.22703352321E+02 -0.68921554510E+02  0.74586770668E+02  0.00000000000E+00 0.  1.
         11    1    1    2    0    0 -0.80158413324E+02  0.19838220769E+01 -0.34112328212E+03  0.35042031959E+03  0.00000000000E+00 0. -1.
<mgrwt>
<rscale>  0 0.13337455E+03</rscale>
<asrwt>0</asrwt>
<pdfrwt beam="2">  1        1 0.14798792E+00 0.14146388E+03</pdfrwt>
<pdfrwt beam="1">  1       -1 0.25647922E-02 0.14146388E+03</pdfrwt>
<totfact> 0.78831998E+03</totfact>
</mgrwt>
</event>
<event>
 7    1  0.6387485E-006  0.2595371E+03  0.7546771E-02  0.1109711E+00
          2   -1    0    0  501    0  0.00000000000E+00  0.00000000000E+00  0.65228979523E+03  0.65228979523E+03  0.00000000000E+00 0. -1.
         -2   -1    0    0    0  501 -0.00000000000E+00 -0.00000000000E+00 -0.10489406921E+03  0.10489406921E+03  0.00000000000E+00 0.  1.
         23    2    1    2    0    0 -0.16957872169E+02  0.22682186340E+03  0.38171383493E+03  0.46158961891E+03  0.12499518940E+03 0.  0.
          5    1    3    3  502    0 -0.41866791714E+02  0.22825622190E+03  0.35912948791E+03  0.42760941309E+03  0.47000000000E+01 0.  1.
         -5    1    3    3    0  502  0.24908919545E+02 -0.14343585029E+01  0.22584347021E+02  0.33980205820E+02  0.47000000000E+01 0.  1.
        -11    1    1    2    0    0  0.39686623449E+02 -0.57146252463E+02  0.24720612893E+02  0.73836515039E+02  0.00000000000E+00 0.  1.
         11    1    1    2    0    0 -0.22728751280E+02 -0.16967561093E+03  0.14096127820E+03  0.22175773049E+03  0.00000000000E+00 0. -1.
<mgrwt>
<rscale>  0 0.25577086E+03</rscale>
<asrwt>0</asrwt>
<pdfrwt beam="1">  1        2 0.10035227E+00 0.25953714E+03</pdfrwt>
<pdfrwt beam="2">  1       -2 0.16137550E-01 0.25953714E+03</pdfrwt>
<totfact> 0.13840455E+03</totfact>
</mgrwt>
</event>
<event>
 7    1  0.6387485E-006  0.1340153E+03  0.7546771E-02  0.1234503E+00
         -1   -1    0    0    0  501 -0.00000000000E+00  0.00000000000E+00  0.34900579383E+02  0.34900579383E+02  0.00000000000E+00 0.  1.
          1   -1    0    0  501    0  0.00000000000E+00 -0.00000000000E+00 -0.51114786539E+03  0.51114786539E+03  0.00000000000E+00 0. -1.
         23    2    1    2    0    0  0.48019941578E+02 -0.53833452048E+01 -0.13711320965E+03  0.19172934604E+03  0.12500085871E+03 0.  0.
          5    1    3    3  502    0 -0.38361694832E+02  0.14444769553E+02 -0.23240851010E+02  0.47355022474E+02  0.47000000000E+01 0.  1.
         -5    1    3    3    0  502  0.86381636410E+02 -0.19828114758E+02 -0.11387235864E+03  0.14437432356E+03  0.47000000000E+01 0.  1.
        -11    1    1    2    0    0 -0.29885110773E+02  0.40905628392E+02 -0.10236843207E+03  0.11421771389E+03  0.00000000000E+00 0.  1.
         11    1    1    2    0    0 -0.18134830805E+02 -0.35522283188E+02 -0.23676564429E+03  0.24010138485E+03  0.00000000000E+00 0. -1.
<mgrwt>
<rscale>  0 0.12536316E+03</rscale>
<asrwt>0</asrwt>
<pdfrwt beam="2">  1        1 0.78638131E-01 0.13401533E+03</pdfrwt>
<pdfrwt beam="1">  1       -1 0.53693200E-02 0.13401533E+03</pdfrwt>
<totfact> 0.66436432E+03</totfact>
</mgrwt>
</event>
<event>
 7    1  0.6387485E-006  0.1469390E+03  0.7546771E-02  0.1213948E+00
         -1   -1    0    0    0  501 -0.00000000000E+00  0.00000000000E+00  0.34136487867E+02  0.34136487867E+02  0.00000000000E+00 0.  1.
          1   -1    0    0  501    0  0.00000000000E+00 -0.00000000000E+00 -0.59651234607E+03  0.59651234607E+03  0.00000000000E+00 0. -1.
         23    2    1    2    0    0  0.74824801869E+02  0.19164978032E+02 -0.41888057669E+03  0.44390540303E+03  0.12500008780E+03 0.  0.
          5    1    3    3  502    0  0.10256127190E+03  0.21026422842E+02 -0.38880541019E+03  0.40268183712E+03  0.47000000000E+01 0.  1.
         -5    1    3    3    0  502 -0.27736470028E+02 -0.18614448093E+01 -0.30075166503E+02  0.41223565913E+02  0.47000000000E+01 0.  1.
        -11    1    1    2    0    0  0.16719090769E+02  0.72270199817E+01 -0.54473629471E+01  0.19011353898E+02  0.00000000000E+00 0.  1.
         11    1    1    2    0    0 -0.91543892638E+02 -0.26391998014E+02 -0.13804791856E+03  0.16773207701E+03  0.00000000000E+00 0. -1.
<mgrwt>
<rscale>  0 0.13954113E+03</rscale>
<asrwt>0</asrwt>
<pdfrwt beam="2">  1        1 0.91771128E-01 0.14693900E+03</pdfrwt>
<pdfrwt beam="1">  1       -1 0.52517675E-02 0.14693900E+03</pdfrwt>
<totfact> 0.56146999E+03</totfact>
</mgrwt>
</event>
<event>
 7    1  0.6387485E-006  0.2090424E+03  0.7546771E-02  0.1146187E+00
          1   -1    0    0  501    0  0.00000000000E+00  0.00000000000E+00  0.26612114415E+03  0.26612114415E+03  0.00000000000E+00 0. -1.
         -1   -1    0    0    0  501 -0.00000000000E+00 -0.00000000000E+00 -0.16910895265E+03  0.16910895265E+03  0.00000000000E+00 0.  1.
         23    2    1    2    0    0  0.16631740307E+03 -0.18678623300E+02 -0.22528726414E+02  0.21025286201E+03  0.12525315539E+03 0.  0.
          5    1    3    3  502    0  0.10167307850E+03  0.72461947645E+01  0.46450178345E+02  0.11211436705E+03  0.47000000000E+01 0. -1.
         -5    1    3    3    0  502  0.64644324575E+02 -0.25924818064E+02 -0.68978904759E+02  0.98138494961E+02  0.47000000000E+01 0. -1.
        -11    1    1    2    0    0 -0.49054948479E+01  0.88647643863E+01 -0.12582888923E+02  0.16154783223E+02  0.00000000000E+00 0.  1.
         11    1    1    2    0    0 -0.16141190823E+03  0.98138589135E+01  0.13212380684E+03  0.20882245157E+03  0.00000000000E+00 0. -1.
<mgrwt>
<rscale>  0 0.20426834E+03</rscale>
<asrwt>0</asrwt>
<pdfrwt beam="1">  1        1 0.40941714E-01 0.20904239E+03</pdfrwt>
<pdfrwt beam="2">  1       -1 0.26016762E-01 0.20904239E+03</pdfrwt>
<totfact> 0.13223505E+03</totfact>
</mgrwt>
</event>
<event>
 7    1  0.6387485E-006  0.1460726E+03  0.7546771E-02  0.1213163E+00
         -2   -1    0    0    0  501 -0.00000000000E+00  0.00000000000E+00  0.91873295656E+02  0.91873295656E+02  0.00000000000E+00 0.  1.
          2   -1    0    0  501    0  0.00000000000E+00 -0.00000000000E+00 -0.21141387603E+03  0.21141387603E+03  0.00000000000E+00 0. -1.
         23    2    1    2    0    0  0.64532471406E+02 -0.39355452484E+02 -0.26374018170E+02  0.14843444628E+03  0.12499561793E+03 0.  0.
          5    1    3    3  502    0  0.21017280786E+02 -0.42008597027E+02  0.44641587216E+02  0.64972375861E+02  0.47000000000E+01 0.  1.
         -5    1    3    3    0  502  0.43515190620E+02  0.26531445428E+01 -0.71015605386E+02  0.83462070421E+02  0.47000000000E+01 0.  1.
        -11    1    1    2    0    0 -0.66805761693E+02  0.22342387905E+02 -0.11467540055E+02  0.71370137786E+02  0.00000000000E+00 0.  1.
         11    1    1    2    0    0  0.22732902873E+01  0.17013064579E+02 -0.81699022145E+02  0.83482587613E+02  0.00000000000E+00 0. -1.
<mgrwt>
<rscale>  0 0.14012340E+03</rscale>
<asrwt>0</asrwt>
<pdfrwt beam="2">  1        2 0.32525212E-01 0.14607257E+03</pdfrwt>
<pdfrwt beam="1">  1       -2 0.14134353E-01 0.14607257E+03</pdfrwt>
<totfact> 0.58050406E+03</totfact>
</mgrwt>
</event>
<event>
 7    1  0.6387485E-006  0.1599210E+03  0.7546771E-02  0.1196676E+00
          1   -1    0    0  501    0  0.00000000000E+00  0.00000000000E+00  0.15465392578E+03  0.15465392578E+03  0.00000000000E+00 0. -1.
         -1   -1    0    0    0  501 -0.00000000000E+00 -0.00000000000E+00 -0.15030954098E+03  0.15030954098E+03  0.00000000000E+00 0.  1.
         23    2    1    2    0    0 -0.99513922812E+02 -0.18136472571E+01 -0.37300498229E+02  0.16421342964E+03  0.12517353218E+03 0.  0.
          5    1    3    3  502    0 -0.45169275544E+02  0.61415584760E+02 -0.16173832107E+02  0.78075734705E+02  0.47000000000E+01 0. -1.
         -5    1    3    3    0  502 -0.54344647267E+02 -0.63229232017E+02 -0.21126666121E+02  0.86137694939E+02  0.47000000000E+01 0. -1.
        -11    1    1    2    0    0 -0.11540493812E+02  0.29482738601E+01  0.25993220729E+02  0.28592356322E+02  0.00000000000E+00 0. -1.
         11    1    1    2    0    0  0.11105441662E+03 -0.11346266030E+01  0.15651662304E+02  0.11215768080E+03  0.00000000000E+00 0.  1.
<mgrwt>
<rscale>  0 0.15313262E+03</rscale>
<asrwt>0</asrwt>
<pdfrwt beam="1">  1        1 0.23792911E-01 0.15992099E+03</pdfrwt>
<pdfrwt beam="2">  1       -1 0.23124545E-01 0.15992099E+03</pdfrwt>
<totfact> 0.31476697E+03</totfact>
</mgrwt>
</event>
<event>
 7    1  0.6387485E-006  0.1335116E+03  0.7546771E-02  0.1232240E+00
          1   -1    0    0  501    0  0.00000000000E+00  0.00000000000E+00  0.72706452254E+03  0.72706452254E+03  0.00000000000E+00 0. -1.
         -1   -1    0    0    0  501 -0.00000000000E+00 -0.00000000000E+00 -0.20232982558E+02  0.20232982558E+02  0.00000000000E+00 0.  1.
         23    2    1    2    0    0 -0.40298796323E+02 -0.24040146066E+02  0.40930897349E+03  0.43053359021E+03  0.12499365949E+03 0.  0.
          5    1    3    3  502    0 -0.10457940368E+02 -0.52270723286E+02  0.36875784775E+03  0.37262050039E+03  0.47000000000E+01 0. -1.
         -5    1    3    3    0  502 -0.29840855955E+02  0.28230577220E+02  0.40551125739E+02  0.57913089824E+02  0.47000000000E+01 0. -1.
        -11    1    1    2    0    0  0.54011884577E+02 -0.18951855817E+02  0.11135689058E+03  0.12520708285E+03  0.00000000000E+00 0.  1.
         11    1    1    2    0    0 -0.13713088254E+02  0.42992001883E+02  0.18616567591E+03  0.19155683204E+03  0.00000000000E+00 0. -1.
<mgrwt>
<rscale>  0 0.12682795E+03</rscale>
<asrwt>0</asrwt>
<pdfrwt beam="1">  1        1 0.11185606E+00 0.13351156E+03</pdfrwt>
<pdfrwt beam="2">  1       -1 0.31127671E-02 0.13351156E+03</pdfrwt>
<totfact> 0.91284053E+03</totfact>
</mgrwt>
</event>
<event>
 7    1  0.6387485E-006  0.1800614E+03  0.7546771E-02  0.1173597E+00
          2   -1    0    0  501    0  0.00000000000E+00  0.00000000000E+00  0.11124529688E+04  0.11124529688E+04  0.00000000000E+00 0. -1.
         -2   -1    0    0    0  501 -0.00000000000E+00 -0.00000000000E+00 -0.29507028053E+02  0.29507028053E+02  0.00000000000E+00 0.  1.
         23    2    1    2    0    0  0.12899995040E+03 -0.12884438317E+02  0.36576867658E+03  0.40768718806E+03  0.12496048410E+03 0.  0.
          5    1    3    3  502    0 -0.19341727204E+02  0.18278649977E+02  0.39063626524E+02  0.47500193404E+02  0.47000000000E+01 0. -1.
         -5    1    3    3    0  502  0.14834167761E+03 -0.31163088294E+02  0.32670505006E+03  0.36018699466E+03  0.47000000000E+01 0. -1.
        -11    1    1    2    0    0 -0.87625629929E+02  0.44545685096E+02  0.56337234673E+03  0.57188370333E+03  0.00000000000E+00 0. -1.
         11    1    1    2    0    0 -0.41374320475E+02 -0.31661246778E+02  0.15380491739E+03  0.16238910541E+03  0.00000000000E+00 0.  1.
<mgrwt>
<rscale>  0 0.17414105E+03</rscale>
<asrwt>0</asrwt>
<pdfrwt beam="1">  1        2 0.17114658E+00 0.18006143E+03</pdfrwt>
<pdfrwt beam="2">  1       -2 0.45395436E-02 0.18006143E+03</pdfrwt>
<totfact> 0.50324819E+03</totfact>
</mgrwt>
</event>
<event>
 7    1  0.6387485E-006  0.1448308E+03  0.7546771E-02  0.1218415E+00
          2   -1    0    0  501    0  0.00000000000E+00  0.00000000000E+00  0.67597974602E+03  0.67597974602E+03  0.00000000000E+00 0. -1.
         -2   -1    0    0    0  501 -0.00000000000E+00 -0.00000000000E+00 -0.24759250340E+02  0.24759250340E+02  0.00000000000E+00 0.  1.
         23    2    1    2    0    0 -0.14509806203E+02 -0.71719582543E+02  0.34681525034E+03  0.37584141962E+03  0.12498688666E+03 0.  0.
          5    1    3    3  502    0 -0.51799525280E+02 -0.49497877086E+02  0.31154837450E+03  0.31971504549E+03  0.47000000000E+01 0.  1.
         -5    1    3    3    0  502  0.37289719077E+02 -0.22221705457E+02  0.35266875839E+02  0.56126374136E+02  0.47000000000E+01 0.  1.
        -11    1    1    2    0    0 -0.12361149060E+02  0.27943065232E+02  0.21485825574E+02  0.37353093597E+02  0.00000000000E+00 0.  1.
         11    1    1    2    0    0  0.26870955263E+02  0.43776517311E+02  0.28291941976E+03  0.28754448314E+03  0.00000000000E+00 0. -1.
<mgrwt>
<rscale>  0 0.13628625E+03</rscale>
<asrwt>0</asrwt>
<pdfrwt beam="1">  1        2 0.10399687E+00 0.14483078E+03</pdfrwt>
<pdfrwt beam="2">  1       -2 0.38091160E-02 0.14483078E+03</pdfrwt>
<totfact> 0.12403414E+04</totfact>
</mgrwt>
</event>
<event>
 7    1  0.6387485E-006  0.1746934E+03  0.7546771E-02  0.1178963E+00
          1   -1    0    0  501    0  0.00000000000E+00  0.00000000000E+00  0.52844992879E+03  0.52844992879E+03  0.00000000000E+00 0. -1.
         -1   -1    0    0    0  501 -0.00000000000E+00 -0.00000000000E+00 -0.67814008176E+02  0.67814008176E+02  0.00000000000E+00 0.  1.
         23    2    1    2    0    0 -0.11564825759E+03  0.38970801989E+02  0.92466613788E+02  0.19765591404E+03  0.12499817118E+03 0.  0.
          5    1    3    3  502    0 -0.13907387060E+03  0.20820396791E+02  0.91100867600E+02  0.16762007184E+03  0.47000000000E+01 0. -1.
         -5    1    3    3    0  502  0.23425613015E+02  0.18150405198E+02  0.13657461884E+01  0.30035842200E+02  0.47000000000E+01 0. -1.
        -11    1    1    2    0    0  0.53605748970E+02 -0.92223537150E+01  0.52747846724E+02  0.75769145862E+02  0.00000000000E+00 0.  1.
         11    1    1    2    0    0  0.62042508616E+02 -0.29748448274E+02  0.31542146011E+03  0.32283887707E+03  0.00000000000E+00 0. -1.
<mgrwt>
<rscale>  0 0.16893488E+03</rscale>
<asrwt>0</asrwt>
<pdfrwt beam="1">  1        1 0.81299986E-01 0.17469340E+03</pdfrwt>
<pdfrwt beam="2">  1       -1 0.10432925E-01 0.17469340E+03</pdfrwt>
<totfact> 0.23597596E+03</totfact>
</mgrwt>
</event>
<event>
 7    1  0.6387485E-006  0.1493069E+03  0.7546771E-02  0.1210425E+00
         -2   -1    0    0    0  501 -0.00000000000E+00  0.00000000000E+00  0.65534982904E+03  0.65534982904E+03  0.00000000000E+00 0. -1.
          2   -1    0    0  501    0  0.00000000000E+00 -0.00000000000E+00 -0.45656794781E+02  0.45656794781E+02  0.00000000000E+00 0.  1.
         23    2    1    2    0    0 -0.40243343436E+02 -0.71092706836E+02  0.53907257867E+03  0.55936731256E+03  0.12497538012E+03 0.  0.
          5    1    3    3  502    0 -0.72841698032E+02 -0.10471292724E+02  0.19568606551E+03  0.20911883507E+03  0.47000000000E+01 0. -1.
         -5    1    3    3    0  502  0.32598354596E+02 -0.60621414113E+02  0.34338651316E+03  0.35024847750E+03  0.47000000000E+01 0. -1.
        -11    1    1    2    0    0  0.63844201664E+02  0.75387325600E+02  0.56944341830E+02  0.11402626458E+03  0.00000000000E+00 0. -1.
         11    1    1    2    0    0 -0.23600858228E+02 -0.42946187641E+01  0.13676113764E+02  0.27613046683E+02  0.00000000000E+00 0.  1.
<mgrwt>
<rscale>  0 0.14218050E+03</rscale>
<asrwt>0</asrwt>
<pdfrwt beam="2">  1        2 0.70241228E-02 0.14930688E+03</pdfrwt>
<pdfrwt beam="1">  1       -2 0.10082304E+00 0.14930688E+03</pdfrwt>
<totfact> 0.82867694E+02</totfact>
</mgrwt>
</event>
<event>
 7    1  0.6387485E-006  0.1489456E+03  0.7546771E-02  0.1209445E+00
          1   -1    0    0  501    0  0.00000000000E+00  0.00000000000E+00  0.30868672664E+03  0.30868672664E+03  0.00000000000E+00 0. -1.
         -1   -1    0    0    0  501 -0.00000000000E+00 -0.00000000000E+00 -0.73932266117E+02  0.73932266117E+02  0.00000000000E+00 0.  1.
         23    2    1    2    0    0 -0.85281900636E+02  0.52722144300E+02  0.46701814985E+02  0.15609562720E+03  0.11014607679E+03 0.  0.
          5    1    3    3  502    0 -0.22653643991E+02  0.46413009888E+01 -0.35108486273E+02  0.42301596534E+02  0.47000000000E+01 0. -1.
         -5    1    3    3    0  502 -0.62628256645E+02  0.48080843311E+02  0.81810301258E+02  0.11379403067E+03  0.47000000000E+01 0.  1.
        -11    1    1    2    0    0  0.78444394512E+02 -0.35929141868E+02  0.82335392930E+02  0.11926249702E+03  0.00000000000E+00 0. -1.
         11    1    1    2    0    0  0.68375061236E+01 -0.16793002432E+02  0.10571725261E+03  0.10726086854E+03  0.00000000000E+00 0.  1.
<mgrwt>
<rscale>  0 0.14292642E+03</rscale>
<asrwt>0</asrwt>
<pdfrwt beam="1">  1        1 0.47490265E-01 0.14894558E+03</pdfrwt>
<pdfrwt beam="2">  1       -1 0.11374195E-01 0.14894558E+03</pdfrwt>
<totfact> 0.40757018E+03</totfact>
</mgrwt>
</event>
<event>
 7    1  0.6387485E-006  0.1282570E+03  0.7546771E-02  0.1245238E+00
          2   -1    0    0  501    0  0.00000000000E+00  0.00000000000E+00  0.88347753766E+02  0.88347753766E+02  0.00000000000E+00 0.  1.
         -2   -1    0    0    0  501 -0.00000000000E+00 -0.00000000000E+00 -0.14006685588E+03  0.14006685588E+03  0.00000000000E+00 0. -1.
         23    2    1    2    0    0  0.41905330386E+01  0.28419129512E+02 -0.26519855960E+02  0.13097003165E+03  0.12499855576E+03 0.  0.
          5    1    3    3  502    0 -0.15091979478E+02  0.53802019799E+02 -0.61624971970E+02  0.83319579628E+02  0.47000000000E+01 0. -1.
         -5    1    3    3    0  502  0.19282512517E+02 -0.25382890287E+02  0.35105116011E+02  0.47650452027E+02  0.47000000000E+01 0. -1.
        -11    1    1    2    0    0  0.29144024161E+02 -0.30415976235E+02  0.15421667044E+02  0.44859041107E+02  0.00000000000E+00 0.  1.
         11    1    1    2    0    0 -0.33334557199E+02  0.19968467228E+01 -0.40620913203E+02  0.52585536889E+02  0.00000000000E+00 0. -1.
<mgrwt>
<rscale>  0 0.11871145E+03</rscale>
<asrwt>0</asrwt>
<pdfrwt beam="1">  1        2 0.13591962E-01 0.12825695E+03</pdfrwt>
<pdfrwt beam="2">  1       -2 0.21548747E-01 0.12825695E+03</pdfrwt>
<totfact> 0.76193465E+03</totfact>
</mgrwt>
</event>
<event>
 7    1  0.6387485E-006  0.1514617E+03  0.7546771E-02  0.1207973E+00
          2   -1    0    0  501    0  0.00000000000E+00  0.00000000000E+00  0.99493263656E+02  0.99493263656E+02  0.00000000000E+00 0. -1.
         -2   -1    0    0    0  501 -0.00000000000E+00 -0.00000000000E+00 -0.19122492272E+03  0.19122492272E+03  0.00000000000E+00 0.  1.
         23    2    1    2    0    0  0.45851010036E+02  0.72175605832E+02 -0.42049499570E+02  0.15719032860E+03  0.12501602214E+03 0.  0.
          5    1    3    3  502    0  0.70546123450E+02  0.24411702626E+02  0.17501390909E+02  0.76818457695E+02  0.47000000000E+01 0. -1.
         -5    1    3    3    0  502 -0.24695113414E+02  0.47763903206E+02 -0.59550890479E+02  0.80371870906E+02  0.47000000000E+01 0. -1.
        -11    1    1    2    0    0 -0.28253998411E+02 -0.36785620904E+02 -0.73844544040E+02  0.87203709875E+02  0.00000000000E+00 0.  1.
         11    1    1    2    0    0 -0.17597011624E+02 -0.35389984928E+02  0.24162384549E+02  0.46324147897E+02  0.00000000000E+00 0. -1.
<mgrwt>
<rscale>  0 0.14405582E+03</rscale>
<asrwt>0</asrwt>
<pdfrwt beam="1">  1        2 0.15306656E-01 0.15146167E+03</pdfrwt>
<pdfrwt beam="2">  1       -2 0.29419219E-01 0.15146167E+03</pdfrwt>
<totfact> 0.38857689E+03</totfact>
</mgrwt>
</event>
<event>
 7    1  0.6387485E-006  0.1454240E+03  0.7546771E-02  0.1216394E+00
          1   -1    0    0  501    0  0.00000000000E+00  0.00000000000E+00  0.36854949649E+03  0.36854949649E+03  0.00000000000E+00 0. -1.
         -1   -1    0    0    0  501 -0.00000000000E+00 -0.00000000000E+00 -0.48842101591E+02  0.48842101591E+02  0.00000000000E+00 0.  1.
         23    2    1    2    0    0 -0.10363169378E+02 -0.73532396165E+02  0.13328710617E+03  0.19726530539E+03  0.12503495300E+03 0.  0.
          5    1    3    3  502    0 -0.13163795282E+01  0.35337203854E+02  0.39321081287E+02  0.53091320053E+02  0.47000000000E+01 0. -1.
         -5    1    3    3    0  502 -0.90467898495E+01 -0.10886960002E+03  0.93966024885E+02  0.14417398534E+03  0.47000000000E+01 0. -1.
        -11    1    1    2    0    0 -0.24763862379E+02  0.19532949604E+02  0.13224757659E+03  0.13595663468E+03  0.00000000000E+00 0.  1.
         11    1    1    2    0    0  0.35127031757E+02  0.53999446562E+02  0.54172712133E+02  0.84169658006E+02  0.00000000000E+00 0. -1.
<mgrwt>
<rscale>  0 0.13774610E+03</rscale>
<asrwt>0</asrwt>
<pdfrwt beam="1">  1        1 0.56699921E-01 0.14542403E+03</pdfrwt>
<pdfrwt beam="2">  1       -1 0.75141697E-02 0.14542403E+03</pdfrwt>
<totfact> 0.61346601E+03</totfact>
</mgrwt>
</event>
<event>
 7    1  0.6387485E-006  0.2668377E+03  0.7546771E-02  0.1105178E+00
          1   -1    0    0  501    0  0.00000000000E+00  0.00000000000E+00  0.32152060489E+03  0.32152060489E+03  0.00000000000E+00 0. -1.
         -1   -1    0    0    0  501 -0.00000000000E+00 -0.00000000000E+00 -0.24174139359E+03  0.24174139359E+03  0.00000000000E+00 0.  1.
         23    2    1    2    0    0 -0.54591923296E+02 -0.22933856779E+03 -0.61064346152E+02  0.27373567877E+03  0.12500364272E+03 0.  0.
          5    1    3    3  502    0 -0.40591067334E+02 -0.16946307024E+02  0.16395512434E+02  0.47177482945E+02  0.47000000000E+01 0.  1.
         -5    1    3    3    0  502 -0.14000855962E+02 -0.21239226077E+03 -0.77459858586E+02  0.22655819582E+03  0.47000000000E+01 0.  1.
        -11    1    1    2    0    0  0.57711558180E+02  0.21977137858E+03  0.10140348722E+03  0.24882272808E+03  0.00000000000E+00 0.  1.
         11    1    1    2    0    0 -0.31196348835E+01  0.95671892103E+01  0.39440070234E+02  0.40703591626E+02  0.00000000000E+00 0. -1.
<mgrwt>
<rscale>  0 0.26329840E+03</rscale>
<asrwt>0</asrwt>
<pdfrwt beam="1">  1        1 0.49464709E-01 0.26683772E+03</pdfrwt>
<pdfrwt beam="2">  1       -1 0.37190983E-01 0.26683772E+03</pdfrwt>
<totfact> 0.56623398E+02</totfact>
</mgrwt>
</event>
<event>
 7    1  0.6387485E-006  0.1884413E+03  0.7546771E-02  0.1164984E+00
          2   -1    0    0  501    0  0.00000000000E+00  0.00000000000E+00  0.15984246307E+04  0.15984246307E+04  0.00000000000E+00 0. -1.
         -2   -1    0    0    0  501 -0.00000000000E+00 -0.00000000000E+00 -0.19882707831E+02  0.19882707831E+02  0.00000000000E+00 0.  1.
         23    2    1    2    0    0  0.14099548893E+03 -0.22850927616E+01  0.88663346668E+03  0.90643753965E+03  0.12500063802E+03 0.  0.
          5    1    3    3  502    0  0.74891971314E+02 -0.61974133685E+02  0.39761184468E+03  0.40934932472E+03  0.47000000000E+01 0.  1.
         -5    1    3    3    0  502  0.66103517612E+02  0.59689040924E+02  0.48902162200E+03  0.49708821493E+03  0.47000000000E+01 0.  1.
        -11    1    1    2    0    0 -0.50680121802E+02 -0.31524426622E+02  0.14983101348E+03  0.16128111117E+03  0.00000000000E+00 0.  1.
         11    1    1    2    0    0 -0.90315367123E+02  0.33809519383E+02  0.54207744266E+03  0.55058868766E+03  0.00000000000E+00 0. -1.
<mgrwt>
<rscale>  0 0.18294394E+03</rscale>
<asrwt>0</asrwt>
<pdfrwt beam="1">  1        2 0.24591138E+00 0.18844126E+03</pdfrwt>
<pdfrwt beam="2">  1       -2 0.30588794E-02 0.18844126E+03</pdfrwt>
<totfact> 0.49454308E+03</totfact>
</mgrwt>
</event>
<event>
 7    1  0.6387485E-006  0.1500959E+03  0.7546771E-02  0.1209602E+00
         -2   -1    0    0    0  501 -0.00000000000E+00  0.00000000000E+00  0.25512805858E+02  0.25512805858E+02  0.00000000000E+00 0. -1.
          2   -1    0    0  501    0  0.00000000000E+00 -0.00000000000E+00 -0.73087890444E+03  0.73087890444E+03  0.00000000000E+00 0.  1.
         23    2    1    2    0    0 -0.77681285297E+02  0.29458009393E+02 -0.38357292595E+03  0.41189436991E+03  0.12500650397E+03 0.  0.
          5    1    3    3  502    0 -0.11121028235E+03  0.12063484333E+02 -0.29166866721E+03  0.31241951922E+03  0.47000000000E+01 0.  1.
         -5    1    3    3    0  502  0.33528997053E+02  0.17394525061E+02 -0.91904258740E+02  0.99474850691E+02  0.47000000000E+01 0.  1.
        -11    1    1    2    0    0  0.95194099763E+02 -0.18745963820E+02 -0.21685307732E+03  0.23756806378E+03  0.00000000000E+00 0. -1.
         11    1    1    2    0    0 -0.17512814466E+02 -0.10712045573E+02 -0.10494009531E+03  0.10692927660E+03  0.00000000000E+00 0.  1.
<mgrwt>
<rscale>  0 0.14280644E+03</rscale>
<asrwt>0</asrwt>
<pdfrwt beam="2">  1        2 0.11244289E+00 0.15009591E+03</pdfrwt>
<pdfrwt beam="1">  1       -2 0.39250477E-02 0.15009591E+03</pdfrwt>
<totfact> 0.10832604E+04</totfact>
</mgrwt>
</event>
<event>
 7    1  0.6387485E-006  0.1883938E+03  0.7546771E-02  0.1164941E+00
         -2   -1    0    0    0  501 -0.00000000000E+00  0.00000000000E+00  0.46447438856E+02  0.46447438856E+02  0.00000000000E+00 0.  1.
          2   -1    0    0  501    0  0.00000000000E+00 -0.00000000000E+00 -0.68336575466E+03  0.68336575466E+03  0.00000000000E+00 0. -1.
         23    2    1    2    0    0  0.14086228127E+03 -0.51667183491E+01 -0.35019505545E+03  0.39765410549E+03  0.12499333376E+03 0.  0.
          5    1    3    3  502    0  0.47211815768E+02  0.52597620291E+02 -0.85954607466E+02  0.11138110142E+03  0.47000000000E+01 0. -1.
         -5    1    3    3    0  502  0.93650465502E+02 -0.57764338640E+02 -0.26424044799E+03  0.28627300407E+03  0.47000000000E+01 0. -1.
        -11    1    1    2    0    0 -0.49586730001E+02 -0.29245697525E+02 -0.17302140644E+03  0.18234736549E+03  0.00000000000E+00 0. -1.
         11    1    1    2    0    0 -0.91275551269E+02  0.34412415874E+02 -0.11370185391E+03  0.14981172253E+03  0.00000000000E+00 0.  1.
<mgrwt>
<rscale>  0 0.18298931E+03</rscale>
<asrwt>0</asrwt>
<pdfrwt beam="2">  1        2 0.10513320E+00 0.18839377E+03</pdfrwt>
<pdfrwt beam="1">  1       -2 0.71457596E-02 0.18839377E+03</pdfrwt>
<totfact> 0.47929480E+03</totfact>
</mgrwt>
</event>
<event>
 7    1  0.6387485E-006  0.1266138E+03  0.7546771E-02  0.1249409E+00
         -2   -1    0    0    0  501 -0.00000000000E+00  0.00000000000E+00  0.24393945326E+02  0.24393945326E+02  0.00000000000E+00 0.  1.
          2   -1    0    0  501    0  0.00000000000E+00 -0.00000000000E+00 -0.50402699223E+03  0.50402699223E+03  0.00000000000E+00 0. -1.
         23    2    1    2    0    0  0.16610867325E+02  0.11431938673E+02 -0.22257894886E+03  0.25607116629E+03  0.12499777435E+03 0.  0.
          5    1    3    3  502    0  0.47428127758E+01  0.38049912350E+02 -0.22322552921E+03  0.22654363155E+03  0.47000000000E+01 0.  1.
         -5    1    3    3    0  502  0.11868054549E+02 -0.26617973677E+02  0.64658035469E+00  0.29527534736E+02  0.47000000000E+01 0.  1.
        -11    1    1    2    0    0 -0.48625578705E+02 -0.23579216743E+02 -0.18199832266E+03  0.18985208931E+03  0.00000000000E+00 0. -1.
         11    1    1    2    0    0  0.32014711381E+02  0.12147278070E+02 -0.75055775393E+02  0.82497681962E+02  0.00000000000E+00 0.  1.
<mgrwt>
<rscale>  0 0.11625329E+03</rscale>
<asrwt>0</asrwt>
<pdfrwt beam="2">  1        2 0.77542607E-01 0.12661380E+03</pdfrwt>
<pdfrwt beam="1">  1       -2 0.37529150E-02 0.12661380E+03</pdfrwt>
<totfact> 0.17500891E+04</totfact>
</mgrwt>
</event>
<event>
 7    1  0.6387485E-006  0.1440748E+03  0.7546771E-02  0.1212908E+00
         -1   -1    0    0    0  501 -0.00000000000E+00  0.00000000000E+00  0.34987099881E+02  0.34987099881E+02  0.00000000000E+00 0.  1.
          1   -1    0    0  501    0  0.00000000000E+00 -0.00000000000E+00 -0.55722450125E+03  0.55722450125E+03  0.00000000000E+00 0. -1.
         23    2    1    2    0    0  0.44971093985E+02  0.55764640450E+02 -0.21560017716E+03  0.25930869108E+03  0.12500186584E+03 0.  0.
          5    1    3    3  502    0 -0.28507801035E+02  0.53596354774E+02 -0.14505411638E+03  0.15731513164E+03  0.47000000000E+01 0. -1.
         -5    1    3    3    0  502  0.73478895020E+02  0.21682856758E+01 -0.70546060773E+02  0.10199355944E+03  0.47000000000E+01 0. -1.
        -11    1    1    2    0    0 -0.21031543361E+02 -0.78366559861E+02 -0.27688133333E+03  0.28852541702E+03  0.00000000000E+00 0. -1.
         11    1    1    2    0    0 -0.23939550624E+02  0.22601919411E+02 -0.29755890884E+02  0.44377493028E+02  0.00000000000E+00 0.  1.
<mgrwt>
<rscale>  0 0.14031309E+03</rscale>
<asrwt>0</asrwt>
<pdfrwt beam="2">  1        1 0.85726843E-01 0.14407484E+03</pdfrwt>
<pdfrwt beam="1">  1       -1 0.53826309E-02 0.14407484E+03</pdfrwt>
<totfact> 0.59287308E+03</totfact>
</mgrwt>
</event>
<event>
 7    1  0.6387485E-006  0.1553010E+03  0.7546771E-02  0.1202573E+00
          2   -1    0    0  501    0  0.00000000000E+00  0.00000000000E+00  0.31633962578E+03  0.31633962578E+03  0.00000000000E+00 0. -1.
         -2   -1    0    0    0  501 -0.00000000000E+00 -0.00000000000E+00 -0.63949198442E+02  0.63949198442E+02  0.00000000000E+00 0.  1.
         23    2    1    2    0    0 -0.61762994161E+02 -0.68402071156E+02  0.13594060959E+03  0.20639345389E+03  0.12499959074E+03 0.  0.
          5    1    3    3  502    0 -0.19218644132E+02 -0.93711771860E+02  0.52403101486E+02  0.10917613069E+03  0.47000000000E+01 0.  1.
         -5    1    3    3    0  502 -0.42544350029E+02  0.25309700704E+02  0.83537508103E+02  0.97217323195E+02  0.47000000000E+01 0.  1.
        -11    1    1    2    0    0 -0.17168452866E+02  0.26173594568E+02  0.62521989291E+01  0.31920257171E+02  0.00000000000E+00 0.  1.
         11    1    1    2    0    0  0.78931447027E+02  0.42228476587E+02  0.11019761882E+03  0.14197511317E+03  0.00000000000E+00 0. -1.
<mgrwt>
<rscale>  0 0.14830375E+03</rscale>
<asrwt>0</asrwt>
<pdfrwt beam="1">  1        2 0.48667634E-01 0.15530103E+03</pdfrwt>
<pdfrwt beam="2">  1       -2 0.98383384E-02 0.15530103E+03</pdfrwt>
<totfact> 0.67616470E+03</totfact>
</mgrwt>
</event>
<event>
 7    1  0.6387485E-006  0.2080897E+03  0.7546771E-02  0.1147005E+00
          2   -1    0    0  501    0  0.00000000000E+00  0.00000000000E+00  0.82940816430E+03  0.82940816430E+03  0.00000000000E+00 0. -1.
         -2   -1    0    0    0  501 -0.00000000000E+00 -0.00000000000E+00 -0.49648593454E+02  0.49648593454E+02  0.00000000000E+00 0.  1.
         23    2    1    2    0    0  0.27722413080E+01  0.16633592883E+03  0.31918278520E+03  0.38102359000E+03  0.12500399685E+03 0.  0.
          5    1    3    3  502    0 -0.42027568477E+02  0.39902671033E+02  0.17328619719E+03  0.18278056736E+03  0.47000000000E+01 0. -1.
         -5    1    3    3    0  502  0.44799809785E+02  0.12643325780E+03  0.14589658801E+03  0.19824302265E+03  0.47000000000E+01 0. -1.
        -11    1    1    2    0    0  0.36687260801E+00 -0.51116186009E+02  0.49701688615E+02  0.71296962900E+02  0.00000000000E+00 0.  1.
         11    1    1    2    0    0 -0.31391139160E+01 -0.11521974282E+03  0.41087509702E+03  0.42673620484E+03  0.00000000000E+00 0. -1.
<mgrwt>
<rscale>  0 0.20327498E+03</rscale>
<asrwt>0</asrwt>
<pdfrwt beam="1">  1        2 0.12760125E+00 0.20808971E+03</pdfrwt>
<pdfrwt beam="2">  1       -2 0.76382458E-02 0.20808971E+03</pdfrwt>
<totfact> 0.34127738E+03</totfact>
</mgrwt>
</event>
<event>
 7    1  0.6387485E-006  0.1667149E+03  0.7546771E-02  0.1188340E+00
          2   -1    0    0  501    0  0.00000000000E+00  0.00000000000E+00  0.79651993280E+03  0.79651993280E+03  0.00000000000E+00 0.  1.
         -2   -1    0    0    0  501 -0.00000000000E+00 -0.00000000000E+00 -0.34129147139E+02  0.34129147139E+02  0.00000000000E+00 0. -1.
         23    2    1    2    0    0 -0.53845533907E+02 -0.96279568593E+02  0.26368062739E+03  0.31196365567E+03  0.12499900940E+03 0.  0.
          5    1    3    3  502    0 -0.92901888636E+02 -0.63766452672E+02  0.20673031114E+03  0.23549189571E+03  0.47000000000E+01 0. -1.
         -5    1    3    3    0  502  0.39056354729E+02 -0.32513115921E+02  0.56950316250E+02  0.76471759967E+02  0.47000000000E+01 0. -1.
        -11    1    1    2    0    0 -0.16408592859E+02  0.21903024640E+02  0.38475590922E+02  0.47216051347E+02  0.00000000000E+00 0.  1.
         11    1    1    2    0    0  0.70254126766E+02  0.74376543953E+02  0.46023456735E+03  0.47146937292E+03  0.00000000000E+00 0. -1.
<mgrwt>
<rscale>  0 0.16031663E+03</rscale>
<asrwt>0</asrwt>
<pdfrwt beam="1">  1        2 0.12254151E+00 0.16671487E+03</pdfrwt>
<pdfrwt beam="2">  1       -2 0.52506386E-02 0.16671487E+03</pdfrwt>
<totfact> 0.63331804E+03</totfact>
</mgrwt>
</event>
<event>
 7    1  0.6387485E-006  0.4773862E+03  0.7546771E-02  0.1020443E+00
         -3   -1    0    0    0  501 -0.00000000000E+00  0.00000000000E+00  0.15415612474E+04  0.15415612474E+04  0.00000000000E+00 0.  1.
          3   -1    0    0  501    0  0.00000000000E+00 -0.00000000000E+00 -0.18317533339E+03  0.18317533339E+03  0.00000000000E+00 0. -1.
         23    2    1    2    0    0  0.44971946831E+03  0.10013080593E+03  0.10763944291E+04  0.11775069035E+04  0.12499504912E+03 0.  0.
          5    1    3    3  502    0  0.21647222300E+02  0.26664102726E+02  0.35483893825E+02  0.49606182362E+02  0.47000000000E+01 0. -1.
         -5    1    3    3    0  502  0.42807224601E+03  0.73466703200E+02  0.10409105353E+04  0.11279007211E+04  0.47000000000E+01 0. -1.
        -11    1    1    2    0    0 -0.11185492018E+03  0.56909024053E+01  0.94836474211E+02  0.14675784946E+03  0.00000000000E+00 0. -1.
         11    1    1    2    0    0 -0.33786454813E+03 -0.10582170833E+03  0.18715501064E+03  0.40047182778E+03  0.00000000000E+00 0.  1.
<mgrwt>
<rscale>  0 0.47527029E+03</rscale>
<asrwt>0</asrwt>
<pdfrwt beam="2">  1        3 0.28180822E-01 0.47738615E+03</pdfrwt>
<pdfrwt beam="1">  1       -3 0.23716326E+00 0.47738615E+03</pdfrwt>
<totfact> 0.28410007E+00</totfact>
</mgrwt>
</event>
<event>
 7    1  0.6387485E-006  0.1377335E+03  0.7546771E-02  0.1223782E+00
         -2   -1    0    0    0  501 -0.00000000000E+00  0.00000000000E+00  0.58119074848E+03  0.58119074848E+03  0.00000000000E+00 0.  1.
          2   -1    0    0  501    0  0.00000000000E+00 -0.00000000000E+00 -0.35315982132E+02  0.35315982132E+02  0.00000000000E+00 0. -1.
         23    2    1    2    0    0 -0.62012807588E+01  0.79308321527E+02  0.42844782409E+03  0.45004226814E+03  0.11243771340E+03 0.  0.
          5    1    3    3  502    0  0.76085338572E+01  0.52305228882E+02  0.59121407733E+02  0.79442794565E+02  0.47000000000E+01 0. -1.
         -5    1    3    3    0  502 -0.13809814616E+02  0.27003092645E+02  0.36932641636E+03  0.37059947357E+03  0.47000000000E+01 0.  1.
        -11    1    1    2    0    0  0.21840838365E+02  0.49159883791E+01  0.58096452870E+02  0.62260637631E+02  0.00000000000E+00 0.  1.
         11    1    1    2    0    0 -0.15639557606E+02 -0.84224309906E+02  0.59330489389E+02  0.10420382485E+03  0.00000000000E+00 0. -1.
<mgrwt>
<rscale>  0 0.13250726E+03</rscale>
<asrwt>0</asrwt>
<pdfrwt beam="2">  1        2 0.54332284E-02 0.13773346E+03</pdfrwt>
<pdfrwt beam="1">  1       -2 0.89413954E-01 0.13773346E+03</pdfrwt>
<totfact> 0.15097524E+03</totfact>
</mgrwt>
</event>
<event>
 7    1  0.6387485E-006  0.1382414E+03  0.7546771E-02  0.1227952E+00
          2   -1    0    0  501    0  0.00000000000E+00  0.00000000000E+00  0.33157362717E+02  0.33157362717E+02  0.00000000000E+00 0. -1.
         -2   -1    0    0    0  501 -0.00000000000E+00 -0.00000000000E+00 -0.47182270624E+03  0.47182270624E+03  0.00000000000E+00 0.  1.
         23    2    1    2    0    0 -0.35920797963E+01  0.58900686061E+02 -0.29558226489E+03  0.32631206649E+03  0.12501398148E+03 0.  0.
          5    1    3    3  502    0 -0.14279378612E+02 -0.22901049358E+01 -0.24659460068E+03  0.24706301285E+03  0.47000000000E+01 0. -1.
         -5    1    3    3    0  502  0.10687298816E+02  0.61190790996E+02 -0.48987664212E+02  0.79249053645E+02  0.47000000000E+01 0. -1.
        -11    1    1    2    0    0  0.10381136442E+02 -0.69539543884E+02 -0.14897997582E+03  0.16473782005E+03  0.00000000000E+00 0.  1.
         11    1    1    2    0    0 -0.67890566457E+01  0.10638857823E+02  0.58968971841E+01  0.13930182422E+02  0.00000000000E+00 0. -1.
<mgrwt>
<rscale>  0 0.12966623E+03</rscale>
<asrwt>0</asrwt>
<pdfrwt beam="1">  1        2 0.51011325E-02 0.13824142E+03</pdfrwt>
<pdfrwt beam="2">  1       -2 0.72588111E-01 0.13824142E+03</pdfrwt>
<totfact> 0.25885717E+03</totfact>
</mgrwt>
</event>
<event>
 7    1  0.1311416E-005  0.1618175E+03  0.7546771E-02  0.1194293E+00
         -1   -1    0    0    0  501 -0.00000000000E+00  0.00000000000E+00  0.28305583589E+02  0.28305583589E+02  0.00000000000E+00 0.  1.
          1   -1    0    0  501    0  0.00000000000E+00 -0.00000000000E+00 -0.78846843156E+03  0.78846843156E+03  0.00000000000E+00 0. -1.
         23    2    1    2    0    0 -0.97834581914E+02  0.31435121740E+02 -0.39550524996E+03  0.42732809367E+03  0.12500049838E+03 0.  0.
          5    1    3    3  502    0  0.28897896488E+02 -0.18734658867E+01 -0.52927468904E+02  0.60514504546E+02  0.47000000000E+01 0.  1.
         -5    1    3    3    0  502 -0.12673247840E+03  0.33308587627E+02 -0.34257778106E+03  0.36681358912E+03  0.47000000000E+01 0.  1.
        -11    1    1    2    0    0  0.20130747093E+02  0.28591833695E+02 -0.61045381057E+02  0.70351108598E+02  0.00000000000E+00 0.  1.
         11    1    1    2    0    0  0.77703834820E+02 -0.60026955435E+02 -0.30361221695E+03  0.31909481288E+03  0.00000000000E+00 0. -1.
<mgrwt>
<rscale>  0 0.15514181E+03</rscale>
<asrwt>0</asrwt>
<pdfrwt beam="2">  1        1 0.12130284E+00 0.16181748E+03</pdfrwt>
<pdfrwt beam="1">  1       -1 0.43547051E-02 0.16181748E+03</pdfrwt>
<totfact> 0.49967254E+03</totfact>
</mgrwt>
</event>
<event>
 6    1  0.6387485E-006  0.2292981E+03  0.7546771E-02  0.1136070E+00
          2   -1    0    0  501    0  0.00000000000E+00  0.00000000000E+00  0.87064047868E+03  0.87064047868E+03  0.00000000000E+00 0. -1.
         -2   -1    0    0    0  501 -0.00000000000E+00 -0.00000000000E+00 -0.89014763636E+02  0.89014763636E+02  0.00000000000E+00 0.  1.
          5    1    1    2  502    0  0.26442817221E+01  0.20850846155E+02 -0.36479349905E+02  0.42362518583E+02  0.47000000000E+01 0. -1.
         -5    1    1    2    0  502  0.15680936850E+03 -0.23840106868E+02  0.13054922105E+03  0.20548167281E+03  0.47000000000E+01 0.  1.
        -11    1    1    2    0    0  0.91381465680E+00  0.21435756411E+02  0.11251163573E+03  0.11453905398E+03  0.00000000000E+00 0.  1.
         11    1    1    2    0    0 -0.16036746488E+03 -0.18446495698E+02  0.57504420816E+03  0.59727199695E+03  0.00000000000E+00 0. -1.
<mgrwt>
<rscale>  0 0.21709127E+03</rscale>
<asrwt>0</asrwt>
<pdfrwt beam="1">  1        2 0.13394468E+00 0.22929806E+03</pdfrwt>
<pdfrwt beam="2">  1       -2 0.13694580E-01 0.22929806E+03</pdfrwt>
<totfact> 0.12656352E+03</totfact>
</mgrwt>
</event>
<event>
 7    1  0.6387485E-006  0.1618026E+03  0.7546771E-02  0.1193996E+00
          1   -1    0    0  501    0  0.00000000000E+00  0.00000000000E+00  0.24424125134E+03  0.24424125134E+03  0.00000000000E+00 0. -1.
         -1   -1    0    0    0  501 -0.00000000000E+00 -0.00000000000E+00 -0.10089625151E+03  0.10089625151E+03  0.00000000000E+00 0.  1.
         23    2    1    2    0    0  0.10117822756E+03 -0.17823020616E+02  0.25238700393E+02  0.16375916732E+03  0.12500151635E+03 0.  0.
          5    1    3    3  502    0  0.59965438961E+02 -0.12850026626E+02 -0.48955877862E+02  0.78611354341E+02  0.47000000000E+01 0. -1.
         -5    1    3    3    0  502  0.41212788599E+02 -0.49729939901E+01  0.74194578255E+02  0.85147812983E+02  0.47000000000E+01 0. -1.
        -11    1    1    2    0    0 -0.34822114263E+02 -0.32054643327E+02  0.16387594143E+02  0.50086256023E+02  0.00000000000E+00 0.  1.
         11    1    1    2    0    0 -0.66356113296E+02  0.49877663943E+02  0.10171870530E+03  0.13129207950E+03  0.00000000000E+00 0. -1.
<mgrwt>
<rscale>  0 0.15539512E+03</rscale>
<asrwt>0</asrwt>
<pdfrwt beam="1">  1        1 0.37575577E-01 0.16180257E+03</pdfrwt>
<pdfrwt beam="2">  1       -1 0.15522500E-01 0.16180257E+03</pdfrwt>
<totfact> 0.33703960E+03</totfact>
</mgrwt>
</event>
<event>
 7    1  0.6387485E-006  0.1422832E+03  0.7546771E-02  0.1220462E+00
          2   -1    0    0  501    0  0.00000000000E+00  0.00000000000E+00  0.20405789335E+03  0.20405789335E+03  0.00000000000E+00 0. -1.
         -2   -1    0    0    0  501 -0.00000000000E+00 -0.00000000000E+00 -0.85131176610E+02  0.85131176610E+02  0.00000000000E+00 0.  1.
         23    2    1    2    0    0 -0.58914445891E+02 -0.33911799969E+02  0.33564199429E+02  0.14618848217E+03  0.12499437877E+03 0.  0.
          5    1    3    3  502    0 -0.82655056596E+02  0.12639923190E+02 -0.28828750908E+00  0.83748427740E+02  0.47000000000E+01 0. -1.
         -5    1    3    3    0  502  0.23740610705E+02 -0.46551723159E+02  0.33852486938E+02  0.62440054433E+02  0.47000000000E+01 0. -1.
        -11    1    1    2    0    0 -0.11202007253E+02 -0.83990146544E+01  0.53210625041E+02  0.55021805049E+02  0.00000000000E+00 0. -1.
         11    1    1    2    0    0  0.70116453145E+02  0.42310814624E+02  0.32151892273E+02  0.87978782740E+02  0.00000000000E+00 0.  1.
<mgrwt>
<rscale>  0 0.13482866E+03</rscale>
<asrwt>0</asrwt>
<pdfrwt beam="1">  1        2 0.31393522E-01 0.14228323E+03</pdfrwt>
<pdfrwt beam="2">  1       -2 0.13097104E-01 0.14228323E+03</pdfrwt>
<totfact> 0.68120724E+03</totfact>
</mgrwt>
</event>
<event>
 7    1  0.6387485E-006  0.1586496E+03  0.7546771E-02  0.1198495E+00
         -2   -1    0    0    0  501 -0.00000000000E+00  0.00000000000E+00  0.31103473937E+02  0.31103473937E+02  0.00000000000E+00 0. -1.
          2   -1    0    0  501    0  0.00000000000E+00 -0.00000000000E+00 -0.10074112335E+04  0.10074112335E+04  0.00000000000E+00 0.  1.
         23    2    1    2    0    0  0.14320877448E+02  0.96636911480E+02 -0.22304127631E+03  0.27370988572E+03  0.12500364160E+03 0.  0.
          5    1    3    3  502    0  0.28461596199E+02  0.75689604645E+01  0.33124240137E+01  0.30006895434E+02  0.47000000000E+01 0.  1.
         -5    1    3    3    0  502 -0.14140718752E+02  0.89067951016E+02 -0.22635370032E+03  0.24370299028E+03  0.47000000000E+01 0.  1.
        -11    1    1    2    0    0  0.14163310272E+02  0.12796687662E+02 -0.95475998199E+02  0.97365398397E+02  0.00000000000E+00 0. -1.
         11    1    1    2    0    0 -0.28484187719E+02 -0.10943359914E+03 -0.65779048503E+03  0.66743942329E+03  0.00000000000E+00 0.  1.
<mgrwt>
<rscale>  0 0.15162075E+03</rscale>
<asrwt>0</asrwt>
<pdfrwt beam="2">  1        2 0.15498637E+00 0.15864958E+03</pdfrwt>
<pdfrwt beam="1">  1       -2 0.47851492E-02 0.15864958E+03</pdfrwt>
<totfact> 0.53367851E+03</totfact>
</mgrwt>
</event>
<event>
 7    1  0.6387485E-006  0.1829019E+03  0.7546771E-02  0.1170464E+00
          2   -1    0    0  501    0  0.00000000000E+00  0.00000000000E+00  0.38098246663E+03  0.38098246663E+03  0.00000000000E+00 0. -1.
         -2   -1    0    0    0  501 -0.00000000000E+00 -0.00000000000E+00 -0.83612795493E+02  0.83612795493E+02  0.00000000000E+00 0.  1.
         23    2    1    2    0    0 -0.13312695597E+03 -0.10248294141E+02  0.96166638316E+02  0.20664254141E+03  0.12500121463E+03 0.  0.
          5    1    3    3  502    0 -0.11882560465E+03  0.40917168581E+02  0.85983652320E+02  0.15234506054E+03  0.47000000000E+01 0. -1.
         -5    1    3    3    0  502 -0.14301351312E+02 -0.51165462722E+02  0.10182985996E+02  0.54297480869E+02  0.47000000000E+01 0. -1.
        -11    1    1    2    0    0  0.58568249337E+02 -0.62493177894E+01  0.16145866935E+03  0.17186679642E+03  0.00000000000E+00 0. -1.
         11    1    1    2    0    0  0.74558706629E+02  0.16497611930E+02  0.39744363475E+02  0.86085924294E+02  0.00000000000E+00 0.  1.
<mgrwt>
<rscale>  0 0.17727772E+03</rscale>
<asrwt>0</asrwt>
<pdfrwt beam="1">  1        2 0.58612686E-01 0.18290193E+03</pdfrwt>
<pdfrwt beam="2">  1       -2 0.12863507E-01 0.18290193E+03</pdfrwt>
<totfact> 0.36431260E+03</totfact>
</mgrwt>
</event>
<event>
 7    1  0.6387485E-006  0.1350990E+03  0.7546771E-02  0.1232805E+00
          1   -1    0    0  501    0  0.00000000000E+00  0.00000000000E+00  0.47775890456E+03  0.47775890456E+03  0.00000000000E+00 0. -1.
         -1   -1    0    0    0  501 -0.00000000000E+00 -0.00000000000E+00 -0.30060568230E+02  0.30060568230E+02  0.00000000000E+00 0.  1.
         23    2    1    2    0    0  0.17170982330E+02 -0.48301866320E+02  0.27438832479E+03  0.30584423642E+03  0.12499532490E+03 0.  0.
          5    1    3    3  502    0 -0.13339050480E+02 -0.70028201527E+02  0.25205360222E+03  0.26198280033E+03  0.47000000000E+01 0.  1.
         -5    1    3    3    0  502  0.30510032809E+02  0.21726335207E+02  0.22334722566E+02  0.43861436088E+02  0.47000000000E+01 0.  1.
        -11    1    1    2    0    0 -0.46273806492E+02  0.19865184252E+02  0.14190675719E+03  0.15057695191E+03  0.00000000000E+00 0.  1.
         11    1    1    2    0    0  0.29102824162E+02  0.28436682068E+02  0.31403254364E+02  0.51398284465E+02  0.00000000000E+00 0. -1.
<mgrwt>
<rscale>  0 0.12646017E+03</rscale>
<asrwt>0</asrwt>
<pdfrwt beam="1">  1        1 0.73501365E-01 0.13509902E+03</pdfrwt>
<pdfrwt beam="2">  1       -1 0.46247031E-02 0.13509902E+03</pdfrwt>
<totfact> 0.90504350E+03</totfact>
</mgrwt>
</event>
<event>
 6    1  0.6387485E-006  0.2494817E+03  0.7546771E-02  0.1199376E+00
          2   -1    0    0  501    0  0.00000000000E+00  0.00000000000E+00  0.33659245610E+03  0.33659245610E+03  0.00000000000E+00 0. -1.
         -2   -1    0    0    0  501 -0.00000000000E+00 -0.00000000000E+00 -0.60332768703E+02  0.60332768703E+02  0.00000000000E+00 0.  1.
          5    1    1    2  502    0  0.85313061001E+02  0.26313883736E+02  0.22859969609E+03  0.24546007803E+03  0.47000000000E+01 0. -1.
         -5    1    1    2    0  502 -0.89782593885E+02 -0.15914594132E+02 -0.23503067587E+01  0.91333468197E+02  0.47000000000E+01 0.  1.
        -11    1    1    2    0    0  0.16516309919E+02 -0.11663382061E+02  0.38161973936E+02  0.43187489266E+02  0.00000000000E+00 0. -1.
         11    1    1    2    0    0 -0.12046777035E+02  0.12640924571E+01  0.11848324136E+02  0.16944189314E+02  0.00000000000E+00 0.  1.
<mgrwt>
<rscale>  0 0.15089612E+03</rscale>
<asrwt>0</asrwt>
<pdfrwt beam="1">  1        2 0.51783453E-01 0.24948168E+03</pdfrwt>
<pdfrwt beam="2">  1       -2 0.92819646E-02 0.24948168E+03</pdfrwt>
<totfact> 0.71227808E+03</totfact>
</mgrwt>
</event>
<event>
 7    1  0.6387485E-006  0.2028901E+03  0.7546771E-02  0.1152221E+00
         -2   -1    0    0    0  501 -0.00000000000E+00  0.00000000000E+00  0.80752052024E+02  0.80752052024E+02  0.00000000000E+00 0.  1.
          2   -1    0    0  501    0  0.00000000000E+00 -0.00000000000E+00 -0.45877520961E+03  0.45877520961E+03  0.00000000000E+00 0. -1.
         23    2    1    2    0    0  0.13738004152E+03 -0.81645597267E+02 -0.22294121057E+03  0.30144179506E+03  0.12500037231E+03 0.  0.
          5    1    3    3  502    0  0.26828575413E+01  0.23861826496E+02 -0.61570237316E+01  0.25230605018E+02  0.47000000000E+01 0. -1.
         -5    1    3    3    0  502  0.13469718398E+03 -0.10550742376E+03 -0.21678418684E+03  0.27621119004E+03  0.47000000000E+01 0. -1.
        -11    1    1    2    0    0 -0.10196091405E+03  0.15897654721E+02 -0.69064814753E+02  0.12417210659E+03  0.00000000000E+00 0.  1.
         11    1    1    2    0    0 -0.35419127472E+02  0.65747942546E+02 -0.86017132270E+02  0.11391335999E+03  0.00000000000E+00 0. -1.
<mgrwt>
<rscale>  0 0.19708556E+03</rscale>
<asrwt>0</asrwt>
<pdfrwt beam="2">  1        2 0.70580803E-01 0.20289005E+03</pdfrwt>
<pdfrwt beam="1">  1       -2 0.12423392E-01 0.20289005E+03</pdfrwt>
<totfact> 0.31618200E+03</totfact>
</mgrwt>
</event>
<event>
 7    1  0.6387485E-006  0.1618884E+03  0.7546771E-02  0.1193841E+00
         -2   -1    0    0    0  501 -0.00000000000E+00  0.00000000000E+00  0.58190259384E+02  0.58190259384E+02  0.00000000000E+00 0. -1.
          2   -1    0    0  501    0  0.00000000000E+00 -0.00000000000E+00 -0.38787340084E+03  0.38787340084E+03  0.00000000000E+00 0.  1.
         23    2    1    2    0    0  0.72936004141E+02  0.72512670116E+02 -0.19288668044E+03  0.25181960575E+03  0.12502037563E+03 0.  0.
          5    1    3    3  502    0  0.97224392930E+02  0.80362637357E+02 -0.11887903702E+03  0.17339276659E+03  0.47000000000E+01 0. -1.
         -5    1    3    3    0  502 -0.24288388789E+02 -0.78499672406E+01 -0.74007643425E+02  0.78426839162E+02  0.47000000000E+01 0. -1.
        -11    1    1    2    0    0 -0.84628381483E+02 -0.84969422613E+02 -0.11171246066E+03  0.16389459905E+03  0.00000000000E+00 0.  1.
         11    1    1    2    0    0  0.11692377341E+02  0.12456752497E+02 -0.25084000348E+02  0.30349455417E+02  0.00000000000E+00 0. -1.
<mgrwt>
<rscale>  0 0.15552702E+03</rscale>
<asrwt>0</asrwt>
<pdfrwt beam="2">  1        2 0.59672832E-01 0.16188836E+03</pdfrwt>
<pdfrwt beam="1">  1       -2 0.89523474E-02 0.16188836E+03</pdfrwt>
<totfact> 0.63221111E+03</totfact>
</mgrwt>
</event>
<event>
 7    1  0.6387485E-006  0.1986620E+03  0.7546771E-02  0.1155297E+00
         -2   -1    0    0    0  501 -0.00000000000E+00  0.00000000000E+00  0.37829262713E+03  0.37829262713E+03  0.00000000000E+00 0.  1.
          2   -1    0    0  501    0  0.00000000000E+00 -0.00000000000E+00 -0.10542504383E+03  0.10542504383E+03  0.00000000000E+00 0. -1.
         23    2    1    2    0    0 -0.27618869828E+02 -0.15191383150E+03  0.22141984731E+03  0.29747829496E+03  0.12500389202E+03 0.  0.
          5    1    3    3  502    0 -0.13346768219E+02 -0.10326822531E+03  0.22340673260E+03  0.24652610561E+03  0.47000000000E+01 0.  1.
         -5    1    3    3    0  502 -0.14272101609E+02 -0.48645606195E+02 -0.19868852870E+01  0.50952189350E+02  0.47000000000E+01 0.  1.
        -11    1    1    2    0    0  0.45160137555E+02  0.12578566710E+03  0.68785318567E+02  0.15030932148E+03  0.00000000000E+00 0.  1.
         11    1    1    2    0    0 -0.17541267728E+02  0.26128164396E+02 -0.17337582581E+02  0.35930054521E+02  0.00000000000E+00 0. -1.
<mgrwt>
<rscale>  0 0.19355066E+03</rscale>
<asrwt>0</asrwt>
<pdfrwt beam="2">  1        2 0.16219238E-01 0.19866199E+03</pdfrwt>
<pdfrwt beam="1">  1       -2 0.58198865E-01 0.19866199E+03</pdfrwt>
<totfact> 0.99253326E+02</totfact>
</mgrwt>
</event>
<event>
 7    1  0.6387485E-006  0.1196557E+03  0.7546771E-02  0.1254046E+00
          1   -1    0    0  501    0  0.00000000000E+00  0.00000000000E+00  0.83506320177E+03  0.83506320177E+03  0.00000000000E+00 0. -1.
         -1   -1    0    0    0  501 -0.00000000000E+00 -0.00000000000E+00 -0.14121575588E+02  0.14121575588E+02  0.00000000000E+00 0.  1.
         23    2    1    2    0    0  0.13690114228E+02  0.23827976710E+02  0.42986663175E+03  0.44620938127E+03  0.11645728464E+03 0.  0.
          5    1    3    3  502    0 -0.67358679437E+01  0.67112505601E+02  0.30493221257E+03  0.31233828550E+03  0.47000000000E+01 0. -1.
         -5    1    3    3    0  502  0.20425982172E+02 -0.43284528891E+02  0.12493441918E+03  0.13387109577E+03  0.47000000000E+01 0.  1.
        -11    1    1    2    0    0 -0.31674281507E+02 -0.50900754673E+02  0.30776796045E+03  0.31355265014E+03  0.00000000000E+00 0.  1.
         11    1    1    2    0    0  0.17984167279E+02  0.27072777964E+02  0.83307033990E+02  0.89422745941E+02  0.00000000000E+00 0. -1.
<mgrwt>
<rscale>  0 0.11359947E+03</rscale>
<asrwt>0</asrwt>
<pdfrwt beam="1">  1        1 0.12847122E+00 0.11965572E+03</pdfrwt>
<pdfrwt beam="2">  1       -1 0.21725507E-02 0.11965572E+03</pdfrwt>
<totfact> 0.12416842E+04</totfact>
</mgrwt>
</event>
<event>
 6    1  0.6387485E-006  0.1623043E+03  0.7546771E-02  0.1202128E+00
          1   -1    0    0  501    0  0.00000000000E+00  0.00000000000E+00  0.23624165339E+03  0.23624165339E+03  0.00000000000E+00 0. -1.
         -1   -1    0    0    0  501 -0.00000000000E+00 -0.00000000000E+00 -0.81177148643E+02  0.81177148643E+02  0.00000000000E+00 0.  1.
          5    1    1    2  502    0  0.78598955756E+02 -0.17662347268E+02  0.61150017615E+02  0.10124805683E+03  0.47000000000E+01 0. -1.
         -5    1    1    2    0  502 -0.35007712278E+02  0.72302365463E+02  0.38485683695E+02  0.89198709744E+02  0.47000000000E+01 0.  1.
        -11    1    1    2    0    0 -0.37074945835E+02  0.74260970119E+01 -0.72750603806E+01  0.38504870199E+02  0.00000000000E+00 0.  1.
         11    1    1    2    0    0 -0.65162976431E+01 -0.62066115207E+02  0.62703863815E+02  0.88467165260E+02  0.00000000000E+00 0. -1.
<mgrwt>
<rscale>  0 0.14866099E+03</rscale>
<asrwt>0</asrwt>
<pdfrwt beam="1">  1        1 0.36344869E-01 0.16230434E+03</pdfrwt>
<pdfrwt beam="2">  1       -1 0.12488792E-01 0.16230434E+03</pdfrwt>
<totfact> 0.49385919E+03</totfact>
</mgrwt>
</event>
<event>
 7    1  0.6387485E-006  0.1299815E+03  0.7546771E-02  0.1244609E+00
          1   -1    0    0  501    0  0.00000000000E+00  0.00000000000E+00  0.32283025038E+02  0.32283025038E+02  0.00000000000E+00 0. -1.
         -1   -1    0    0    0  501 -0.00000000000E+00 -0.00000000000E+00 -0.38660830636E+03  0.38660830636E+03  0.00000000000E+00 0.  1.
         23    2    1    2    0    0  0.25059913584E+02 -0.25652593694E+02 -0.23397890721E+03  0.26765898471E+03  0.12493657689E+03 0.  0.
          5    1    3    3  502    0 -0.70108718458E+00 -0.17874481773E+02 -0.23914384992E+03  0.23985799877E+03  0.47000000000E+01 0. -1.
         -5    1    3    3    0  502  0.25761000769E+02 -0.77781119209E+01  0.51649427121E+01  0.27800985934E+02  0.47000000000E+01 0. -1.
        -11    1    1    2    0    0  0.11782721897E+02  0.44020593493E+02 -0.38664686864E+02  0.59762891472E+02  0.00000000000E+00 0. -1.
         11    1    1    2    0    0 -0.36842635481E+02 -0.18367999799E+02 -0.81681687248E+02  0.91469455216E+02  0.00000000000E+00 0.  1.
<mgrwt>
<rscale>  0 0.11908811E+03</rscale>
<asrwt>0</asrwt>
<pdfrwt beam="1">  1        1 0.49666196E-02 0.12998155E+03</pdfrwt>
<pdfrwt beam="2">  1       -1 0.59478197E-01 0.12998155E+03</pdfrwt>
<totfact> 0.47301913E+03</totfact>
</mgrwt>
</event>
<event>
 7    1  0.6387485E-006  0.1301948E+03  0.7546771E-02  0.1240491E+00
          2   -1    0    0  501    0  0.00000000000E+00  0.00000000000E+00  0.18922049883E+02  0.18922049883E+02  0.00000000000E+00 0. -1.
         -2   -1    0    0    0  501 -0.00000000000E+00 -0.00000000000E+00 -0.74324167829E+03  0.74324167829E+03  0.00000000000E+00 0.  1.
         23    2    1    2    0    0 -0.32237984425E+02 -0.16727587437E+02 -0.50501645923E+03  0.52152883221E+03  0.12502639287E+03 0.  0.
          5    1    3    3  502    0  0.46446268031E+02 -0.20412756488E+02 -0.21662538525E+03  0.22253670254E+03  0.47000000000E+01 0.  1.
         -5    1    3    3    0  502 -0.78684252456E+02  0.36851690517E+01 -0.28839107398E+03  0.29899212967E+03  0.47000000000E+01 0.  1.
        -11    1    1    2    0    0 -0.19481768927E+02  0.21056197980E+02 -0.20733641703E+02  0.35394726898E+02  0.00000000000E+00 0. -1.
         11    1    1    2    0    0  0.51719753352E+02 -0.43286105439E+01 -0.19856952747E+03  0.20524016906E+03  0.00000000000E+00 0.  1.
<mgrwt>
<rscale>  0 0.12159369E+03</rscale>
<asrwt>0</asrwt>
<pdfrwt beam="1">  1        2 0.29110851E-02 0.13019485E+03</pdfrwt>
<pdfrwt beam="2">  1       -2 0.11434486E+00 0.13019485E+03</pdfrwt>
<totfact> 0.19476526E+03</totfact>
</mgrwt>
</event>
<event>
 7    1  0.6387485E-006  0.1336911E+03  0.7546771E-02  0.1228135E+00
          1   -1    0    0  501    0  0.00000000000E+00  0.00000000000E+00  0.61688623833E+03  0.61688623833E+03  0.00000000000E+00 0. -1.
         -1   -1    0    0    0  501 -0.00000000000E+00 -0.00000000000E+00 -0.27478307322E+02  0.27478307322E+02  0.00000000000E+00 0.  1.
         23    2    1    2    0    0  0.56938083862E+02  0.39260467546E+02  0.22891039800E+03  0.26509106918E+03  0.11441142837E+03 0.  0.
          5    1    3    3  502    0  0.62634118564E+02  0.73747677898E+02  0.18445258842E+03  0.20834250689E+03  0.47000000000E+01 0. -1.
         -5    1    3    3    0  502 -0.56960347022E+01 -0.34487210352E+02  0.44457809584E+02  0.56748562292E+02  0.47000000000E+01 0.  1.
        -11    1    1    2    0    0 -0.33673811262E+02  0.25848243989E+02  0.82180167333E+02  0.92496687428E+02  0.00000000000E+00 0.  1.
         11    1    1    2    0    0 -0.23264272600E+02 -0.65108711535E+02  0.27831736567E+03  0.28677678904E+03  0.00000000000E+00 0. -1.
<mgrwt>
<rscale>  0 0.12954308E+03</rscale>
<asrwt>0</asrwt>
<pdfrwt beam="1">  1        1 0.94905564E-01 0.13369108E+03</pdfrwt>
<pdfrwt beam="2">  1       -1 0.42274324E-02 0.13369108E+03</pdfrwt>
<totfact> 0.73515627E+03</totfact>
</mgrwt>
</event>
<event>
 7    1  0.6387485E-006  0.1259575E+03  0.7546771E-02  0.1248453E+00
         -1   -1    0    0    0  501 -0.00000000000E+00  0.00000000000E+00  0.54829114272E+02  0.54829114272E+02  0.00000000000E+00 0.  1.
          1   -1    0    0  501    0  0.00000000000E+00 -0.00000000000E+00 -0.23685872629E+03  0.23685872629E+03  0.00000000000E+00 0. -1.
         23    2    1    2    0    0  0.14343859041E+02  0.63745481319E+01 -0.63899237220E+02  0.14123880923E+03  0.12497562787E+03 0.  0.
          5    1    3    3  502    0  0.67200803231E+02  0.14578996932E+02 -0.51739272806E+02  0.86183162259E+02  0.47000000000E+01 0. -1.
         -5    1    3    3    0  502 -0.52856944190E+02 -0.82044488002E+01 -0.12159964413E+02  0.55055646974E+02  0.47000000000E+01 0. -1.
        -11    1    1    2    0    0 -0.38281269579E+02  0.33313028029E+01 -0.10601986989E+02  0.39861702260E+02  0.00000000000E+00 0.  1.
         11    1    1    2    0    0  0.23937410538E+02 -0.97058509348E+01 -0.10752838781E+03  0.11058732907E+03  0.00000000000E+00 0. -1.
<mgrwt>
<rscale>  0 0.11681100E+03</rscale>
<asrwt>0</asrwt>
<pdfrwt beam="2">  1        1 0.36439804E-01 0.12595749E+03</pdfrwt>
<pdfrwt beam="1">  1       -1 0.84352484E-02 0.12595749E+03</pdfrwt>
<totfact> 0.88286659E+03</totfact>
</mgrwt>
</event>
<event>
 7    1  0.6387485E-006  0.1662208E+03  0.7546771E-02  0.1188835E+00
          2   -1    0    0  501    0  0.00000000000E+00  0.00000000000E+00  0.69266306549E+03  0.69266306549E+03  0.00000000000E+00 0. -1.
         -2   -1    0    0    0  501 -0.00000000000E+00 -0.00000000000E+00 -0.36277770780E+02  0.36277770780E+02  0.00000000000E+00 0.  1.
         23    2    1    2    0    0 -0.33293735107E+02 -0.10437366586E+03  0.26847884194E+03  0.31576929891E+03  0.12500810632E+03 0.  0.
          5    1    3    3  502    0  0.38323023172E+02 -0.52232908466E+02  0.17608036103E+03  0.18767875312E+03  0.47000000000E+01 0.  1.
         -5    1    3    3    0  502 -0.71616758279E+02 -0.52140757395E+02  0.92398480912E+02  0.12809054580E+03  0.47000000000E+01 0.  1.
        -11    1    1    2    0    0 -0.26691902944E+02  0.21295299691E+02  0.15505214986E+03  0.15876749242E+03  0.00000000000E+00 0.  1.
         11    1    1    2    0    0  0.59985638050E+02  0.83078366170E+02  0.23285430291E+03  0.25440404494E+03  0.00000000000E+00 0. -1.
<mgrwt>
<rscale>  0 0.15987793E+03</rscale>
<asrwt>0</asrwt>
<pdfrwt beam="1">  1        2 0.10656354E+00 0.16622082E+03</pdfrwt>
<pdfrwt beam="2">  1       -2 0.55811960E-02 0.16622082E+03</pdfrwt>
<totfact> 0.68468985E+03</totfact>
</mgrwt>
</event>
<event>
 6    1  0.6387485E-006  0.1702332E+03  0.7546771E-02  0.1203936E+00
         -1   -1    0    0    0  501 -0.00000000000E+00  0.00000000000E+00  0.15799675978E+03  0.15799675978E+03  0.00000000000E+00 0.  1.
          1   -1    0    0  501    0  0.00000000000E+00 -0.00000000000E+00 -0.17070507660E+03  0.17070507660E+03  0.00000000000E+00 0. -1.
          5    1    1    2  502    0  0.39312399734E+02 -0.63397918229E+02  0.31778403824E+02  0.81220180732E+02  0.47000000000E+01 0. -1.
         -5    1    1    2    0  502 -0.39020142811E+02  0.86597973243E+02  0.54932408907E+02  0.10982458770E+03  0.47000000000E+01 0.  1.
        -11    1    1    2    0    0 -0.80267873021E+00  0.35562293913E+02 -0.46746345907E+02  0.58741313377E+02  0.00000000000E+00 0.  1.
         11    1    1    2    0    0  0.51042180788E+00 -0.58762348928E+02 -0.52672783643E+02  0.78915754565E+02  0.00000000000E+00 0. -1.
<mgrwt>
<rscale>  0 0.14721633E+03</rscale>
<asrwt>0</asrwt>
<pdfrwt beam="2">  1        1 0.26262319E-01 0.17023319E+03</pdfrwt>
<pdfrwt beam="1">  1       -1 0.24307194E-01 0.17023319E+03</pdfrwt>
<totfact> 0.25670821E+03</totfact>
</mgrwt>
</event>
<event>
 7    1  0.6387485E-006  0.2448342E+03  0.7546771E-02  0.1119129E+00
         -2   -1    0    0    0  501 -0.00000000000E+00  0.00000000000E+00  0.11536498581E+03  0.11536498581E+03  0.00000000000E+00 0. -1.
          2   -1    0    0  501    0  0.00000000000E+00 -0.00000000000E+00 -0.48872940718E+03  0.48872940718E+03  0.00000000000E+00 0.  1.
         23    2    1    2    0    0  0.20656160101E+03 -0.40639049664E+02 -0.18350531655E+03  0.30597055721E+03  0.12499821321E+03 0.  0.
          5    1    3    3  502    0  0.21022779078E+02 -0.33777236195E+02 -0.88962310897E+02  0.97566601280E+02  0.47000000000E+01 0.  1.
         -5    1    3    3    0  502  0.18553882193E+03 -0.68618134688E+01 -0.94543005654E+02  0.20840395593E+03  0.47000000000E+01 0.  1.
        -11    1    1    2    0    0 -0.13077788156E+03  0.34102462081E+01 -0.61678535918E+02  0.14463307325E+03  0.00000000000E+00 0. -1.
         11    1    1    2    0    0 -0.75783719451E+02  0.37228803456E+02 -0.12818056890E+03  0.15349076253E+03  0.00000000000E+00 0.  1.
<mgrwt>
<rscale>  0 0.24099915E+03</rscale>
<asrwt>0</asrwt>
<pdfrwt beam="2">  1        2 0.75189139E-01 0.24483419E+03</pdfrwt>
<pdfrwt beam="1">  1       -2 0.17748459E-01 0.24483419E+03</pdfrwt>
<totfact> 0.16433989E+03</totfact>
</mgrwt>
</event>
<event>
 7    1  0.6387485E-006  0.1205288E+03  0.7546771E-02  0.1291161E+00
         -2   -1    0    0    0  501 -0.00000000000E+00  0.00000000000E+00  0.76179190395E+02  0.76179190395E+02  0.00000000000E+00 0.  1.
          2   -1    0    0  501    0  0.00000000000E+00 -0.00000000000E+00 -0.10360552927E+03  0.10360552927E+03  0.00000000000E+00 0. -1.
         23    2    1    2    0    0  0.34235490010E+02 -0.25686460778E+02  0.87489978972E+01  0.12084588141E+03  0.11267350641E+03 0.  0.
          5    1    3    3  502    0  0.44298224743E+02  0.26700209389E+02  0.33550828786E+02  0.61830267742E+02  0.47000000000E+01 0. -1.
         -5    1    3    3    0  502 -0.10062734733E+02 -0.52386670167E+02 -0.24801830889E+02  0.59015613670E+02  0.47000000000E+01 0.  1.
        -11    1    1    2    0    0 -0.86133674908E+01  0.12686368531E+02 -0.22220208088E+02  0.26997623849E+02  0.00000000000E+00 0. -1.
         11    1    1    2    0    0 -0.25622122519E+02  0.13000092247E+02 -0.13955128680E+02  0.31941214399E+02  0.00000000000E+00 0.  1.
<mgrwt>
<rscale>  0 0.95006552E+02</rscale>
<asrwt>0</asrwt>
<pdfrwt beam="2">  1        2 0.15939312E-01 0.12052876E+03</pdfrwt>
<pdfrwt beam="1">  1       -2 0.11719875E-01 0.12052876E+03</pdfrwt>
<totfact> 0.17108149E+04</totfact>
</mgrwt>
</event>
<event>
 7    1  0.6387485E-006  0.1425757E+03  0.7546771E-02  0.1219468E+00
         -1   -1    0    0    0  501 -0.00000000000E+00  0.00000000000E+00  0.99961767860E+02  0.99961767860E+02  0.00000000000E+00 0.  1.
          1   -1    0    0  501    0  0.00000000000E+00 -0.00000000000E+00 -0.17526623989E+03  0.17526623989E+03  0.00000000000E+00 0. -1.
         23    2    1    2    0    0 -0.48050719099E+02 -0.48921284587E+02 -0.12969222035E+02  0.14316434506E+03  0.12500266111E+03 0.  0.
          5    1    3    3  502    0  0.36218572637E+02 -0.28671052609E+02 -0.29219560341E+02  0.54860613996E+02  0.47000000000E+01 0.  1.
         -5    1    3    3    0  502 -0.84269291736E+02 -0.20250231978E+02  0.16250338305E+02  0.88303731064E+02  0.47000000000E+01 0.  1.
        -11    1    1    2    0    0  0.28688882972E+02 -0.13678462836E+02 -0.58316251531E+02  0.66414889478E+02  0.00000000000E+00 0. -1.
         11    1    1    2    0    0  0.19361836127E+02  0.62599747423E+02 -0.40189984645E+01  0.65648773213E+02  0.00000000000E+00 0.  1.
<mgrwt>
<rscale>  0 0.13553363E+03</rscale>
<asrwt>0</asrwt>
<pdfrwt beam="2">  1        1 0.26964037E-01 0.14257570E+03</pdfrwt>
<pdfrwt beam="1">  1       -1 0.15378734E-01 0.14257570E+03</pdfrwt>
<totfact> 0.51371229E+03</totfact>
</mgrwt>
</event>
<event>
 7    1  0.6387485E-006  0.1279547E+03  0.7546771E-02  0.1242985E+00
         -3   -1    0    0    0  501 -0.00000000000E+00  0.00000000000E+00  0.16932840939E+03  0.16932840939E+03  0.00000000000E+00 0.  1.
          3   -1    0    0  501    0  0.00000000000E+00 -0.00000000000E+00 -0.76410328731E+02  0.76410328731E+02  0.00000000000E+00 0. -1.
         23    2    1    2    0    0 -0.26199896701E+02  0.80335168919E+01  0.58909729481E+02  0.14086431074E+03  0.12498570252E+03 0.  0.
          5    1    3    3  502    0  0.34349664925E+01 -0.54956266889E+02  0.41055087498E+02  0.68844756334E+02  0.47000000000E+01 0. -1.
         -5    1    3    3    0  502 -0.29634863193E+02  0.62989783781E+02  0.17854641983E+02  0.72019554411E+02  0.47000000000E+01 0. -1.
        -11    1    1    2    0    0 -0.25144581102E+02 -0.31181104359E+02  0.26562521657E+02  0.48063278963E+02  0.00000000000E+00 0.  1.
         11    1    1    2    0    0  0.51344477803E+02  0.23147587468E+02  0.74458295164E+01  0.56811148409E+02  0.00000000000E+00 0. -1.
<mgrwt>
<rscale>  0 0.12006819E+03</rscale>
<asrwt>0</asrwt>
<pdfrwt beam="2">  1        3 0.11755435E-01 0.12795467E+03</pdfrwt>
<pdfrwt beam="1">  1       -3 0.26050524E-01 0.12795467E+03</pdfrwt>
<totfact> 0.17804702E+03</totfact>
</mgrwt>
</event>
<event>
 7    1  0.6387485E-006  0.1747309E+03  0.7546771E-02  0.1179601E+00
         -1   -1    0    0    0  501 -0.00000000000E+00  0.00000000000E+00  0.14233346831E+03  0.14233346831E+03  0.00000000000E+00 0.  1.
          1   -1    0    0  501    0  0.00000000000E+00 -0.00000000000E+00 -0.23251099647E+03  0.23251099647E+03  0.00000000000E+00 0. -1.
         23    2    1    2    0    0 -0.85367493125E+02  0.87289961268E+02  0.36057269937E+02  0.17841244896E+03  0.12499491592E+03 0.  0.
          5    1    3    3  502    0 -0.10172395584E+03  0.10561535796E+03  0.42199023644E+02  0.15266045534E+03  0.47000000000E+01 0. -1.
         -5    1    3    3    0  502  0.16356462719E+02 -0.18325396688E+02 -0.61417537075E+01  0.25751993613E+02  0.47000000000E+01 0. -1.
        -11    1    1    2    0    0  0.19341722764E+02 -0.70173371667E+02 -0.99246763020E+02  0.12307852900E+03  0.00000000000E+00 0. -1.
         11    1    1    2    0    0  0.66025770361E+02 -0.17116589601E+02 -0.26988035076E+02  0.73353486820E+02  0.00000000000E+00 0.  1.
<mgrwt>
<rscale>  0 0.16832999E+03</rscale>
<asrwt>0</asrwt>
<pdfrwt beam="2">  1        1 0.35770922E-01 0.17473087E+03</pdfrwt>
<pdfrwt beam="1">  1       -1 0.21897457E-01 0.17473087E+03</pdfrwt>
<totfact> 0.20704497E+03</totfact>
</mgrwt>
</event>
<event>
 7    1  0.6387485E-006  0.1189524E+03  0.7546771E-02  0.1256952E+00
          3   -1    0    0  501    0  0.00000000000E+00  0.00000000000E+00  0.30891455575E+02  0.30891455575E+02  0.00000000000E+00 0. -1.
         -3   -1    0    0    0  501 -0.00000000000E+00 -0.00000000000E+00 -0.70322551117E+03  0.70322551117E+03  0.00000000000E+00 0.  1.
         23    2    1    2    0    0 -0.40555322668E+01  0.16989763351E+02 -0.61076486084E+03  0.62224061656E+03  0.11766295191E+03 0.  0.
          5    1    3    3  502    0 -0.42152699356E+02 -0.30317561401E+02 -0.18747805624E+03  0.19459217909E+03  0.47000000000E+01 0. -1.
         -5    1    3    3    0  502  0.38097167089E+02  0.47307324752E+02 -0.42328680461E+03  0.42764843747E+03  0.47000000000E+01 0.  1.
        -11    1    1    2    0    0  0.12573342819E+02 -0.53202332158E+02 -0.26502766744E+02  0.60753384611E+02  0.00000000000E+00 0. -1.
         11    1    1    2    0    0 -0.85178105519E+01  0.36212568807E+02 -0.35066428011E+02  0.51122965580E+02  0.00000000000E+00 0.  1.
<mgrwt>
<rscale>  0 0.11197704E+03</rscale>
<asrwt>0</asrwt>
<pdfrwt beam="1">  1        3 0.47525319E-02 0.11895238E+03</pdfrwt>
<pdfrwt beam="2">  1       -3 0.10818853E+00 0.11895238E+03</pdfrwt>
<totfact> 0.42510747E+02</totfact>
</mgrwt>
</event>
<event>
 7    1  0.6387485E-006  0.1325086E+03  0.7546771E-02  0.1237159E+00
         -2   -1    0    0    0  501 -0.00000000000E+00  0.00000000000E+00  0.28926084035E+02  0.28926084035E+02  0.00000000000E+00 0. -1.
          2   -1    0    0  501    0  0.00000000000E+00 -0.00000000000E+00 -0.48556191211E+03  0.48556191211E+03  0.00000000000E+00 0.  1.
         23    2    1    2    0    0 -0.57981686863E+01 -0.43585067969E+02 -0.21211737352E+03  0.25010461486E+03  0.12500104527E+03 0.  0.
          5    1    3    3  502    0 -0.58241353700E+02  0.75451401190E+01 -0.10129492771E+03  0.11718249357E+03  0.47000000000E+01 0. -1.
         -5    1    3    3    0  502  0.52443185013E+02 -0.51130208088E+02 -0.11082244581E+03  0.13292212129E+03  0.47000000000E+01 0. -1.
        -11    1    1    2    0    0 -0.41201910243E+02  0.30376360213E+02 -0.13873934815E+03  0.14788146399E+03  0.00000000000E+00 0.  1.
         11    1    1    2    0    0  0.47000078929E+02  0.13208707755E+02 -0.10577910641E+03  0.11650191729E+03  0.00000000000E+00 0. -1.
<mgrwt>
<rscale>  0 0.12367253E+03</rscale>
<asrwt>0</asrwt>
<pdfrwt beam="2">  1        2 0.74701836E-01 0.13250863E+03</pdfrwt>
<pdfrwt beam="1">  1       -2 0.44501666E-02 0.13250863E+03</pdfrwt>
<totfact> 0.14206575E+04</totfact>
</mgrwt>
</event>
<event>
 7    1  0.6387485E-006  0.1271719E+03  0.7546771E-02  0.1243697E+00
          1   -1    0    0  501    0  0.00000000000E+00  0.00000000000E+00  0.84603800441E+02  0.84603800441E+02  0.00000000000E+00 0. -1.
         -1   -1    0    0    0  501 -0.00000000000E+00 -0.00000000000E+00 -0.24736334330E+03  0.24736334330E+03  0.00000000000E+00 0.  1.
         23    2    1    2    0    0 -0.20006755765E+02 -0.12153238486E+02 -0.19006483455E+03  0.22868611301E+03  0.12499890187E+03 0.  0.
          5    1    3    3  502    0  0.32274769836E+02 -0.23256175202E+02 -0.10690718601E+02  0.41459521430E+02  0.47000000000E+01 0. -1.
         -5    1    3    3    0  502 -0.52281525601E+02  0.11102936716E+02 -0.17937411594E+03  0.18722659158E+03  0.47000000000E+01 0. -1.
        -11    1    1    2    0    0  0.80160664456E+00 -0.12253186981E+02 -0.33130312340E+02  0.35332715154E+02  0.00000000000E+00 0.  1.
         11    1    1    2    0    0  0.19205149120E+02  0.24406425467E+02  0.60435604024E+02  0.67948315583E+02  0.00000000000E+00 0. -1.
<mgrwt>
<rscale>  0 0.11963686E+03</rscale>
<asrwt>0</asrwt>
<pdfrwt beam="1">  1        1 0.13015969E-01 0.12717192E+03</pdfrwt>
<pdfrwt beam="2">  1       -1 0.38055899E-01 0.12717192E+03</pdfrwt>
<totfact> 0.29208856E+03</totfact>
</mgrwt>
</event>
<event>
 7    1  0.6387485E-006  0.1401979E+03  0.7546771E-02  0.1224475E+00
          1   -1    0    0  501    0  0.00000000000E+00  0.00000000000E+00  0.51617387045E+02  0.51617387045E+02  0.00000000000E+00 0. -1.
         -1   -1    0    0    0  501 -0.00000000000E+00 -0.00000000000E+00 -0.31105210677E+03  0.31105210677E+03  0.00000000000E+00 0.  1.
         23    2    1    2    0    0 -0.48708231138E+02  0.40724121825E+02 -0.17226616053E+03  0.22210599139E+03  0.12499798186E+03 0.  0.
          5    1    3    3  502    0 -0.29460016891E+02 -0.41139707125E+02 -0.37390875339E+02  0.63091486400E+02  0.47000000000E+01 0.  1.
         -5    1    3    3    0  502 -0.19248214247E+02  0.81863828950E+02 -0.13487528519E+03  0.15901450499E+03  0.47000000000E+01 0.  1.
        -11    1    1    2    0    0  0.58070941950E+02 -0.61804559646E+02 -0.55374442645E+02  0.10128359586E+03  0.00000000000E+00 0. -1.
         11    1    1    2    0    0 -0.93627108121E+01  0.21080437820E+02 -0.31794116548E+02  0.39279906562E+02  0.00000000000E+00 0.  1.
<mgrwt>
<rscale>  0 0.13202969E+03</rscale>
<asrwt>0</asrwt>
<pdfrwt beam="1">  1        1 0.79411363E-02 0.14019786E+03</pdfrwt>
<pdfrwt beam="2">  1       -1 0.47854171E-01 0.14019786E+03</pdfrwt>
<totfact> 0.37633297E+03</totfact>
</mgrwt>
</event>
<event>
 7    1  0.6387485E-006  0.1973774E+03  0.7546771E-02  0.1156461E+00
         -1   -1    0    0    0  501 -0.00000000000E+00  0.00000000000E+00  0.51321437270E+02  0.51321437270E+02  0.00000000000E+00 0.  1.
          1   -1    0    0  501    0  0.00000000000E+00 -0.00000000000E+00 -0.68514713999E+03  0.68514713999E+03  0.00000000000E+00 0. -1.
         23    2    1    2    0    0  0.14753669774E+03 -0.39547235855E+02 -0.34029179637E+03  0.39339084959E+03  0.12500717107E+03 0.  0.
          5    1    3    3  502    0  0.63290439950E+02 -0.58896960017E+02 -0.75739344398E+02  0.11503508151E+03  0.47000000000E+01 0. -1.
         -5    1    3    3    0  502  0.84246257793E+02  0.19349724161E+02 -0.26455245198E+03  0.27835576808E+03  0.47000000000E+01 0. -1.
        -11    1    1    2    0    0 -0.33796228448E+02  0.17828509025E+02 -0.14321760836E+02  0.40806293936E+02  0.00000000000E+00 0.  1.
         11    1    1    2    0    0 -0.11374046930E+03  0.21718726830E+02 -0.27921214551E+03  0.30227143373E+03  0.00000000000E+00 0. -1.
<mgrwt>
<rscale>  0 0.19223442E+03</rscale>
<asrwt>0</asrwt>
<pdfrwt beam="2">  1        1 0.10540725E+00 0.19737744E+03</pdfrwt>
<pdfrwt beam="1">  1       -1 0.78956062E-02 0.19737744E+03</pdfrwt>
<totfact> 0.25337677E+03</totfact>
</mgrwt>
</event>
<event>
 7    1  0.6387485E-006  0.1846986E+03  0.7546771E-02  0.1168659E+00
         -1   -1    0    0    0  501 -0.00000000000E+00  0.00000000000E+00  0.28411604667E+03  0.28411604667E+03  0.00000000000E+00 0.  1.
          1   -1    0    0  501    0  0.00000000000E+00 -0.00000000000E+00 -0.11829237030E+03  0.11829237030E+03  0.00000000000E+00 0. -1.
         23    2    1    2    0    0 -0.11030054081E+03  0.79523164761E+02  0.15063209477E+03  0.23833506850E+03  0.12499373530E+03 0.  0.
          5    1    3    3  502    0 -0.40656416756E+02 -0.11050176460E+01 -0.13053949560E+02  0.42972792399E+02  0.47000000000E+01 0.  1.
         -5    1    3    3    0  502 -0.69644124057E+02  0.80628182407E+02  0.16368604433E+03  0.19536227610E+03  0.47000000000E+01 0.  1.
        -11    1    1    2    0    0  0.12379852324E+03 -0.79179865048E+02  0.47953707831E+01  0.14703238067E+03  0.00000000000E+00 0.  1.
         11    1    1    2    0    0 -0.13497982426E+02 -0.34329971318E+00  0.10396210813E+02  0.17040967799E+02  0.00000000000E+00 0. -1.
<mgrwt>
<rscale>  0 0.17911825E+03</rscale>
<asrwt>0</asrwt>
<pdfrwt beam="2">  1        1 0.18198826E-01 0.18469861E+03</pdfrwt>
<pdfrwt beam="1">  1       -1 0.43710161E-01 0.18469861E+03</pdfrwt>
<totfact> 0.15031916E+03</totfact>
</mgrwt>
</event>
<event>
 7    1  0.6387485E-006  0.1966403E+03  0.7546771E-02  0.1156811E+00
          1   -1    0    0  501    0  0.00000000000E+00  0.00000000000E+00  0.72567696552E+03  0.72567696552E+03  0.00000000000E+00 0. -1.
         -1   -1    0    0    0  501 -0.00000000000E+00 -0.00000000000E+00 -0.48492501335E+02  0.48492501335E+02  0.00000000000E+00 0.  1.
         23    2    1    2    0    0 -0.83053710797E+01 -0.15156854854E+03  0.37317030151E+03  0.42180975125E+03  0.12500155290E+03 0.  0.
          5    1    3    3  502    0  0.22525010241E+02  0.79760348677E+01  0.10851654689E+03  0.11121566512E+03  0.47000000000E+01 0.  1.
         -5    1    3    3    0  502 -0.30830381321E+02 -0.15954458341E+03  0.26465375462E+03  0.31059408614E+03  0.47000000000E+01 0.  1.
        -11    1    1    2    0    0 -0.39094413099E+02  0.88420533309E+02  0.19618760257E+03  0.21871474402E+03  0.00000000000E+00 0. -1.
         11    1    1    2    0    0  0.47399784179E+02  0.63148015231E+02  0.10782656010E+03  0.13364497159E+03  0.00000000000E+00 0.  1.
<mgrwt>
<rscale>  0 0.19184161E+03</rscale>
<asrwt>0</asrwt>
<pdfrwt beam="1">  1        1 0.11164260E+00 0.19664026E+03</pdfrwt>
<pdfrwt beam="2">  1       -1 0.74603853E-02 0.19664026E+03</pdfrwt>
<totfact> 0.25402953E+03</totfact>
</mgrwt>
</event>
<event>
 7    1  0.6387485E-006  0.1547076E+03  0.7546771E-02  0.1204453E+00
         -1   -1    0    0    0  501 -0.00000000000E+00  0.00000000000E+00  0.10472633546E+04  0.10472633546E+04  0.00000000000E+00 0.  1.
          1   -1    0    0  501    0  0.00000000000E+00 -0.00000000000E+00 -0.22933538651E+02  0.22933538651E+02  0.00000000000E+00 0. -1.
         23    2    1    2    0    0  0.23433273073E+02  0.88079661158E+02  0.78378630787E+03  0.79890889111E+03  0.12500917927E+03 0.  0.
          5    1    3    3  502    0 -0.49131417251E+01 -0.26316967772E+02  0.64155866687E+02  0.69676301457E+02  0.47000000000E+01 0.  1.
         -5    1    3    3    0  502  0.28346414798E+02  0.11439662893E+03  0.71963044118E+03  0.72923258965E+03  0.47000000000E+01 0.  1.
        -11    1    1    2    0    0 -0.45482563777E+02 -0.22370359481E+02  0.14228963288E+03  0.15104779447E+03  0.00000000000E+00 0.  1.
         11    1    1    2    0    0  0.22049290704E+02 -0.65709301677E+02  0.98253875223E+02  0.12024020768E+03  0.00000000000E+00 0. -1.
<mgrwt>
<rscale>  0 0.14680658E+03</rscale>
<asrwt>0</asrwt>
<pdfrwt beam="2">  1        1 0.35282375E-02 0.15470759E+03</pdfrwt>
<pdfrwt beam="1">  1       -1 0.16111740E+00 0.15470759E+03</pdfrwt>
<totfact> 0.83677191E+02</totfact>
</mgrwt>
</event>
<event>
 7    1  0.6387485E-006  0.1417254E+03  0.7546771E-02  0.1221357E+00
         -2   -1    0    0    0  501 -0.00000000000E+00  0.00000000000E+00  0.29772416259E+02  0.29772416259E+02  0.00000000000E+00 0. -1.
          2   -1    0    0  501    0  0.00000000000E+00 -0.00000000000E+00 -0.57860380416E+03  0.57860380416E+03  0.00000000000E+00 0.  1.
         23    2    1    2    0    0 -0.50421792213E+02 -0.43826277328E+02 -0.23409505041E+03  0.27365413474E+03  0.12499197222E+03 0.  0.
          5    1    3    3  502    0 -0.28099415972E+02  0.26617812180E+01 -0.21735769373E+03  0.21923302507E+03  0.47000000000E+01 0.  1.
         -5    1    3    3    0  502 -0.22322376241E+02 -0.46488058546E+02 -0.16737356672E+02  0.54421109662E+02  0.47000000000E+01 0.  1.
        -11    1    1    2    0    0  0.18334290875E+02 -0.14607922231E+02 -0.15390425054E+02  0.28042874267E+02  0.00000000000E+00 0. -1.
         11    1    1    2    0    0  0.32087501338E+02  0.58434199560E+02 -0.29934591244E+03  0.30667921142E+03  0.00000000000E+00 0.  1.
<mgrwt>
<rscale>  0 0.13419761E+03</rscale>
<asrwt>0</asrwt>
<pdfrwt beam="2">  1        2 0.89015976E-01 0.14172541E+03</pdfrwt>
<pdfrwt beam="1">  1       -2 0.45803714E-02 0.14172541E+03</pdfrwt>
<totfact> 0.11256139E+04</totfact>
</mgrwt>
</event>
<event>
 7    1  0.6387485E-006  0.2507265E+03  0.7546771E-02  0.1115401E+00
          1   -1    0    0  501    0  0.00000000000E+00  0.00000000000E+00  0.23221615300E+03  0.23221615300E+03  0.00000000000E+00 0. -1.
         -1   -1    0    0    0  501 -0.00000000000E+00 -0.00000000000E+00 -0.38690392715E+03  0.38690392715E+03  0.00000000000E+00 0.  1.
         23    2    1    2    0    0 -0.95477426605E+02 -0.19525572149E+03 -0.26031799827E+03  0.36142669982E+03  0.12499225319E+03 0.  0.
          5    1    3    3  502    0 -0.11950048667E+03 -0.12278716972E+03 -0.20394296328E+03  0.26640547598E+03  0.47000000000E+01 0. -1.
         -5    1    3    3    0  502  0.24023060065E+02 -0.72468551768E+02 -0.56375034990E+02  0.95021223842E+02  0.47000000000E+01 0. -1.
        -11    1    1    2    0    0  0.24196472287E+02  0.11892800170E+03  0.92163941948E+02  0.15239268701E+03  0.00000000000E+00 0.  1.
         11    1    1    2    0    0  0.71280954318E+02  0.76327719788E+02  0.13466282172E+02  0.10530069331E+03  0.00000000000E+00 0. -1.
<mgrwt>
<rscale>  0 0.24671181E+03</rscale>
<asrwt>0</asrwt>
<pdfrwt beam="1">  1        1 0.35725562E-01 0.25072654E+03</pdfrwt>
<pdfrwt beam="2">  1       -1 0.59523682E-01 0.25072654E+03</pdfrwt>
<totfact> 0.36029068E+02</totfact>
</mgrwt>
</event>
<event>
 7    1  0.6387485E-006  0.1374067E+03  0.7546771E-02  0.1229312E+00
         -1   -1    0    0    0  501 -0.00000000000E+00  0.00000000000E+00  0.45212866745E+02  0.45212866745E+02  0.00000000000E+00 0.  1.
          1   -1    0    0  501    0  0.00000000000E+00 -0.00000000000E+00 -0.33560838514E+03  0.33560838514E+03  0.00000000000E+00 0. -1.
         23    2    1    2    0    0 -0.99439369870E+01 -0.56187332200E+02 -0.13404557797E+03  0.19196047058E+03  0.12499882844E+03 0.  0.
          5    1    3    3  502    0 -0.16128420563E+02  0.26335688013E+02 -0.95631226923E+02  0.10060375726E+03  0.47000000000E+01 0. -1.
         -5    1    3    3    0  502  0.61844835763E+01 -0.82523020213E+02 -0.38414351044E+02  0.91356713318E+02  0.47000000000E+01 0. -1.
        -11    1    1    2    0    0 -0.38618296910E+02  0.36693521930E+02 -0.71315013562E+02  0.89014709836E+02  0.00000000000E+00 0.  1.
         11    1    1    2    0    0  0.48562233897E+02  0.19493810270E+02 -0.85034926866E+02  0.99846071465E+02  0.00000000000E+00 0. -1.
<mgrwt>
<rscale>  0 0.12875676E+03</rscale>
<asrwt>0</asrwt>
<pdfrwt beam="2">  1        1 0.51632060E-01 0.13740671E+03</pdfrwt>
<pdfrwt beam="1">  1       -1 0.69558255E-02 0.13740671E+03</pdfrwt>
<totfact> 0.77171897E+03</totfact>
</mgrwt>
</event>
<event>
 7    1  0.6387485E-006  0.2389866E+03  0.7546771E-02  0.1123459E+00
         -2   -1    0    0    0  501 -0.00000000000E+00  0.00000000000E+00  0.51588878110E+02  0.51588878110E+02  0.00000000000E+00 0.  1.
          2   -1    0    0  501    0  0.00000000000E+00 -0.00000000000E+00 -0.10741879525E+04  0.10741879525E+04  0.00000000000E+00 0. -1.
         23    2    1    2    0    0  0.13615259992E+03  0.15149918327E+03 -0.41425418798E+03  0.47824799716E+03  0.12500032614E+03 0.  0.
          5    1    3    3  502    0 -0.11017118413E+02  0.12230197685E+01  0.16549073099E+01  0.12153246220E+02  0.47000000000E+01 0. -1.
         -5    1    3    3    0  502  0.14716971833E+03  0.15027616350E+03 -0.41590909529E+03  0.46609475094E+03  0.47000000000E+01 0. -1.
        -11    1    1    2    0    0 -0.99558192427E+02 -0.10815991074E+03 -0.30083720799E+03  0.33483342976E+03  0.00000000000E+00 0.  1.
         11    1    1    2    0    0 -0.36594407494E+02 -0.43339272532E+02 -0.30750767840E+03  0.31269540367E+03  0.00000000000E+00 0. -1.
<mgrwt>
<rscale>  0 0.23457784E+03</rscale>
<asrwt>0</asrwt>
<pdfrwt beam="2">  1        2 0.16525968E+00 0.23898664E+03</pdfrwt>
<pdfrwt beam="1">  1       -2 0.79367505E-02 0.23898664E+03</pdfrwt>
<totfact> 0.22621131E+03</totfact>
</mgrwt>
</event>
<event>
 7    1  0.6387485E-006  0.1278595E+03  0.7546771E-02  0.1246676E+00
         -1   -1    0    0    0  501 -0.00000000000E+00  0.00000000000E+00  0.73092469485E+02  0.73092469485E+02  0.00000000000E+00 0.  1.
          1   -1    0    0  501    0  0.00000000000E+00 -0.00000000000E+00 -0.16688738852E+03  0.16688738852E+03  0.00000000000E+00 0. -1.
         23    2    1    2    0    0 -0.21526468928E+02 -0.16114452063E+02 -0.44802156381E+02  0.13548170726E+03  0.12499998142E+03 0.  0.
          5    1    3    3  502    0 -0.64132307745E+02 -0.36684060218E+02 -0.47332858034E+02  0.87870146355E+02  0.47000000000E+01 0. -1.
         -5    1    3    3    0  502  0.42605838817E+02  0.20569608155E+02  0.25307016534E+01  0.47611560905E+02  0.47000000000E+01 0. -1.
        -11    1    1    2    0    0  0.43551387728E+02  0.40327958462E+02 -0.34950335988E+02  0.68881010390E+02  0.00000000000E+00 0.  1.
         11    1    1    2    0    0 -0.22024918799E+02 -0.24213506399E+02 -0.14042426663E+02  0.35617140351E+02  0.00000000000E+00 0. -1.
<mgrwt>
<rscale>  0 0.11785610E+03</rscale>
<asrwt>0</asrwt>
<pdfrwt beam="2">  1        1 0.25674983E-01 0.12785953E+03</pdfrwt>
<pdfrwt beam="1">  1       -1 0.11244995E-01 0.12785953E+03</pdfrwt>
<totfact> 0.88139304E+03</totfact>
</mgrwt>
</event>
<event>
 7    1  0.6387485E-006  0.1319190E+03  0.7546771E-02  0.1238554E+00
         -1   -1    0    0    0  501 -0.00000000000E+00  0.00000000000E+00  0.65551251000E+03  0.65551251000E+03  0.00000000000E+00 0.  1.
          1   -1    0    0  501    0  0.00000000000E+00 -0.00000000000E+00 -0.21835641498E+02  0.21835641498E+02  0.00000000000E+00 0. -1.
         23    2    1    2    0    0  0.42127716928E+02  0.18715163391E+01  0.44654279635E+03  0.46562119631E+03  0.12499752948E+03 0.  0.
          5    1    3    3  502    0  0.41287632094E+01 -0.72809734568E+01 -0.60320987345E+01  0.11337348687E+02  0.47000000000E+01 0. -1.
         -5    1    3    3    0  502  0.37998953719E+02  0.91524897959E+01  0.45257489508E+03  0.45428384762E+03  0.47000000000E+01 0. -1.
        -11    1    1    2    0    0 -0.57227428788E+02 -0.16803532340E+02  0.17951774832E+03  0.18916648558E+03  0.00000000000E+00 0.  1.
         11    1    1    2    0    0  0.15099711860E+02  0.14932016001E+02  0.76163238346E+01  0.22560469606E+02  0.00000000000E+00 0. -1.
<mgrwt>
<rscale>  0 0.12279607E+03</rscale>
<asrwt>0</asrwt>
<pdfrwt beam="2">  1        1 0.33593300E-02 0.13191903E+03</pdfrwt>
<pdfrwt beam="1">  1       -1 0.10084806E+00 0.13191903E+03</pdfrwt>
<totfact> 0.27686529E+03</totfact>
</mgrwt>
</event>
<event>
 7    1  0.6387485E-006  0.1649543E+03  0.7546771E-02  0.1190744E+00
         -1   -1    0    0    0  501 -0.00000000000E+00  0.00000000000E+00  0.27074017240E+02  0.27074017240E+02  0.00000000000E+00 0.  1.
          1   -1    0    0  501    0  0.00000000000E+00 -0.00000000000E+00 -0.91760078938E+03  0.91760078938E+03  0.00000000000E+00 0. -1.
         23    2    1    2    0    0 -0.51834473654E+02  0.94346566798E+02 -0.35814728757E+03  0.39430878159E+03  0.12498739263E+03 0.  0.
          5    1    3    3  502    0 -0.84083074159E+02  0.38126790941E+02 -0.26558549087E+03  0.28121407950E+03  0.47000000000E+01 0.  1.
         -5    1    3    3    0  502  0.32248600506E+02  0.56219775857E+02 -0.92561796704E+02  0.11309470209E+03  0.47000000000E+01 0.  1.
        -11    1    1    2    0    0 -0.16405648679E+02 -0.60676651378E+02 -0.26647118910E+03  0.27378403159E+03  0.00000000000E+00 0. -1.
         11    1    1    2    0    0  0.68240122332E+02 -0.33669915419E+02 -0.26590829546E+03  0.27658199344E+03  0.00000000000E+00 0.  1.
<mgrwt>
<rscale>  0 0.15820022E+03</rscale>
<asrwt>0</asrwt>
<pdfrwt beam="2">  1        1 0.14116934E+00 0.16495434E+03</pdfrwt>
<pdfrwt beam="1">  1       -1 0.41652337E-02 0.16495434E+03</pdfrwt>
<totfact> 0.42140720E+03</totfact>
</mgrwt>
</event>
<event>
 7    1  0.6387485E-006  0.1427456E+03  0.7546771E-02  0.1219727E+00
          1   -1    0    0  501    0  0.00000000000E+00  0.00000000000E+00  0.84444611707E+02  0.84444611707E+02  0.00000000000E+00 0.  1.
         -1   -1    0    0    0  501 -0.00000000000E+00 -0.00000000000E+00 -0.19804590754E+03  0.19804590754E+03  0.00000000000E+00 0. -1.
         23    2    1    2    0    0  0.60266782317E+02 -0.33437495679E+02 -0.71646685007E+02  0.15971714449E+03  0.12500467032E+03 0.  0.
          5    1    3    3  502    0 -0.30889457013E+01 -0.43454727873E+02 -0.83519511417E+02  0.94315713152E+02  0.47000000000E+01 0.  1.
         -5    1    3    3    0  502  0.63355728018E+02  0.10017232194E+02  0.11872826410E+02  0.65401431334E+02  0.47000000000E+01 0.  1.
        -11    1    1    2    0    0 -0.13289887265E+01 -0.13849237254E+02 -0.45048001527E+02  0.47147534667E+02  0.00000000000E+00 0. -1.
         11    1    1    2    0    0 -0.58937793590E+02  0.47286732932E+02  0.30933906954E+01  0.75625840099E+02  0.00000000000E+00 0.  1.
<mgrwt>
<rscale>  0 0.13534964E+03</rscale>
<asrwt>0</asrwt>
<pdfrwt beam="1">  1        1 0.12991479E-01 0.14274564E+03</pdfrwt>
<pdfrwt beam="2">  1       -1 0.30468601E-01 0.14274564E+03</pdfrwt>
<totfact> 0.43096783E+03</totfact>
</mgrwt>
</event>
<event>
 7    1  0.6387485E-006  0.1519262E+03  0.7546771E-02  0.1206545E+00
          1   -1    0    0  501    0  0.00000000000E+00  0.00000000000E+00  0.80897818648E+02  0.80897818648E+02  0.00000000000E+00 0. -1.
         -1   -1    0    0    0  501 -0.00000000000E+00 -0.00000000000E+00 -0.23989378074E+03  0.23989378074E+03  0.00000000000E+00 0.  1.
         23    2    1    2    0    0 -0.83491460980E+02  0.22029409900E+02 -0.90083238983E+02  0.17662544853E+03  0.12500176065E+03 0.  0.
          5    1    3    3  502    0 -0.36062584002E+02  0.70834919814E+02 -0.68613916527E+02  0.10510973014E+03  0.47000000000E+01 0. -1.
         -5    1    3    3    0  502 -0.47428876978E+02 -0.48805509914E+02 -0.21469322456E+02  0.71515718384E+02  0.47000000000E+01 0. -1.
        -11    1    1    2    0    0  0.27445464564E+02 -0.54960390392E+02 -0.37455688554E+02  0.71950167771E+02  0.00000000000E+00 0. -1.
         11    1    1    2    0    0  0.56045996417E+02  0.32930980492E+02 -0.31457034555E+02  0.72215983089E+02  0.00000000000E+00 0.  1.
<mgrwt>
<rscale>  0 0.14516361E+03</rscale>
<asrwt>0</asrwt>
<pdfrwt beam="1">  1        1 0.12445818E-01 0.15192616E+03</pdfrwt>
<pdfrwt beam="2">  1       -1 0.36906735E-01 0.15192616E+03</pdfrwt>
<totfact> 0.32967122E+03</totfact>
</mgrwt>
</event>
<event>
 7    1  0.6387485E-006  0.1321007E+03  0.7546771E-02  0.1238711E+00
          1   -1    0    0  501    0  0.00000000000E+00  0.00000000000E+00  0.74939953176E+02  0.74939953176E+02  0.00000000000E+00 0. -1.
         -1   -1    0    0    0  501 -0.00000000000E+00 -0.00000000000E+00 -0.26805285580E+03  0.26805285580E+03  0.00000000000E+00 0.  1.
         23    2    1    2    0    0  0.38842105923E+02  0.17810265038E+02 -0.20508439603E+03  0.24394712867E+03  0.12499870943E+03 0.  0.
          5    1    3    3  502    0  0.80964124335E+02  0.11350755776E+02 -0.92851914614E+02  0.12380467331E+03  0.47000000000E+01 0.  1.
         -5    1    3    3    0  502 -0.42122018412E+02  0.64595092615E+01 -0.11223248142E+03  0.12014245536E+03  0.47000000000E+01 0.  1.
        -11    1    1    2    0    0  0.10989789852E+02  0.12225178907E+02  0.33251153110E+02  0.37092717121E+02  0.00000000000E+00 0. -1.
         11    1    1    2    0    0 -0.49831895775E+02 -0.30035443945E+02 -0.21279659695E+02  0.61952963176E+02  0.00000000000E+00 0.  1.
<mgrwt>
<rscale>  0 0.12269836E+03</rscale>
<asrwt>0</asrwt>
<pdfrwt beam="1">  1        1 0.11529224E-01 0.13210069E+03</pdfrwt>
<pdfrwt beam="2">  1       -1 0.41238900E-01 0.13210069E+03</pdfrwt>
<totfact> 0.29810522E+03</totfact>
</mgrwt>
</event>
<event>
 7    1  0.6387485E-006  0.2039214E+03  0.7546771E-02  0.1150086E+00
          1   -1    0    0  501    0  0.00000000000E+00  0.00000000000E+00  0.26868711664E+03  0.26868711664E+03  0.00000000000E+00 0. -1.
         -1   -1    0    0    0  501 -0.00000000000E+00 -0.00000000000E+00 -0.16207422987E+03  0.16207422987E+03  0.00000000000E+00 0.  1.
         23    2    1    2    0    0 -0.37402898787E+02  0.15672567463E+03  0.13050401387E+03  0.24210584054E+03  0.12498810528E+03 0.  0.
          5    1    3    3  502    0  0.71565636363E+01 -0.19299550490E+02  0.22164803367E+02  0.30611395925E+02  0.47000000000E+01 0. -1.
         -5    1    3    3    0  502 -0.44559462423E+02  0.17602522512E+03  0.10833921051E+03  0.21149444462E+03  0.47000000000E+01 0. -1.
        -11    1    1    2    0    0 -0.27215748030E+02 -0.82840003720E+02 -0.24224740721E+02  0.90498625515E+02  0.00000000000E+00 0.  1.
         11    1    1    2    0    0  0.64618646817E+02 -0.73885670915E+02  0.33361362139E+00  0.98156880457E+02  0.00000000000E+00 0. -1.
<mgrwt>
<rscale>  0 0.19958910E+03</rscale>
<asrwt>0</asrwt>
<pdfrwt beam="1">  1        1 0.41336480E-01 0.20392141E+03</pdfrwt>
<pdfrwt beam="2">  1       -1 0.24934497E-01 0.20392141E+03</pdfrwt>
<totfact> 0.14015999E+03</totfact>
</mgrwt>
</event>
<event>
 7    1  0.6387485E-006  0.1372722E+03  0.7546771E-02  0.1227336E+00
          3   -1    0    0  501    0  0.00000000000E+00  0.00000000000E+00  0.29964702634E+03  0.29964702634E+03  0.00000000000E+00 0. -1.
         -3   -1    0    0    0  501 -0.00000000000E+00 -0.00000000000E+00 -0.52058849508E+02  0.52058849508E+02  0.00000000000E+00 0.  1.
         23    2    1    2    0    0 -0.25634996976E+02  0.50610377702E+02  0.11572607655E+03  0.17954440549E+03  0.12500042139E+03 0.  0.
          5    1    3    3  502    0  0.43185857267E+02  0.21134636694E+01  0.10575730259E+02  0.44759591900E+02  0.47000000000E+01 0.  1.
         -5    1    3    3    0  502 -0.68820854242E+02  0.48496914032E+02  0.10515034629E+03  0.13478481359E+03  0.47000000000E+01 0.  1.
        -11    1    1    2    0    0 -0.16670302062E+02  0.11634458293E+02 -0.52782491140E-02  0.20328787924E+02  0.00000000000E+00 0.  1.
         11    1    1    2    0    0  0.42305299038E+02 -0.62244835995E+02  0.13186737853E+03  0.15183268243E+03  0.00000000000E+00 0. -1.
<mgrwt>
<rscale>  0 0.13008066E+03</rscale>
<asrwt>0</asrwt>
<pdfrwt beam="1">  1        3 0.46099542E-01 0.13727224E+03</pdfrwt>
<pdfrwt beam="2">  1       -3 0.80090539E-02 0.13727224E+03</pdfrwt>
<totfact> 0.11553276E+03</totfact>
</mgrwt>
</event>
<event>
 7    1  0.6387485E-006  0.1651889E+03  0.7546771E-02  0.1189714E+00
          4   -1    0    0  501    0  0.00000000000E+00  0.00000000000E+00  0.46482658226E+02  0.46482658226E+02  0.00000000000E+00 0. -1.
         -4   -1    0    0    0  501 -0.00000000000E+00 -0.00000000000E+00 -0.55811719095E+03  0.55811719095E+03  0.00000000000E+00 0.  1.
         23    2    1    2    0    0  0.10677651327E+03  0.16037788588E+02 -0.36358386560E+03  0.39935022955E+03  0.12501577527E+03 0.  0.
          5    1    3    3  502    0  0.45234740269E+02 -0.52956031941E+02 -0.12082272316E+03  0.13953760596E+03  0.47000000000E+01 0.  1.
         -5    1    3    3    0  502  0.61541773001E+02  0.68993820529E+02 -0.24276114245E+03  0.25981262359E+03  0.47000000000E+01 0.  1.
        -11    1    1    2    0    0 -0.85463862529E+02  0.89691077184E+01 -0.14941544593E+03  0.17236441679E+03  0.00000000000E+00 0.  1.
         11    1    1    2    0    0 -0.21312650741E+02 -0.25006896306E+02  0.13647788110E+01  0.32885202838E+02  0.00000000000E+00 0. -1.
<mgrwt>
<rscale>  0 0.15910257E+03</rscale>
<asrwt>0</asrwt>
<pdfrwt beam="1">  1        4 0.71511778E-02 0.16518892E+03</pdfrwt>
<pdfrwt beam="2">  1       -4 0.85864188E-01 0.16518892E+03</pdfrwt>
<totfact> 0.27842981E+02</totfact>
</mgrwt>
</event>
<event>
 7    1  0.6387485E-006  0.1773736E+03  0.7546771E-02  0.1176331E+00
         -2   -1    0    0    0  501 -0.00000000000E+00  0.00000000000E+00  0.16932694905E+03  0.16932694905E+03  0.00000000000E+00 0.  1.
          2   -1    0    0  501    0  0.00000000000E+00 -0.00000000000E+00 -0.18393323161E+03  0.18393323161E+03  0.00000000000E+00 0. -1.
         23    2    1    2    0    0 -0.88731795822E+02  0.89237237637E+02  0.51733788460E+02  0.18476409063E+03  0.12499907259E+03 0.  0.
          5    1    3    3  502    0 -0.72267930342E+02  0.11182247935E+03  0.70542760841E+02  0.15074910199E+03  0.47000000000E+01 0.  1.
         -5    1    3    3    0  502 -0.16463865481E+02 -0.22585241718E+02 -0.18808972381E+02  0.34014988638E+02  0.47000000000E+01 0.  1.
        -11    1    1    2    0    0  0.40402310089E+02 -0.93022876471E+02 -0.64079755952E+02  0.11996590070E+03  0.00000000000E+00 0. -1.
         11    1    1    2    0    0  0.48329485733E+02  0.37856388341E+01 -0.22603150709E+01  0.48530189334E+02  0.00000000000E+00 0.  1.
<mgrwt>
<rscale>  0 0.17146295E+03</rscale>
<asrwt>0</asrwt>
<pdfrwt beam="2">  1        2 0.28297420E-01 0.17737357E+03</pdfrwt>
<pdfrwt beam="1">  1       -2 0.26050300E-01 0.17737357E+03</pdfrwt>
<totfact> 0.24247123E+03</totfact>
</mgrwt>
</event>
<event>
 7    1  0.6387485E-006  0.2065775E+03  0.7546771E-02  0.1148296E+00
          2   -1    0    0  501    0  0.00000000000E+00  0.00000000000E+00  0.19114000812E+03  0.19114000812E+03  0.00000000000E+00 0. -1.
         -2   -1    0    0    0  501 -0.00000000000E+00 -0.00000000000E+00 -0.20420276894E+03  0.20420276894E+03  0.00000000000E+00 0.  1.
         23    2    1    2    0    0  0.15701288278E+03  0.48946799738E+02  0.51545024501E+01  0.20664179887E+03  0.12500171831E+03 0.  0.
          5    1    3    3  502    0  0.27143072489E+02  0.57679377308E+02 -0.31604251171E+02  0.71306210409E+02  0.47000000000E+01 0. -1.
         -5    1    3    3    0  502  0.12986981029E+03 -0.87325775699E+01  0.36758753621E+02  0.13533558846E+03  0.47000000000E+01 0. -1.
        -11    1    1    2    0    0 -0.60024339995E+02  0.25211812108E+02 -0.13677052929E+02  0.66525323287E+02  0.00000000000E+00 0.  1.
         11    1    1    2    0    0 -0.96988542782E+02 -0.74158611846E+02 -0.45402103363E+01  0.12217565491E+03  0.00000000000E+00 0. -1.
<mgrwt>
<rscale>  0 0.20171931E+03</rscale>
<asrwt>0</asrwt>
<pdfrwt beam="1">  1        2 0.29406155E-01 0.20657750E+03</pdfrwt>
<pdfrwt beam="2">  1       -2 0.31415811E-01 0.20657750E+03</pdfrwt>
<totfact> 0.16690357E+03</totfact>
</mgrwt>
</event>
<event>
 7    1  0.6387485E-006  0.1275541E+03  0.7546771E-02  0.1245900E+00
          4   -1    0    0  501    0  0.00000000000E+00  0.00000000000E+00  0.34158790064E+03  0.34158790064E+03  0.00000000000E+00 0.  1.
         -4   -1    0    0    0  501 -0.00000000000E+00 -0.00000000000E+00 -0.38150970757E+02  0.38150970757E+02  0.00000000000E+00 0. -1.
         23    2    1    2    0    0  0.86090430737E+01 -0.23897485518E+02  0.12918296555E+03  0.18154415485E+03  0.12499934453E+03 0.  0.
          5    1    3    3  502    0  0.43929467315E+02 -0.28940174686E+02  0.59321776819E+01  0.53147084036E+02  0.47000000000E+01 0. -1.
         -5    1    3    3    0  502 -0.35320424242E+02  0.50426891681E+01  0.12325078787E+03  0.12839707081E+03  0.47000000000E+01 0. -1.
        -11    1    1    2    0    0  0.26291701482E+02  0.42550281407E+02  0.12739130413E+03  0.13685877533E+03  0.00000000000E+00 0.  1.
         11    1    1    2    0    0 -0.34900744556E+02 -0.18652795889E+02  0.46862660198E+02  0.61335941224E+02  0.00000000000E+00 0. -1.
<mgrwt>
<rscale>  0 0.11831676E+03</rscale>
<asrwt>0</asrwt>
<pdfrwt beam="1">  1        4 0.52551983E-01 0.12755407E+03</pdfrwt>
<pdfrwt beam="2">  1       -4 0.58693804E-02 0.12755407E+03</pdfrwt>
<totfact> 0.10501800E+03</totfact>
</mgrwt>
</event>
<event>
 7    1  0.6387485E-006  0.1773479E+03  0.7546771E-02  0.1176221E+00
         -2   -1    0    0    0  501 -0.00000000000E+00  0.00000000000E+00  0.46519559773E+03  0.46519559773E+03  0.00000000000E+00 0.  1.
          2   -1    0    0  501    0  0.00000000000E+00 -0.00000000000E+00 -0.59921582392E+02  0.59921582392E+02  0.00000000000E+00 0. -1.
         23    2    1    2    0    0 -0.11229180203E+03  0.56721732012E+02  0.23842862176E+03  0.29715400082E+03  0.12500195535E+03 0.  0.
          5    1    3    3  502    0 -0.11651860524E+03  0.84324628258E+02  0.16778100326E+03  0.22104249219E+03  0.47000000000E+01 0. -1.
         -5    1    3    3    0  502  0.42268032005E+01 -0.27602896247E+02  0.70647618500E+02  0.76111508632E+02  0.47000000000E+01 0. -1.
        -11    1    1    2    0    0  0.56398969611E+02 -0.77045047682E+02  0.11049307098E+03  0.14603253706E+03  0.00000000000E+00 0. -1.
         11    1    1    2    0    0  0.55892832423E+02  0.20323315670E+02  0.56352322591E+02  0.81930642238E+02  0.00000000000E+00 0.  1.
<mgrwt>
<rscale>  0 0.17156903E+03</rscale>
<asrwt>0</asrwt>
<pdfrwt beam="2">  1        2 0.92187053E-02 0.17734794E+03</pdfrwt>
<pdfrwt beam="1">  1       -2 0.71568551E-01 0.17734794E+03</pdfrwt>
<totfact> 0.12692258E+03</totfact>
</mgrwt>
</event>
<event>
 7    1  0.6387485E-006  0.1332728E+03  0.7546771E-02  0.1235672E+00
         -2   -1    0    0    0  501 -0.00000000000E+00  0.00000000000E+00  0.59907953633E+02  0.59907953633E+02  0.00000000000E+00 0.  1.
          2   -1    0    0  501    0  0.00000000000E+00 -0.00000000000E+00 -0.23125207952E+03  0.23125207952E+03  0.00000000000E+00 0. -1.
         23    2    1    2    0    0 -0.45061050911E+02  0.10317797975E+02 -0.10384901609E+03  0.16895635686E+03  0.12499870846E+03 0.  0.
          5    1    3    3  502    0 -0.41787781200E+02  0.38261156381E+02 -0.12238007711E+03  0.13494112797E+03  0.47000000000E+01 0.  1.
         -5    1    3    3    0  502 -0.32732697110E+01 -0.27943358406E+02  0.18531061022E+02  0.34015228886E+02  0.47000000000E+01 0.  1.
        -11    1    1    2    0    0 -0.24622408722E+02 -0.30169323477E+01 -0.39729073898E+02  0.46837636627E+02  0.00000000000E+00 0.  1.
         11    1    1    2    0    0  0.69683459633E+02 -0.73008656277E+01 -0.27766035900E+02  0.75366039666E+02  0.00000000000E+00 0. -1.
<mgrwt>
<rscale>  0 0.12461521E+03</rscale>
<asrwt>0</asrwt>
<pdfrwt beam="2">  1        2 0.35577243E-01 0.13327277E+03</pdfrwt>
<pdfrwt beam="1">  1       -2 0.92166083E-02 0.13327277E+03</pdfrwt>
<totfact> 0.10345139E+04</totfact>
</mgrwt>
</event>
<event>
 7    1  0.6387485E-006  0.1443999E+03  0.7546771E-02  0.1217522E+00
         -1   -1    0    0    0  501 -0.00000000000E+00  0.00000000000E+00  0.26019197505E+02  0.26019197505E+02  0.00000000000E+00 0.  1.
          1   -1    0    0  501    0  0.00000000000E+00 -0.00000000000E+00 -0.65783605925E+03  0.65783605925E+03  0.00000000000E+00 0. -1.
         23    2    1    2    0    0  0.71235816304E+02  0.12301727912E+02 -0.32815918251E+03  0.35852446661E+03  0.12500188023E+03 0.  0.
          5    1    3    3  502    0  0.64853709152E+02  0.17213862240E+01 -0.33660809147E+03  0.34283533074E+03  0.47000000000E+01 0.  1.
         -5    1    3    3    0  502  0.63821071522E+01  0.10580341688E+02  0.84489089574E+01  0.15689135875E+02  0.47000000000E+01 0.  1.
        -11    1    1    2    0    0 -0.89061324808E+02 -0.22982335509E+02 -0.20779840110E+03  0.22724498415E+03  0.00000000000E+00 0.  1.
         11    1    1    2    0    0  0.17825508504E+02  0.10680607597E+02 -0.95859278141E+02  0.98085805995E+02  0.00000000000E+00 0. -1.
<mgrwt>
<rscale>  0 0.13692910E+03</rscale>
<asrwt>0</asrwt>
<pdfrwt beam="2">  1        1 0.10120554E+00 0.14439994E+03</pdfrwt>
<pdfrwt beam="1">  1       -1 0.40029536E-02 0.14439994E+03</pdfrwt>
<totfact> 0.73186533E+03</totfact>
</mgrwt>
</event>
<event>
 7    1  0.6477087E-006  0.1774844E+03  0.7546771E-02  0.1176167E+00
         -3   -1    0    0    0  501 -0.00000000000E+00  0.00000000000E+00  0.38928868821E+03  0.38928868821E+03  0.00000000000E+00 0.  1.
          3   -1    0    0  501    0  0.00000000000E+00 -0.00000000000E+00 -0.73589053875E+02  0.73589053875E+02  0.00000000000E+00 0. -1.
         23    2    1    2    0    0  0.47742293275E+02 -0.11660505163E+03  0.21084956427E+03  0.27560526568E+03  0.12499863634E+03 0.  0.
          5    1    3    3  502    0  0.31218399546E+02  0.10675647612E+02  0.10181214143E+03  0.10712777448E+03  0.47000000000E+01 0. -1.
         -5    1    3    3    0  502  0.16523893730E+02 -0.12728069924E+03  0.10903742284E+03  0.16847749121E+03  0.47000000000E+01 0. -1.
        -11    1    1    2    0    0 -0.14908882890E+02  0.63716567474E+02  0.10650228805E+03  0.12499925248E+03  0.00000000000E+00 0.  1.
         11    1    1    2    0    0 -0.32833410385E+02  0.52888484157E+02 -0.16522179821E+01  0.62273223927E+02  0.00000000000E+00 0. -1.
<mgrwt>
<rscale>  0 0.17162142E+03</rscale>
<asrwt>0</asrwt>
<pdfrwt beam="2">  1        3 0.11321393E-01 0.17748443E+03</pdfrwt>
<pdfrwt beam="1">  1       -3 0.59890566E-01 0.17748443E+03</pdfrwt>
<totfact> 0.39857547E+02</totfact>
</mgrwt>
</event>
<event>
 6    1  0.6387485E-006  0.5629491E+03  0.7546771E-02  0.1043674E+00
          2   -1    0    0  501    0  0.00000000000E+00  0.00000000000E+00  0.18431497851E+03  0.18431497851E+03  0.00000000000E+00 0. -1.
         -2   -1    0    0    0  501 -0.00000000000E+00 -0.00000000000E+00 -0.76891541402E+03  0.76891541402E+03  0.00000000000E+00 0.  1.
          5    1    1    2  502    0 -0.91020942206E+02 -0.18397240612E+03 -0.39304024955E+02  0.20903960034E+03  0.47000000000E+01 0. -1.
         -5    1    1    2    0  502  0.18746185804E+03  0.17682101576E+03 -0.54206629611E+03  0.60022127521E+03  0.47000000000E+01 0.  1.
        -11    1    1    2    0    0  0.36421005773E+01  0.38770087771E+02 -0.22581936789E+01  0.39006205161E+02  0.00000000000E+00 0.  1.
         11    1    1    2    0    0 -0.10008301641E+03 -0.31618697409E+02 -0.97192077228E+00  0.10496331182E+03  0.00000000000E+00 0. -1.
<mgrwt>
<rscale>  0 0.40030606E+03</rscale>
<asrwt>0</asrwt>
<pdfrwt beam="1">  1        2 0.28356151E-01 0.56294912E+03</pdfrwt>
<pdfrwt beam="2">  1       -2 0.11829468E+00 0.56294912E+03</pdfrwt>
<totfact> 0.10617796E+02</totfact>
</mgrwt>
</event>
<event>
 7    1  0.6387485E-006  0.1611738E+03  0.7546771E-02  0.1194453E+00
         -1   -1    0    0    0  501 -0.00000000000E+00  0.00000000000E+00  0.57426158527E+02  0.57426158527E+02  0.00000000000E+00 0.  1.
          1   -1    0    0  501    0  0.00000000000E+00 -0.00000000000E+00 -0.52131770708E+03  0.52131770708E+03  0.00000000000E+00 0. -1.
         23    2    1    2    0    0 -0.34039524679E+02  0.95903458480E+02 -0.10017301856E+03  0.18976733319E+03  0.12498337693E+03 0.  0.
          5    1    3    3  502    0 -0.46020588587E+01  0.10435593518E+03 -0.23643222337E+02  0.10720276169E+03  0.47000000000E+01 0. -1.
         -5    1    3    3    0  502 -0.29437465820E+02 -0.84524766975E+01 -0.76529796218E+02  0.82564571490E+02  0.47000000000E+01 0. -1.
        -11    1    1    2    0    0  0.47394941374E+02 -0.10672084504E+03 -0.27760489761E+03  0.30116457031E+03  0.00000000000E+00 0. -1.
         11    1    1    2    0    0 -0.13355416695E+02  0.10817386555E+02 -0.86113632387E+02  0.87811962111E+02  0.00000000000E+00 0.  1.
<mgrwt>
<rscale>  0 0.15500588E+03</rscale>
<asrwt>0</asrwt>
<pdfrwt beam="2">  1        1 0.80202721E-01 0.16117384E+03</pdfrwt>
<pdfrwt beam="1">  1       -1 0.88347940E-02 0.16117384E+03</pdfrwt>
<totfact> 0.30914776E+03</totfact>
</mgrwt>
</event>
<event>
 7    1  0.6387485E-006  0.1409215E+03  0.7546771E-02  0.1222530E+00
          1   -1    0    0  501    0  0.00000000000E+00  0.00000000000E+00  0.32544123518E+03  0.32544123518E+03  0.00000000000E+00 0. -1.
         -1   -1    0    0    0  501 -0.00000000000E+00 -0.00000000000E+00 -0.58329582672E+02  0.58329582672E+02  0.00000000000E+00 0.  1.
         23    2    1    2    0    0 -0.59448187152E+02  0.32985798063E+02  0.71977507964E+02  0.15823912727E+03  0.12343706865E+03 0.  0.
          5    1    3    3  502    0  0.13078065255E+02 -0.39291791092E+00  0.76865946476E+02  0.78113084070E+02  0.47000000000E+01 0. -1.
         -5    1    3    3    0  502 -0.72526252407E+02  0.33378715974E+02 -0.48884385118E+01  0.80126043203E+02  0.47000000000E+01 0.  1.
        -11    1    1    2    0    0 -0.10868704298E+02 -0.24700620809E+02  0.12671142542E+02  0.29812870623E+02  0.00000000000E+00 0.  1.
         11    1    1    2    0    0  0.70316891450E+02 -0.82851772537E+01  0.18246300200E+03  0.19571881995E+03  0.00000000000E+00 0. -1.
<mgrwt>
<rscale>  0 0.13337666E+03</rscale>
<asrwt>0</asrwt>
<pdfrwt beam="1">  1        1 0.50067881E-01 0.14092147E+03</pdfrwt>
<pdfrwt beam="2">  1       -1 0.89737821E-02 0.14092147E+03</pdfrwt>
<totfact> 0.54683355E+03</totfact>
</mgrwt>
</event>
<event>
 7    1  0.6387485E-006  0.1530205E+03  0.7546771E-02  0.1204444E+00
          1   -1    0    0  501    0  0.00000000000E+00  0.00000000000E+00  0.17493122542E+03  0.17493122542E+03  0.00000000000E+00 0. -1.
         -1   -1    0    0    0  501 -0.00000000000E+00 -0.00000000000E+00 -0.12191519371E+03  0.12191519371E+03  0.00000000000E+00 0.  1.
         23    2    1    2    0    0 -0.74512273889E+02  0.47287231821E+02 -0.86526045180E+01  0.15326496784E+03  0.12500848591E+03 0.  0.
          5    1    3    3  502    0 -0.18867690462E+02 -0.35839493104E+02 -0.30312079965E+02  0.50807196352E+02  0.47000000000E+01 0. -1.
         -5    1    3    3    0  502 -0.55644583427E+02  0.83126724925E+02  0.21659475447E+02  0.10245777149E+03  0.47000000000E+01 0. -1.
        -11    1    1    2    0    0  0.14292570856E+02 -0.38709245543E+02 -0.16581037132E+02  0.44470372885E+02  0.00000000000E+00 0.  1.
         11    1    1    2    0    0  0.60219703033E+02 -0.85779862781E+01  0.78249673362E+02  0.99111078408E+02  0.00000000000E+00 0. -1.
<mgrwt>
<rscale>  0 0.14681373E+03</rscale>
<asrwt>0</asrwt>
<pdfrwt beam="1">  1        1 0.26912496E-01 0.15302053E+03</pdfrwt>
<pdfrwt beam="2">  1       -1 0.18756184E-01 0.15302053E+03</pdfrwt>
<totfact> 0.37734468E+03</totfact>
</mgrwt>
</event>
<event>
 7    1  0.6387485E-006  0.1301529E+03  0.7546771E-02  0.1241590E+00
         -2   -1    0    0    0  501 -0.00000000000E+00  0.00000000000E+00  0.51237583041E+02  0.51237583041E+02  0.00000000000E+00 0.  1.
          2   -1    0    0  501    0  0.00000000000E+00 -0.00000000000E+00 -0.28697423608E+03  0.28697423608E+03  0.00000000000E+00 0. -1.
         23    2    1    2    0    0 -0.30042737341E+02  0.20315793000E+02 -0.74225519981E+02  0.14983055802E+03  0.12499788313E+03 0.  0.
          5    1    3    3  502    0 -0.29611824501E+02  0.61415099138E+02 -0.41675350316E+01  0.68469941585E+02  0.47000000000E+01 0.  1.
         -5    1    3    3    0  502 -0.43091283994E+00 -0.41099306138E+02 -0.70057984950E+02  0.81360616432E+02  0.47000000000E+01 0.  1.
        -11    1    1    2    0    0  0.20169717167E+02 -0.54217068936E+02 -0.12420188029E+03  0.13701246338E+03  0.00000000000E+00 0. -1.
         11    1    1    2    0    0  0.98730201731E+01  0.33901275936E+02 -0.37309252774E+02  0.51368797727E+02  0.00000000000E+00 0.  1.
<mgrwt>
<rscale>  0 0.12091796E+03</rscale>
<asrwt>0</asrwt>
<pdfrwt beam="2">  1        2 0.44149883E-01 0.13015287E+03</pdfrwt>
<pdfrwt beam="1">  1       -2 0.78827050E-02 0.13015287E+03</pdfrwt>
<totfact> 0.10460012E+04</totfact>
</mgrwt>
</event>
<event>
 7    1  0.6387485E-006  0.2290288E+03  0.7546771E-02  0.1130587E+00
         -1   -1    0    0    0  501 -0.00000000000E+00  0.00000000000E+00  0.19900405460E+03  0.19900405460E+03  0.00000000000E+00 0.  1.
          1   -1    0    0  501    0  0.00000000000E+00 -0.00000000000E+00 -0.24601327022E+03  0.24601327022E+03  0.00000000000E+00 0. -1.
         23    2    1    2    0    0  0.17359694421E+03  0.81802748797E+02 -0.26359075625E+01  0.22904394660E+03  0.12500637070E+03 0.  0.
          5    1    3    3  502    0  0.81859507091E+01  0.14564849843E+02  0.41562096178E+02  0.45040453801E+02  0.47000000000E+01 0. -1.
         -5    1    3    3    0  502  0.16541099350E+03  0.67237898954E+02 -0.44198003740E+02  0.18400349280E+03  0.47000000000E+01 0. -1.
        -11    1    1    2    0    0 -0.30818412659E+02 -0.59176000673E+02 -0.16873077153E+02  0.68820595370E+02  0.00000000000E+00 0.  1.
         11    1    1    2    0    0 -0.14277853155E+03 -0.22626748124E+02 -0.27500230904E+02  0.14715278286E+03  0.00000000000E+00 0. -1.
<mgrwt>
<rscale>  0 0.22447927E+03</rscale>
<asrwt>0</asrwt>
<pdfrwt beam="2">  1        1 0.37848196E-01 0.22902878E+03</pdfrwt>
<pdfrwt beam="1">  1       -1 0.30616008E-01 0.22902878E+03</pdfrwt>
<totfact> 0.11105456E+03</totfact>
</mgrwt>
</event>
<event>
 6    1  0.6387485E-006  0.3670118E+03  0.7546771E-02  0.1081704E+00
         -4   -1    0    0    0  501 -0.00000000000E+00  0.00000000000E+00  0.38565828706E+03  0.38565828706E+03  0.00000000000E+00 0.  1.
          4   -1    0    0  501    0  0.00000000000E+00 -0.00000000000E+00 -0.19883314310E+03  0.19883314310E+03  0.00000000000E+00 0. -1.
          5    1    1    2  502    0  0.23586522543E+03  0.21199136888E+01  0.60527969418E+02  0.24356236097E+03  0.47000000000E+01 0. -1.
         -5    1    1    2    0  502 -0.10099778229E+03  0.62563627901E+02  0.10668917334E+03  0.15974801805E+03  0.47000000000E+01 0.  1.
        -11    1    1    2    0    0 -0.11528853054E+03 -0.23692975380E+02  0.48550153799E+02  0.12731818327E+03  0.00000000000E+00 0.  1.
         11    1    1    2    0    0 -0.19578912597E+02 -0.40990566210E+02 -0.28942152598E+02  0.53862867856E+02  0.00000000000E+00 0. -1.
<mgrwt>
<rscale>  0 0.30718406E+03</rscale>
<asrwt>0</asrwt>
<pdfrwt beam="2">  1        4 0.30589714E-01 0.36701184E+03</pdfrwt>
<pdfrwt beam="1">  1       -4 0.59332044E-01 0.36701184E+03</pdfrwt>
<totfact> 0.52711001E+01</totfact>
</mgrwt>
</event>
<event>
 7    1  0.6387485E-006  0.1479106E+03  0.7546771E-02  0.1212567E+00
          2   -1    0    0  501    0  0.00000000000E+00  0.00000000000E+00  0.11718397608E+03  0.11718397608E+03  0.00000000000E+00 0. -1.
         -2   -1    0    0    0  501 -0.00000000000E+00 -0.00000000000E+00 -0.19945948798E+03  0.19945948798E+03  0.00000000000E+00 0.  1.
         23    2    1    2    0    0 -0.61535572388E+02  0.49668986762E+02 -0.11974346010E+03  0.19030510166E+03  0.12499560218E+03 0.  0.
          5    1    3    3  502    0 -0.46993703940E+01  0.73812111683E+01  0.26193953535E+02  0.28013917295E+02  0.47000000000E+01 0. -1.
         -5    1    3    3    0  502 -0.56836201994E+02  0.42287775594E+02 -0.14593741364E+03  0.16229118436E+03  0.47000000000E+01 0. -1.
        -11    1    1    2    0    0  0.72875020436E+02 -0.12242304101E+02  0.44990468623E+02  0.86514651246E+02  0.00000000000E+00 0. -1.
         11    1    1    2    0    0 -0.11339448047E+02 -0.37426682661E+02 -0.75225204255E+01  0.39823711160E+02  0.00000000000E+00 0.  1.
<mgrwt>
<rscale>  0 0.14056765E+03</rscale>
<asrwt>0</asrwt>
<pdfrwt beam="1">  1        2 0.18028304E-01 0.14791057E+03</pdfrwt>
<pdfrwt beam="2">  1       -2 0.30686075E-01 0.14791057E+03</pdfrwt>
<totfact> 0.29749135E+03</totfact>
</mgrwt>
</event>
<event>
 7    1  0.6387485E-006  0.1562391E+03  0.7546771E-02  0.1200990E+00
         -2   -1    0    0    0  501 -0.00000000000E+00  0.00000000000E+00  0.22695819140E+03  0.22695819140E+03  0.00000000000E+00 0.  1.
          2   -1    0    0  501    0  0.00000000000E+00 -0.00000000000E+00 -0.10132019793E+03  0.10132019793E+03  0.00000000000E+00 0. -1.
         23    2    1    2    0    0 -0.82446826332E+02 -0.44580800043E+02  0.11981644378E+03  0.19689244297E+03  0.12500290794E+03 0.  0.
          5    1    3    3  502    0 -0.62201116347E+02  0.35642734557E+02  0.69401042362E+02  0.99889829725E+02  0.47000000000E+01 0. -1.
         -5    1    3    3    0  502 -0.20245709985E+02 -0.80223534599E+02  0.50415401420E+02  0.97002613247E+02  0.47000000000E+01 0. -1.
        -11    1    1    2    0    0 -0.40377863044E+01  0.36706962215E+02  0.22092728817E+02  0.43032469832E+02  0.00000000000E+00 0.  1.
         11    1    1    2    0    0  0.86484612636E+02  0.78738378276E+01 -0.16271179125E+02  0.88353476531E+02  0.00000000000E+00 0. -1.
<mgrwt>
<rscale>  0 0.14957976E+03</rscale>
<asrwt>0</asrwt>
<pdfrwt beam="2">  1        2 0.15587723E-01 0.15623909E+03</pdfrwt>
<pdfrwt beam="1">  1       -2 0.34916645E-01 0.15623909E+03</pdfrwt>
<totfact> 0.27881725E+03</totfact>
</mgrwt>
</event>
<event>
 7    1  0.6387485E-006  0.1252663E+03  0.7546771E-02  0.1250226E+00
          1   -1    0    0  501    0  0.00000000000E+00  0.00000000000E+00  0.51634522854E+02  0.51634522854E+02  0.00000000000E+00 0. -1.
         -1   -1    0    0    0  501 -0.00000000000E+00 -0.00000000000E+00 -0.23464970441E+03  0.23464970441E+03  0.00000000000E+00 0.  1.
         23    2    1    2    0    0  0.50364874860E+01 -0.66366404034E+01 -0.13034133004E+03  0.18077754299E+03  0.12498898563E+03 0.  0.
          5    1    3    3  502    0  0.49633637798E+02  0.36580008605E+02 -0.77169292952E+02  0.98887738397E+02  0.47000000000E+01 0. -1.
         -5    1    3    3    0  502 -0.44597150312E+02 -0.43216649008E+02 -0.53172037090E+02  0.81889804590E+02  0.47000000000E+01 0. -1.
        -11    1    1    2    0    0  0.40715364545E+02  0.16745775998E+02 -0.19817401315E+02  0.48279305284E+02  0.00000000000E+00 0. -1.
         11    1    1    2    0    0 -0.45751852031E+02 -0.10109135594E+02 -0.32856450198E+02  0.57227378993E+02  0.00000000000E+00 0.  1.
<mgrwt>
<rscale>  0 0.11577984E+03</rscale>
<asrwt>0</asrwt>
<pdfrwt beam="1">  1        1 0.79437729E-02 0.12526635E+03</pdfrwt>
<pdfrwt beam="2">  1       -1 0.36099954E-01 0.12526635E+03</pdfrwt>
<totfact> 0.61385340E+03</totfact>
</mgrwt>
</event>
<event>
 7    1  0.6387485E-006  0.1367291E+03  0.7546771E-02  0.1229829E+00
          4   -1    0    0  501    0  0.00000000000E+00  0.00000000000E+00  0.35355082142E+02  0.35355082142E+02  0.00000000000E+00 0. -1.
         -4   -1    0    0    0  501 -0.00000000000E+00 -0.00000000000E+00 -0.46858080711E+03  0.46858080711E+03  0.00000000000E+00 0.  1.
         23    2    1    2    0    0  0.41483190015E+01  0.55220842419E+02 -0.32300657533E+03  0.35075362376E+03  0.12501322685E+03 0.  0.
          5    1    3    3  502    0  0.41788492017E+02  0.68052746920E+02 -0.12263787776E+03  0.14642265361E+03  0.47000000000E+01 0. -1.
         -5    1    3    3    0  502 -0.37640173016E+02 -0.12831904501E+02 -0.20036869757E+03  0.20433097015E+03  0.47000000000E+01 0. -1.
        -11    1    1    2    0    0 -0.28855227949E+02  0.11324995087E+01 -0.79146600714E+02  0.84250169969E+02  0.00000000000E+00 0.  1.
         11    1    1    2    0    0  0.24706908947E+02 -0.56353341928E+02 -0.31072548923E+02  0.68932095520E+02  0.00000000000E+00 0. -1.
<mgrwt>
<rscale>  0 0.12841331E+03</rscale>
<asrwt>0</asrwt>
<pdfrwt beam="1">  1        4 0.54392432E-02 0.13672914E+03</pdfrwt>
<pdfrwt beam="2">  1       -4 0.72089357E-01 0.13672914E+03</pdfrwt>
<totfact> 0.61877833E+02</totfact>
</mgrwt>
</event>
<event>
 7    1  0.6387485E-006  0.1273391E+03  0.7546771E-02  0.1246092E+00
         -1   -1    0    0    0  501 -0.00000000000E+00  0.00000000000E+00  0.21616565464E+03  0.21616565464E+03  0.00000000000E+00 0.  1.
          1   -1    0    0  501    0  0.00000000000E+00 -0.00000000000E+00 -0.67340206018E+02  0.67340206018E+02  0.00000000000E+00 0. -1.
         23    2    1    2    0    0 -0.13419949348E+02 -0.20313883666E+02  0.13891096152E+03  0.18844494568E+03  0.12498997324E+03 0.  0.
          5    1    3    3  502    0 -0.39594889676E+02 -0.60612460137E+02  0.52831084965E+02  0.89748755707E+02  0.47000000000E+01 0. -1.
         -5    1    3    3    0  502  0.26174940328E+02  0.40298576472E+02  0.86079876555E+02  0.98696189969E+02  0.47000000000E+01 0. -1.
        -11    1    1    2    0    0 -0.54234042725E+01  0.19999623427E+02  0.48157437845E+02  0.52426492072E+02  0.00000000000E+00 0.  1.
         11    1    1    2    0    0  0.18843353620E+02  0.31426023866E+00 -0.38242950744E+02  0.42634422909E+02  0.00000000000E+00 0. -1.
<mgrwt>
<rscale>  0 0.11820287E+03</rscale>
<asrwt>0</asrwt>
<pdfrwt beam="2">  1        1 0.10360032E-01 0.12733908E+03</pdfrwt>
<pdfrwt beam="1">  1       -1 0.33256254E-01 0.12733908E+03</pdfrwt>
<totfact> 0.49677124E+03</totfact>
</mgrwt>
</event>
<event>
 7    1  0.6387485E-006  0.1428437E+03  0.7546771E-02  0.1220740E+00
         -2   -1    0    0    0  501 -0.00000000000E+00  0.00000000000E+00  0.20328741630E+02  0.20328741630E+02  0.00000000000E+00 0.  1.
          2   -1    0    0  501    0  0.00000000000E+00 -0.00000000000E+00 -0.82842463949E+03  0.82842463949E+03  0.00000000000E+00 0. -1.
         23    2    1    2    0    0  0.36384493654E+02 -0.58780719430E+02 -0.52373509249E+03  0.54286534359E+03  0.12500131924E+03 0.  0.
          5    1    3    3  502    0  0.63247318863E+02  0.12795259386E+01 -0.14271554078E+03  0.15617834713E+03  0.47000000000E+01 0. -1.
         -5    1    3    3    0  502 -0.26862825209E+02 -0.60060245368E+02 -0.38101955171E+03  0.38668699646E+03  0.47000000000E+01 0. -1.
        -11    1    1    2    0    0 -0.21729072901E+02  0.44010590406E+02 -0.28045486817E+03  0.28471743493E+03  0.00000000000E+00 0. -1.
         11    1    1    2    0    0 -0.14655420753E+02  0.14770129024E+02 -0.39059372036E+01  0.21170602595E+02  0.00000000000E+00 0.  1.
<mgrwt>
<rscale>  0 0.13463216E+03</rscale>
<asrwt>0</asrwt>
<pdfrwt beam="2">  1        2 0.12744994E+00 0.14284374E+03</pdfrwt>
<pdfrwt beam="1">  1       -2 0.31274987E-02 0.14284374E+03</pdfrwt>
<totfact> 0.12949683E+04</totfact>
</mgrwt>
</event>
<event>
 7    1  0.6387485E-006  0.2708809E+03  0.7546771E-02  0.1102367E+00
          1   -1    0    0  501    0  0.00000000000E+00  0.00000000000E+00  0.41936199558E+03  0.41936199558E+03  0.00000000000E+00 0. -1.
         -1   -1    0    0    0  501 -0.00000000000E+00 -0.00000000000E+00 -0.29207484937E+03  0.29207484937E+03  0.00000000000E+00 0.  1.
         23    2    1    2    0    0  0.95178246826E+02  0.22065601756E+03 -0.16743298211E+03  0.31844980957E+03  0.12501400306E+03 0.  0.
          5    1    3    3  502    0  0.12384939749E+03  0.15321413820E+03 -0.11436802119E+03  0.22784946713E+03  0.47000000000E+01 0. -1.
         -5    1    3    3    0  502 -0.28671150661E+02  0.67441879363E+02 -0.53064960920E+02  0.90600342437E+02  0.47000000000E+01 0. -1.
        -11    1    1    2    0    0 -0.60390961256E+02 -0.41820111299E+02  0.54367534527E+02  0.91388285469E+02  0.00000000000E+00 0. -1.
         11    1    1    2    0    0 -0.34787285570E+02 -0.17883590626E+03  0.24035259379E+03  0.30159874991E+03  0.00000000000E+00 0.  1.
<mgrwt>
<rscale>  0 0.26810825E+03</rscale>
<asrwt>0</asrwt>
<pdfrwt beam="1">  1        1 0.64517230E-01 0.27088093E+03</pdfrwt>
<pdfrwt beam="2">  1       -1 0.44934592E-01 0.27088093E+03</pdfrwt>
<totfact> 0.28731035E+02</totfact>
</mgrwt>
</event>
<event>
 6    1  0.6387485E-006  0.1353977E+03  0.7546771E-02  0.1236041E+00
         -4   -1    0    0    0  501 -0.00000000000E+00  0.00000000000E+00  0.10200447709E+03  0.10200447709E+03  0.00000000000E+00 0.  1.
          4   -1    0    0  501    0  0.00000000000E+00 -0.00000000000E+00 -0.15342376565E+03  0.15342376565E+03  0.00000000000E+00 0. -1.
          5    1    1    2  502    0  0.30108499119E+02 -0.99154640246E+01 -0.48843267286E+02  0.58417402417E+02  0.47000000000E+01 0. -1.
         -5    1    1    2    0  502 -0.34287226589E+02 -0.20992206244E+02  0.66882128598E+02  0.78176695734E+02  0.47000000000E+01 0.  1.
        -11    1    1    2    0    0 -0.25719763241E+02 -0.19877172152E+02 -0.75694730007E+01  0.33375217085E+02  0.00000000000E+00 0.  1.
         11    1    1    2    0    0  0.29898490711E+02  0.50784842421E+02 -0.61888676871E+02  0.85458927512E+02  0.00000000000E+00 0. -1.
<mgrwt>
<rscale>  0 0.12438044E+03</rscale>
<asrwt>0</asrwt>
<pdfrwt beam="2">  1        4 0.23603656E-01 0.13539774E+03</pdfrwt>
<pdfrwt beam="1">  1       -4 0.15692996E-01 0.13539774E+03</pdfrwt>
<totfact> 0.95743763E+02</totfact>
</mgrwt>
</event>
<event>
 7    1  0.6387485E-006  0.1464395E+03  0.7546771E-02  0.1214401E+00
         -1   -1    0    0    0  501 -0.00000000000E+00  0.00000000000E+00  0.59418001135E+02  0.59418001135E+02  0.00000000000E+00 0.  1.
          1   -1    0    0  501    0  0.00000000000E+00 -0.00000000000E+00 -0.30247389608E+03  0.30247389608E+03  0.00000000000E+00 0. -1.
         23    2    1    2    0    0 -0.26867295721E+02  0.71409439814E+02 -0.11110268737E+03  0.18381603813E+03  0.12499347607E+03 0.  0.
          5    1    3    3  502    0 -0.24149137755E+01 -0.33756757582E+02 -0.94572085642E+01  0.35452493351E+02  0.47000000000E+01 0.  1.
         -5    1    3    3    0  502 -0.24452381946E+02  0.10516619740E+03 -0.10164547880E+03  0.14836354478E+03  0.47000000000E+01 0.  1.
        -11    1    1    2    0    0  0.56477359549E+02 -0.34641825457E+02 -0.10370091498E+03  0.12305944897E+03  0.00000000000E+00 0. -1.
         11    1    1    2    0    0 -0.29610063827E+02 -0.36767614358E+02 -0.28252292599E+02  0.55016410120E+02  0.00000000000E+00 0.  1.
<mgrwt>
<rscale>  0 0.13920610E+03</rscale>
<asrwt>0</asrwt>
<pdfrwt beam="2">  1        1 0.46534445E-01 0.14643951E+03</pdfrwt>
<pdfrwt beam="1">  1       -1 0.91412310E-02 0.14643951E+03</pdfrwt>
<totfact> 0.58359101E+03</totfact>
</mgrwt>
</event>
<event>
 7    1  0.6387485E-006  0.3480429E+03  0.7546771E-02  0.1064556E+00
          1   -1    0    0  501    0  0.00000000000E+00  0.00000000000E+00  0.11620462430E+04  0.11620462430E+04  0.00000000000E+00 0. -1.
         -1   -1    0    0    0  501 -0.00000000000E+00 -0.00000000000E+00 -0.10103819150E+03  0.10103819150E+03  0.00000000000E+00 0.  1.
         23    2    1    2    0    0  0.29313205996E+03  0.13995278743E+03  0.54292733718E+03  0.64490614873E+03  0.12498263852E+03 0.  0.
          5    1    3    3  502    0  0.17966844939E+03  0.16989493753E+02  0.27285046566E+03  0.32716794038E+03  0.47000000000E+01 0.  1.
         -5    1    3    3    0  502  0.11346361057E+03  0.12296329368E+03  0.27007687152E+03  0.31773820835E+03  0.47000000000E+01 0.  1.
        -11    1    1    2    0    0 -0.94481381399E+02 -0.18091987160E+02  0.21758877387E+03  0.23790528776E+03  0.00000000000E+00 0. -1.
         11    1    1    2    0    0 -0.19865067856E+03 -0.12186080027E+03  0.30049194043E+03  0.38027299799E+03  0.00000000000E+00 0.  1.
<mgrwt>
<rscale>  0 0.34531240E+03</rscale>
<asrwt>0</asrwt>
<pdfrwt beam="1">  1        1 0.17877634E+00 0.34804288E+03</pdfrwt>
<pdfrwt beam="2">  1       -1 0.15544338E-01 0.34804288E+03</pdfrwt>
<totfact> 0.36840515E+02</totfact>
</mgrwt>
</event>
<event>
 7    1  0.6387485E-006  0.1548074E+03  0.7546771E-02  0.1202242E+00
          2   -1    0    0  501    0  0.00000000000E+00  0.00000000000E+00  0.31839148828E+02  0.31839148828E+02  0.00000000000E+00 0. -1.
         -2   -1    0    0    0  501 -0.00000000000E+00 -0.00000000000E+00 -0.76007107776E+03  0.76007107776E+03  0.00000000000E+00 0.  1.
         23    2    1    2    0    0 -0.63836191598E+02 -0.65326865985E+02 -0.54444411528E+03  0.56602537838E+03  0.12499070179E+03 0.  0.
          5    1    3    3  502    0 -0.90184825021E+02 -0.23718654958E+02 -0.44806597108E+03  0.45769103301E+03  0.47000000000E+01 0. -1.
         -5    1    3    3    0  502  0.26348633423E+02 -0.41608211027E+02 -0.96378144198E+02  0.10833434537E+03  0.47000000000E+01 0. -1.
        -11    1    1    2    0    0  0.20139334633E+02  0.19841622373E+02 -0.15319740845E+03  0.15578423776E+03  0.00000000000E+00 0.  1.
         11    1    1    2    0    0  0.43696856965E+02  0.45485243612E+02 -0.30590405206E+02  0.70100610452E+02  0.00000000000E+00 0. -1.
<mgrwt>
<rscale>  0 0.14856957E+03</rscale>
<asrwt>0</asrwt>
<pdfrwt beam="1">  1        2 0.48983307E-02 0.15480741E+03</pdfrwt>
<pdfrwt beam="2">  1       -2 0.11693401E+00 0.15480741E+03</pdfrwt>
<totfact> 0.93372643E+02</totfact>
</mgrwt>
</event>
<event>
 7    1  0.6387485E-006  0.1660491E+03  0.7546771E-02  0.1188823E+00
          2   -1    0    0  501    0  0.00000000000E+00  0.00000000000E+00  0.13087797507E+03  0.13087797507E+03  0.00000000000E+00 0. -1.
         -2   -1    0    0    0  501 -0.00000000000E+00 -0.00000000000E+00 -0.18411005683E+03  0.18411005683E+03  0.00000000000E+00 0.  1.
         23    2    1    2    0    0  0.93554167223E+02 -0.56524965440E+02 -0.12367398959E+02  0.16650906710E+03  0.12499945178E+03 0.  0.
          5    1    3    3  502    0  0.67295880740E+01  0.36086566535E+02  0.79731461763E+01  0.37857478784E+02  0.47000000000E+01 0. -1.
         -5    1    3    3    0  502  0.86824579149E+02 -0.92611531975E+02 -0.20340545135E+02  0.12865158831E+03  0.47000000000E+01 0. -1.
        -11    1    1    2    0    0 -0.89927567422E+02  0.20873995628E+02 -0.57720500526E+02  0.10887767107E+03  0.00000000000E+00 0.  1.
         11    1    1    2    0    0 -0.36265998013E+01  0.35650969812E+02  0.16855817722E+02  0.39601293738E+02  0.00000000000E+00 0. -1.
<mgrwt>
<rscale>  0 0.15988862E+03</rscale>
<asrwt>0</asrwt>
<pdfrwt beam="1">  1        2 0.20135073E-01 0.16604914E+03</pdfrwt>
<pdfrwt beam="2">  1       -2 0.28324624E-01 0.16604914E+03</pdfrwt>
<totfact> 0.30461572E+03</totfact>
</mgrwt>
</event>
<event>
 7    1  0.6387485E-006  0.1455643E+03  0.7546771E-02  0.1217484E+00
         -1   -1    0    0    0  501 -0.00000000000E+00  0.00000000000E+00  0.30061403674E+03  0.30061403674E+03  0.00000000000E+00 0. -1.
          1   -1    0    0  501    0  0.00000000000E+00 -0.00000000000E+00 -0.59510299218E+02  0.59510299218E+02  0.00000000000E+00 0.  1.
         23    2    1    2    0    0 -0.50004780713E+02 -0.55350308895E+02  0.91272271796E+02  0.17181264620E+03  0.12499929203E+03 0.  0.
          5    1    3    3  502    0 -0.85531453810E+02 -0.39543629019E+02  0.93172538560E+02  0.13259917092E+03  0.47000000000E+01 0.  1.
         -5    1    3    3    0  502  0.35526673097E+02 -0.15806679876E+02 -0.19002667649E+01  0.39213475284E+02  0.47000000000E+01 0.  1.
        -11    1    1    2    0    0  0.15017976492E+02  0.76188821100E+01 -0.87997898224E+01  0.19000612712E+02  0.00000000000E+00 0.  1.
         11    1    1    2    0    0  0.34986804221E+02  0.47731426785E+02  0.15863125555E+03  0.16931107705E+03  0.00000000000E+00 0. -1.
<mgrwt>
<rscale>  0 0.13695673E+03</rscale>
<asrwt>0</asrwt>
<pdfrwt beam="2">  1        1 0.91554308E-02 0.14556427E+03</pdfrwt>
<pdfrwt beam="1">  1       -1 0.46248313E-01 0.14556427E+03</pdfrwt>
<totfact> 0.33154013E+03</totfact>
</mgrwt>
</event>
<event>
 7    1  0.6387485E-006  0.2123769E+03  0.7546771E-02  0.1142732E+00
          1   -1    0    0  501    0  0.00000000000E+00  0.00000000000E+00  0.35688011865E+03  0.35688011865E+03  0.00000000000E+00 0. -1.
         -1   -1    0    0    0  501 -0.00000000000E+00 -0.00000000000E+00 -0.11766880119E+03  0.11766880119E+03  0.00000000000E+00 0.  1.
         23    2    1    2    0    0 -0.58002788774E+02 -0.16158306168E+03  0.12026984462E+03  0.24406716745E+03  0.12502214753E+03 0.  0.
          5    1    3    3  502    0  0.32065268324E+02 -0.19011025767E+02  0.12294084846E+01  0.37592578770E+02  0.47000000000E+01 0.  1.
         -5    1    3    3    0  502 -0.90068057098E+02 -0.14257203592E+03  0.11904043614E+03  0.20647458868E+03  0.47000000000E+01 0.  1.
        -11    1    1    2    0    0  0.54401979943E+02  0.34476453006E+02  0.67543873150E+02  0.93329395335E+02  0.00000000000E+00 0. -1.
         11    1    1    2    0    0  0.36008088312E+01  0.12710660868E+03  0.51397599691E+02  0.13715235706E+03  0.00000000000E+00 0.  1.
<mgrwt>
<rscale>  0 0.20853473E+03</rscale>
<asrwt>0</asrwt>
<pdfrwt beam="1">  1        1 0.54904633E-01 0.21237690E+03</pdfrwt>
<pdfrwt beam="2">  1       -1 0.18102893E-01 0.21237690E+03</pdfrwt>
<totfact> 0.16559064E+03</totfact>
</mgrwt>
</event>
<event>
 7    1  0.6387485E-006  0.1387414E+03  0.7546771E-02  0.1226151E+00
         -4   -1    0    0    0  501 -0.00000000000E+00  0.00000000000E+00  0.84036401964E+02  0.84036401964E+02  0.00000000000E+00 0.  1.
          4   -1    0    0  501    0  0.00000000000E+00 -0.00000000000E+00 -0.19879838990E+03  0.19879838990E+03  0.00000000000E+00 0. -1.
         23    2    1    2    0    0 -0.77703357883E+01 -0.59692619967E+02 -0.25053714076E+02  0.14098530654E+03  0.12500232428E+03 0.  0.
          5    1    3    3  502    0  0.21929181092E+02  0.32408180824E+02  0.45625056518E+01  0.39674747958E+02  0.47000000000E+01 0.  1.
         -5    1    3    3    0  502 -0.29699516880E+02 -0.92100800791E+02 -0.29616219728E+02  0.10131055858E+03  0.47000000000E+01 0.  1.
        -11    1    1    2    0    0 -0.40546232994E+02  0.32273793667E+02 -0.28321159057E+02  0.59056606896E+02  0.00000000000E+00 0.  1.
         11    1    1    2    0    0  0.48316568783E+02  0.27418826300E+02 -0.61387114798E+02  0.82792878425E+02  0.00000000000E+00 0. -1.
<mgrwt>
<rscale>  0 0.13088339E+03</rscale>
<asrwt>0</asrwt>
<pdfrwt beam="2">  1        4 0.30584368E-01 0.13874137E+03</pdfrwt>
<pdfrwt beam="1">  1       -4 0.12928677E-01 0.13874137E+03</pdfrwt>
<totfact> 0.83140790E+02</totfact>
</mgrwt>
</event>
<event>
 7    1  0.6387485E-006  0.1178976E+03  0.7546771E-02  0.1257044E+00
         -1   -1    0    0    0  501 -0.00000000000E+00  0.00000000000E+00  0.98581773780E+02  0.98581773780E+02  0.00000000000E+00 0.  1.
          1   -1    0    0  501    0  0.00000000000E+00 -0.00000000000E+00 -0.38644224399E+03  0.38644224399E+03  0.00000000000E+00 0. -1.
         23    2    1    2    0    0  0.26211950288E+02 -0.25270715990E+02  0.54237303943E+02  0.12977490761E+03  0.11213458914E+03 0.  0.
          5    1    3    3  502    0  0.73785664106E+01  0.44548018569E+02  0.22362426757E+02  0.50607680555E+02  0.47000000000E+01 0. -1.
         -5    1    3    3    0  502  0.18833383877E+02 -0.69818734559E+02  0.31874877186E+02  0.79167227053E+02  0.47000000000E+01 0.  1.
        -11    1    1    2    0    0  0.27287273690E+02  0.11369753634E+02 -0.50985175473E+02  0.58935173887E+02  0.00000000000E+00 0.  1.
         11    1    1    2    0    0 -0.53499223978E+02  0.13900962355E+02 -0.29111259867E+03  0.29631393627E+03  0.00000000000E+00 0. -1.
<mgrwt>
<rscale>  0 0.11192601E+03</rscale>
<asrwt>0</asrwt>
<pdfrwt beam="2">  1        1 0.59452653E-01 0.11789759E+03</pdfrwt>
<pdfrwt beam="1">  1       -1 0.15166427E-01 0.11789759E+03</pdfrwt>
<totfact> 0.19523043E+03</totfact>
</mgrwt>
</event>
<event>
 7    1  0.6387485E-006  0.2264360E+03  0.7546771E-02  0.1132381E+00
         -2   -1    0    0    0  501 -0.00000000000E+00  0.00000000000E+00  0.55572286364E+02  0.55572286364E+02  0.00000000000E+00 0. -1.
          2   -1    0    0  501    0  0.00000000000E+00 -0.00000000000E+00 -0.87389775617E+03  0.87389775617E+03  0.00000000000E+00 0.  1.
         23    2    1    2    0    0  0.55657412862E+01  0.18872577333E+03 -0.49465766306E+03  0.54402156591E+03  0.12499946223E+03 0.  0.
          5    1    3    3  502    0  0.15557602299E+02  0.59150686543E+01 -0.81670499621E+00  0.17314272538E+02  0.47000000000E+01 0.  1.
         -5    1    3    3    0  502 -0.99918610130E+01  0.18281070468E+03 -0.49384095806E+03  0.52670729337E+03  0.47000000000E+01 0.  1.
        -11    1    1    2    0    0  0.38454135051E+02 -0.87703587458E+02 -0.18510318895E+03  0.20840784609E+03  0.00000000000E+00 0.  1.
         11    1    1    2    0    0 -0.44019876337E+02 -0.10102218587E+03 -0.13856461780E+03  0.17704063053E+03  0.00000000000E+00 0. -1.
<mgrwt>
<rscale>  0 0.22202678E+03</rscale>
<asrwt>0</asrwt>
<pdfrwt beam="2">  1        2 0.13444580E+00 0.22643600E+03</pdfrwt>
<pdfrwt beam="1">  1       -2 0.85495829E-02 0.22643600E+03</pdfrwt>
<totfact> 0.26784557E+03</totfact>
</mgrwt>
</event>
<event>
 7    1  0.6387485E-006  0.2167715E+03  0.7546771E-02  0.1139856E+00
          1   -1    0    0  501    0  0.00000000000E+00  0.00000000000E+00  0.44061724230E+03  0.44061724230E+03  0.00000000000E+00 0. -1.
         -1   -1    0    0    0  501 -0.00000000000E+00 -0.00000000000E+00 -0.10025865001E+03  0.10025865001E+03  0.00000000000E+00 0.  1.
         23    2    1    2    0    0 -0.11143950990E+02  0.17680247265E+03  0.13732224083E+03  0.25660727551E+03  0.12492635446E+03 0.  0.
          5    1    3    3  502    0  0.14429790299E+02  0.17800113868E+03  0.14431437320E+03  0.22965485523E+03  0.47000000000E+01 0. -1.
         -5    1    3    3    0  502 -0.25573741289E+02 -0.11986660292E+01 -0.69921323669E+01  0.26952420277E+02  0.47000000000E+01 0. -1.
        -11    1    1    2    0    0  0.13480999678E+02 -0.56511715587E+02  0.13297778034E+02  0.59599851104E+02  0.00000000000E+00 0.  1.
         11    1    1    2    0    0 -0.23370486885E+01 -0.12029075706E+03  0.18973857343E+03  0.22466876570E+03  0.00000000000E+00 0. -1.
<mgrwt>
<rscale>  0 0.21217434E+03</rscale>
<asrwt>0</asrwt>
<pdfrwt beam="1">  1        1 0.67787267E-01 0.21677153E+03</pdfrwt>
<pdfrwt beam="2">  1       -1 0.15424408E-01 0.21677153E+03</pdfrwt>
<totfact> 0.16337952E+03</totfact>
</mgrwt>
</event>
<event>
 7    1  0.6387485E-006  0.1383052E+03  0.7546771E-02  0.1227180E+00
          1   -1    0    0  501    0  0.00000000000E+00  0.00000000000E+00  0.72280988267E+02  0.72280988267E+02  0.00000000000E+00 0. -1.
         -1   -1    0    0    0  501 -0.00000000000E+00 -0.00000000000E+00 -0.26839536951E+03  0.26839536951E+03  0.00000000000E+00 0.  1.
         23    2    1    2    0    0  0.58849038482E+02 -0.62331451092E+01 -0.18577961838E+03  0.23160825543E+03  0.12500502370E+03 0.  0.
          5    1    3    3  502    0 -0.73994528249E+01 -0.51487561146E+02 -0.10701169791E+03  0.11907692616E+03  0.47000000000E+01 0.  1.
         -5    1    3    3    0  502  0.66248491307E+02  0.45254416037E+02 -0.78767920475E+02  0.11253132927E+03  0.47000000000E+01 0.  1.
        -11    1    1    2    0    0 -0.47452499638E+02  0.91306728246E+01 -0.48901025770E+02  0.68748958024E+02  0.00000000000E+00 0.  1.
         11    1    1    2    0    0 -0.11396538844E+02 -0.28975277154E+01  0.38566262906E+02  0.40319144324E+02  0.00000000000E+00 0. -1.
<mgrwt>
<rscale>  0 0.13018580E+03</rscale>
<asrwt>0</asrwt>
<pdfrwt beam="1">  1        1 0.11120152E-01 0.13830516E+03</pdfrwt>
<pdfrwt beam="2">  1       -1 0.41291596E-01 0.13830516E+03</pdfrwt>
<totfact> 0.31266247E+03</totfact>
</mgrwt>
</event>
<event>
 7    1  0.6387485E-006  0.2189319E+03  0.7546771E-02  0.1137969E+00
         -1   -1    0    0    0  501 -0.00000000000E+00  0.00000000000E+00  0.48963188029E+03  0.48963188029E+03  0.00000000000E+00 0.  1.
          1   -1    0    0  501    0  0.00000000000E+00 -0.00000000000E+00 -0.90529913197E+02  0.90529913197E+02  0.00000000000E+00 0. -1.
         23    2    1    2    0    0  0.11728234487E+03 -0.13620511794E+03  0.20909505859E+03  0.30274071072E+03  0.12499684729E+03 0.  0.
          5    1    3    3  502    0  0.14072429357E+03 -0.10891776269E+03  0.14717017699E+03  0.23097090039E+03  0.47000000000E+01 0. -1.
         -5    1    3    3    0  502 -0.23441948695E+02 -0.27287355251E+02  0.61924881594E+02  0.71769810336E+02  0.47000000000E+01 0. -1.
        -11    1    1    2    0    0 -0.51193044999E+02  0.11592552499E+03  0.88342917201E+02  0.15447953334E+03  0.00000000000E+00 0. -1.
         11    1    1    2    0    0 -0.66089299872E+02  0.20279592946E+02  0.10166399131E+03  0.12294154943E+03  0.00000000000E+00 0.  1.
<mgrwt>
<rscale>  0 0.21460702E+03</rscale>
<asrwt>0</asrwt>
<pdfrwt beam="2">  1        1 0.13927679E-01 0.21893194E+03</pdfrwt>
<pdfrwt beam="1">  1       -1 0.75327980E-01 0.21893194E+03</pdfrwt>
<totfact> 0.75857581E+02</totfact>
</mgrwt>
</event>
<event>
 7    1  0.6387485E-006  0.1486757E+03  0.7546771E-02  0.1211382E+00
         -2   -1    0    0    0  501 -0.00000000000E+00  0.00000000000E+00  0.28690897875E+03  0.28690897875E+03  0.00000000000E+00 0. -1.
          2   -1    0    0  501    0  0.00000000000E+00 -0.00000000000E+00 -0.65501742030E+02  0.65501742030E+02  0.00000000000E+00 0.  1.
         23    2    1    2    0    0  0.59901026345E+02  0.53763114790E+02  0.14996440648E+03  0.21117241239E+03  0.12500343626E+03 0.  0.
          5    1    3    3  502    0  0.89127329087E+02  0.43134105833E+02  0.60008244803E+02  0.11587627592E+03  0.47000000000E+01 0. -1.
         -5    1    3    3    0  502 -0.29226302743E+02  0.10629008957E+02  0.89956161678E+02  0.95296136476E+02  0.47000000000E+01 0. -1.
        -11    1    1    2    0    0 -0.56887985905E+02  0.33107626382E+01  0.60380621813E+02  0.83024234896E+02  0.00000000000E+00 0. -1.
         11    1    1    2    0    0 -0.30130404400E+01 -0.57073877428E+02  0.11062208428E+02  0.58214073493E+02  0.00000000000E+00 0.  1.
<mgrwt>
<rscale>  0 0.14145703E+03</rscale>
<asrwt>0</asrwt>
<pdfrwt beam="2">  1        2 0.10077191E-01 0.14867570E+03</pdfrwt>
<pdfrwt beam="1">  1       -2 0.44139842E-01 0.14867570E+03</pdfrwt>
<totfact> 0.30128264E+03</totfact>
</mgrwt>
</event>
<event>
 7    1  0.6387485E-006  0.1569200E+03  0.7546771E-02  0.1200906E+00
          3   -1    0    0  501    0  0.00000000000E+00  0.00000000000E+00  0.54097986322E+02  0.54097986322E+02  0.00000000000E+00 0. -1.
         -3   -1    0    0    0  501 -0.00000000000E+00 -0.00000000000E+00 -0.44342279333E+03  0.44342279333E+03  0.00000000000E+00 0.  1.
         23    2    1    2    0    0  0.44914968334E+02 -0.83550510123E+02 -0.30424388367E+03  0.34232768316E+03  0.12500343911E+03 0.  0.
          5    1    3    3  502    0  0.29593743512E+01 -0.65449864123E+02 -0.46391604066E+02  0.80415878644E+02  0.47000000000E+01 0.  1.
         -5    1    3    3    0  502  0.41955593983E+02 -0.18100646000E+02 -0.25785227960E+03  0.26191180452E+03  0.47000000000E+01 0.  1.
        -11    1    1    2    0    0  0.11319069929E+02  0.29671049494E+02 -0.68592218429E+02  0.75586936379E+02  0.00000000000E+00 0.  1.
         11    1    1    2    0    0 -0.56234038263E+02  0.53879460630E+02 -0.16488704910E+02  0.79606160105E+02  0.00000000000E+00 0. -1.
<mgrwt>
<rscale>  0 0.14964815E+03</rscale>
<asrwt>0</asrwt>
<pdfrwt beam="1">  1        3 0.83227672E-02 0.15692005E+03</pdfrwt>
<pdfrwt beam="2">  1       -3 0.68218891E-01 0.15692005E+03</pdfrwt>
<totfact> 0.49745404E+02</totfact>
</mgrwt>
</event>
<event>
 7    1  0.6387485E-006  0.1672770E+03  0.7546771E-02  0.1187467E+00
          1   -1    0    0  501    0  0.00000000000E+00  0.00000000000E+00  0.87649635627E+02  0.87649635627E+02  0.00000000000E+00 0. -1.
         -1   -1    0    0    0  501 -0.00000000000E+00 -0.00000000000E+00 -0.27709921517E+03  0.27709921517E+03  0.00000000000E+00 0.  1.
         23    2    1    2    0    0  0.10845840858E+03  0.24346743624E+02 -0.11240514031E+03  0.20153536965E+03  0.12500239731E+03 0.  0.
          5    1    3    3  502    0 -0.21045508945E+02 -0.13013016762E+02  0.11743121328E+01  0.25213509494E+02  0.47000000000E+01 0. -1.
         -5    1    3    3    0  502  0.12950391752E+03  0.37359760386E+02 -0.11357945245E+03  0.17632186015E+03  0.47000000000E+01 0. -1.
        -11    1    1    2    0    0 -0.81589020466E+02 -0.10242642342E+02 -0.96793789111E+02  0.12700676200E+03  0.00000000000E+00 0.  1.
         11    1    1    2    0    0 -0.26869388113E+02 -0.14104101283E+02  0.19749349885E+02  0.36206719148E+02  0.00000000000E+00 0. -1.
<mgrwt>
<rscale>  0 0.16109452E+03</rscale>
<asrwt>0</asrwt>
<pdfrwt beam="1">  1        1 0.13484559E-01 0.16727698E+03</pdfrwt>
<pdfrwt beam="2">  1       -1 0.42630649E-01 0.16727698E+03</pdfrwt>
<totfact> 0.23135855E+03</totfact>
</mgrwt>
</event>
<event>
 7    1  0.6387485E-006  0.1451358E+03  0.7546771E-02  0.1215945E+00
          2   -1    0    0  501    0  0.00000000000E+00  0.00000000000E+00  0.14782376072E+03  0.14782376072E+03  0.00000000000E+00 0. -1.
         -2   -1    0    0    0  501 -0.00000000000E+00 -0.00000000000E+00 -0.18751540311E+03  0.18751540311E+03  0.00000000000E+00 0.  1.
         23    2    1    2    0    0  0.73776930421E+02  0.26877219496E+00 -0.12294054165E+03  0.19020717382E+03  0.12498513707E+03 0.  0.
          5    1    3    3  502    0  0.82434891416E+02  0.50715330878E+01 -0.17954183909E+02  0.84650307090E+02  0.47000000000E+01 0.  1.
         -5    1    3    3    0  502 -0.86579609945E+01 -0.48027608928E+01 -0.10498635774E+03  0.10555686673E+03  0.47000000000E+01 0.  1.
        -11    1    1    2    0    0 -0.28207174258E+02  0.10691870978E+02 -0.16886570961E+02  0.34570465190E+02  0.00000000000E+00 0.  1.
         11    1    1    2    0    0 -0.45569756163E+02 -0.10960643173E+02  0.10013547022E+03  0.11056152483E+03  0.00000000000E+00 0. -1.
<mgrwt>
<rscale>  0 0.13807334E+03</rscale>
<asrwt>0</asrwt>
<pdfrwt beam="1">  1        2 0.22742117E-01 0.14513577E+03</pdfrwt>
<pdfrwt beam="2">  1       -2 0.28848523E-01 0.14513577E+03</pdfrwt>
<totfact> 0.25535399E+03</totfact>
</mgrwt>
</event>
<event>
 7    1  0.6387485E-006  0.2162357E+03  0.7546771E-02  0.1141315E+00
          1   -1    0    0  501    0  0.00000000000E+00  0.00000000000E+00  0.34019839973E+03  0.34019839973E+03  0.00000000000E+00 0. -1.
         -1   -1    0    0    0  501 -0.00000000000E+00 -0.00000000000E+00 -0.19020201702E+03  0.19020201702E+03  0.00000000000E+00 0.  1.
         23    2    1    2    0    0  0.12458301483E+03 -0.12494873711E+03 -0.79335960839E+02  0.23033032462E+03  0.12499899707E+03 0.  0.
          5    1    3    3  502    0  0.40487189855E+02 -0.68805256131E+00  0.24721523229E+02  0.47675252169E+02  0.47000000000E+01 0. -1.
         -5    1    3    3    0  502  0.84095824971E+02 -0.12426068454E+03 -0.10405748407E+03  0.18265507245E+03  0.47000000000E+01 0. -1.
        -11    1    1    2    0    0 -0.10290278303E+03  0.97726383208E+02  0.22355254438E+03  0.26479269028E+03  0.00000000000E+00 0. -1.
         11    1    1    2    0    0 -0.21680231796E+02  0.27222353898E+02  0.57797991673E+01  0.35277401844E+02  0.00000000000E+00 0.  1.
<mgrwt>
<rscale>  0 0.21031737E+03</rscale>
<asrwt>0</asrwt>
<pdfrwt beam="1">  1        1 0.52338215E-01 0.21623567E+03</pdfrwt>
<pdfrwt beam="2">  1       -1 0.29261849E-01 0.21623567E+03</pdfrwt>
<totfact> 0.79755892E+02</totfact>
</mgrwt>
</event>
<event>
 7    1  0.6387485E-006  0.2363712E+03  0.7546771E-02  0.1125095E+00
          2   -1    0    0  501    0  0.00000000000E+00  0.00000000000E+00  0.26355460656E+03  0.26355460656E+03  0.00000000000E+00 0. -1.
         -2   -1    0    0    0  501 -0.00000000000E+00 -0.00000000000E+00 -0.21716989660E+03  0.21716989660E+03  0.00000000000E+00 0.  1.
         23    2    1    2    0    0 -0.99641125005E+02  0.17412307203E+03 -0.47994992730E+02  0.24119469043E+03  0.12499664538E+03 0.  0.
          5    1    3    3  502    0 -0.61681086746E+02  0.18462709737E+03 -0.27817648016E+02  0.19669172094E+03  0.47000000000E+01 0.  1.
         -5    1    3    3    0  502 -0.37960038259E+02 -0.10504025344E+02 -0.20177344715E+02  0.44502969482E+02  0.47000000000E+01 0.  1.
        -11    1    1    2    0    0  0.17126990134E+02 -0.13052312297E+01  0.35068846644E+02  0.39049474063E+02  0.00000000000E+00 0. -1.
         11    1    1    2    0    0  0.82514134871E+02 -0.17281784080E+03  0.59310856041E+02  0.20048033868E+03  0.00000000000E+00 0.  1.
<mgrwt>
<rscale>  0 0.23220776E+03</rscale>
<asrwt>0</asrwt>
<pdfrwt beam="1">  1        2 0.40546863E-01 0.23637123E+03</pdfrwt>
<pdfrwt beam="2">  1       -2 0.33410753E-01 0.23637123E+03</pdfrwt>
<totfact> 0.10538252E+03</totfact>
</mgrwt>
</event>
<event>
 7    1  0.6387485E-006  0.1378732E+03  0.7546771E-02  0.1227793E+00
         -1   -1    0    0    0  501 -0.00000000000E+00  0.00000000000E+00  0.34393362154E+03  0.34393362154E+03  0.00000000000E+00 0.  1.
          1   -1    0    0  501    0  0.00000000000E+00 -0.00000000000E+00 -0.62387221470E+02  0.62387221470E+02  0.00000000000E+00 0. -1.
         23    2    1    2    0    0  0.82005203714E+01 -0.57644348614E+02  0.26240733569E+03  0.29642303727E+03  0.12497554855E+03 0.  0.
          5    1    3    3  502    0 -0.45978101047E+02  0.13287242684E+02  0.10284153696E+03  0.11352976842E+03  0.47000000000E+01 0. -1.
         -5    1    3    3    0  502  0.54178621418E+02 -0.70931591298E+02  0.15956579873E+03  0.18289326884E+03  0.47000000000E+01 0. -1.
        -11    1    1    2    0    0  0.26339977273E+02 -0.10890058829E+02  0.16863962163E+02  0.33117684156E+02  0.00000000000E+00 0.  1.
         11    1    1    2    0    0 -0.34540497645E+02  0.68534407443E+02  0.22751022156E+01  0.76780121589E+02  0.00000000000E+00 0. -1.
<mgrwt>
<rscale>  0 0.12977322E+03</rscale>
<asrwt>0</asrwt>
<pdfrwt beam="2">  1        1 0.95980343E-02 0.13787316E+03</pdfrwt>
<pdfrwt beam="1">  1       -1 0.52912864E-01 0.13787316E+03</pdfrwt>
<totfact> 0.24289328E+03</totfact>
</mgrwt>
</event>
<event>
 7    1  0.6387485E-006  0.1384392E+03  0.7546771E-02  0.1226929E+00
         -2   -1    0    0    0  501 -0.00000000000E+00  0.00000000000E+00  0.33951609478E+03  0.33951609478E+03  0.00000000000E+00 0.  1.
          2   -1    0    0  501    0  0.00000000000E+00 -0.00000000000E+00 -0.61068824790E+02  0.61068824790E+02  0.00000000000E+00 0. -1.
         23    2    1    2    0    0 -0.59020054997E+02  0.71370946967E+01  0.25364715570E+03  0.28896763639E+03  0.12502443871E+03 0.  0.
          5    1    3    3  502    0 -0.53517864170E+02 -0.71875101727E+01  0.26423766178E+03  0.26973960405E+03  0.47000000000E+01 0. -1.
         -5    1    3    3    0  502 -0.55021908267E+01  0.14324604869E+02 -0.10590506085E+02  0.19228032341E+02  0.47000000000E+01 0. -1.
        -11    1    1    2    0    0  0.13159456821E+02  0.11705178280E+02  0.52114991161E+02  0.55010497236E+02  0.00000000000E+00 0.  1.
         11    1    1    2    0    0  0.45860598176E+02 -0.18842272977E+02 -0.27314876872E+02  0.56606785941E+02  0.00000000000E+00 0. -1.
<mgrwt>
<rscale>  0 0.13035532E+03</rscale>
<asrwt>0</asrwt>
<pdfrwt beam="2">  1        2 0.93952041E-02 0.13843921E+03</pdfrwt>
<pdfrwt beam="1">  1       -2 0.52233244E-01 0.13843921E+03</pdfrwt>
<totfact> 0.23504907E+03</totfact>
</mgrwt>
</event>
<event>
 7    1  0.6387485E-006  0.1303127E+03  0.7546771E-02  0.1237983E+00
          3   -1    0    0  501    0  0.00000000000E+00  0.00000000000E+00  0.12296106382E+03  0.12296106382E+03  0.00000000000E+00 0.  1.
         -3   -1    0    0    0  501 -0.00000000000E+00 -0.00000000000E+00 -0.11349228134E+03  0.11349228134E+03  0.00000000000E+00 0. -1.
         23    2    1    2    0    0 -0.36489658720E+02  0.49882792133E+01 -0.99954313700E+01  0.13069550779E+03  0.12500011594E+03 0.  0.
          5    1    3    3  502    0 -0.72213444671E+02  0.21833971328E+01 -0.40891118588E+02  0.83148796706E+02  0.47000000000E+01 0.  1.
         -5    1    3    3    0  502  0.35723785951E+02  0.28048820805E+01  0.30895687218E+02  0.47546711083E+02  0.47000000000E+01 0.  1.
        -11    1    1    2    0    0 -0.16043758647E+02  0.16203567389E+02 -0.24931595428E+02  0.33786716890E+02  0.00000000000E+00 0. -1.
         11    1    1    2    0    0  0.52533417367E+02 -0.21191846602E+02  0.44395809276E+02  0.71971120486E+02  0.00000000000E+00 0.  1.
<mgrwt>
<rscale>  0 0.12315373E+03</rscale>
<asrwt>0</asrwt>
<pdfrwt beam="1">  1        3 0.18917087E-01 0.13031273E+03</pdfrwt>
<pdfrwt beam="2">  1       -3 0.17460351E-01 0.13031273E+03</pdfrwt>
<totfact> 0.16104304E+03</totfact>
</mgrwt>
</event>
<event>
 7    1  0.6387485E-006  0.1293486E+03  0.7546771E-02  0.1244380E+00
         -2   -1    0    0    0  501 -0.00000000000E+00  0.00000000000E+00  0.86958462005E+02  0.86958462005E+02  0.00000000000E+00 0. -1.
          2   -1    0    0  501    0  0.00000000000E+00 -0.00000000000E+00 -0.17499393834E+03  0.17499393834E+03  0.00000000000E+00 0.  1.
         23    2    1    2    0    0  0.16472529553E+02  0.28886044793E+02  0.59341446703E+01  0.12948468044E+03  0.12500128232E+03 0.  0.
          5    1    3    3  502    0  0.47677154309E+02 -0.28201296663E+02 -0.20293449349E+02  0.59180556460E+02  0.47000000000E+01 0. -1.
         -5    1    3    3    0  502 -0.31204624756E+02  0.57087341455E+02  0.26227594020E+02  0.70304123980E+02  0.47000000000E+01 0. -1.
        -11    1    1    2    0    0 -0.24867385721E+00 -0.39102102444E+02 -0.10380069854E+03  0.11092168981E+03  0.00000000000E+00 0.  1.
         11    1    1    2    0    0 -0.16223855696E+02  0.10216057651E+02  0.98310775267E+01  0.21546030096E+02  0.00000000000E+00 0. -1.
<mgrwt>
<rscale>  0 0.11922568E+03</rscale>
<asrwt>0</asrwt>
<pdfrwt beam="2">  1        2 0.26922144E-01 0.12934863E+03</pdfrwt>
<pdfrwt beam="1">  1       -2 0.13378225E-01 0.12934863E+03</pdfrwt>
<totfact> 0.77267032E+03</totfact>
</mgrwt>
</event>
<event>
 7    1  0.6387485E-006  0.1423796E+03  0.7546771E-02  0.1222152E+00
         -1   -1    0    0    0  501 -0.00000000000E+00  0.00000000000E+00  0.24002220342E+03  0.24002220342E+03  0.00000000000E+00 0.  1.
          1   -1    0    0  501    0  0.00000000000E+00 -0.00000000000E+00 -0.96309004371E+02  0.96309004371E+02  0.00000000000E+00 0. -1.
         23    2    1    2    0    0  0.41908472900E+02 -0.53878913922E+02  0.17098723727E+03  0.22250527373E+03  0.12495080657E+03 0.  0.
          5    1    3    3  502    0  0.24733141163E+01  0.21667700421E+02  0.12215140486E+03  0.12417190598E+03  0.47000000000E+01 0.  1.
         -5    1    3    3    0  502  0.39435158783E+02 -0.75546614343E+02  0.48835832405E+02  0.98333367753E+02  0.47000000000E+01 0.  1.
        -11    1    1    2    0    0 -0.29039273566E+02  0.28541416708E+02  0.29537780066E+02  0.50302806365E+02  0.00000000000E+00 0.  1.
         11    1    1    2    0    0 -0.12869199334E+02  0.25337497214E+02 -0.56811818280E+02  0.63523127700E+02  0.00000000000E+00 0. -1.
<mgrwt>
<rscale>  0 0.13363997E+03</rscale>
<asrwt>0</asrwt>
<pdfrwt beam="2">  1        1 0.14816770E-01 0.14237964E+03</pdfrwt>
<pdfrwt beam="1">  1       -1 0.36926493E-01 0.14237964E+03</pdfrwt>
<totfact> 0.26148133E+03</totfact>
</mgrwt>
</event>
<event>
 7    1  0.6387485E-006  0.1109361E+03  0.7546771E-02  0.1270159E+00
         -2   -1    0    0    0  501 -0.00000000000E+00  0.00000000000E+00  0.18665055343E+03  0.18665055343E+03  0.00000000000E+00 0.  1.
          2   -1    0    0  501    0  0.00000000000E+00 -0.00000000000E+00 -0.11585829476E+03  0.11585829476E+03  0.00000000000E+00 0. -1.
         23    2    1    2    0    0  0.55388596398E+01  0.10260071389E+01  0.14783042470E+03  0.18482601888E+03  0.11079301030E+03 0.  0.
          5    1    3    3  502    0  0.55718623288E+02  0.14043110374E+02  0.63899737369E+02  0.86064164238E+02  0.47000000000E+01 0. -1.
         -5    1    3    3    0  502 -0.50179763649E+02 -0.13017103235E+02  0.83930687329E+02  0.98761854640E+02  0.47000000000E+01 0.  1.
        -11    1    1    2    0    0 -0.36168411961E+02 -0.29483850756E+02 -0.34449401280E+02  0.58001833831E+02  0.00000000000E+00 0. -1.
         11    1    1    2    0    0  0.30629552321E+02  0.28457843617E+02 -0.42588764745E+02  0.59680995478E+02  0.00000000000E+00 0.  1.
<mgrwt>
<rscale>  0 0.10498005E+03</rscale>
<asrwt>0</asrwt>
<pdfrwt beam="2">  1        2 0.17824353E-01 0.11093612E+03</pdfrwt>
<pdfrwt beam="1">  1       -2 0.28715470E-01 0.11093612E+03</pdfrwt>
<totfact> 0.33403554E+03</totfact>
</mgrwt>
</event>
<event>
 7    1  0.6387485E-006  0.1254830E+03  0.7546771E-02  0.1248048E+00
         -1   -1    0    0    0  501 -0.00000000000E+00  0.00000000000E+00  0.60484727684E+03  0.60484727684E+03  0.00000000000E+00 0.  1.
          1   -1    0    0  501    0  0.00000000000E+00 -0.00000000000E+00 -0.20094238408E+02  0.20094238408E+02  0.00000000000E+00 0. -1.
         23    2    1    2    0    0  0.16500779504E+01  0.10864342221E+02  0.33611333828E+03  0.35877313911E+03  0.12500092995E+03 0.  0.
          5    1    3    3  502    0 -0.30693682554E+02  0.43725282594E+02  0.67600449898E+02  0.86289705719E+02  0.47000000000E+01 0.  1.
         -5    1    3    3    0  502  0.32343760504E+02 -0.32860940374E+02  0.26851288839E+03  0.27248343340E+03  0.47000000000E+01 0.  1.
        -11    1    1    2    0    0 -0.93313154357E+00 -0.45894503713E+02  0.20564043955E+03  0.21070160556E+03  0.00000000000E+00 0.  1.
         11    1    1    2    0    0 -0.71694640679E+00  0.35030161492E+02  0.42999260600E+02  0.55466770579E+02  0.00000000000E+00 0. -1.
<mgrwt>
<rscale>  0 0.11704774E+03</rscale>
<asrwt>0</asrwt>
<pdfrwt beam="2">  1        1 0.30914218E-02 0.12548302E+03</pdfrwt>
<pdfrwt beam="1">  1       -1 0.93053413E-01 0.12548302E+03</pdfrwt>
<totfact> 0.36864990E+03</totfact>
</mgrwt>
</event>
<event>
 7    1  0.6387485E-006  0.1518005E+03  0.7546771E-02  0.1206682E+00
         -1   -1    0    0    0  501 -0.00000000000E+00  0.00000000000E+00  0.39385649886E+02  0.39385649886E+02  0.00000000000E+00 0.  1.
          1   -1    0    0  501    0  0.00000000000E+00 -0.00000000000E+00 -0.49241710115E+03  0.49241710115E+03  0.00000000000E+00 0. -1.
         23    2    1    2    0    0  0.74661219614E+02  0.43091133313E+02 -0.25584736353E+03  0.29749162970E+03  0.12494900093E+03 0.  0.
          5    1    3    3  502    0 -0.26929452993E+02  0.12859979482E+02 -0.13801582735E+02  0.33213674846E+02  0.47000000000E+01 0.  1.
         -5    1    3    3    0  502  0.10159067261E+03  0.30231153830E+02 -0.24204578079E+03  0.26427795486E+03  0.47000000000E+01 0.  1.
        -11    1    1    2    0    0 -0.46925773984E+02  0.24906526877E+02 -0.84083806926E+02  0.99460795956E+02  0.00000000000E+00 0. -1.
         11    1    1    2    0    0 -0.27735445630E+02 -0.67997660189E+02 -0.11310028081E+03  0.13485032538E+03  0.00000000000E+00 0.  1.
<mgrwt>
<rscale>  0 0.14505684E+03</rscale>
<asrwt>0</asrwt>
<pdfrwt beam="2">  1        1 0.75756478E-01 0.15180051E+03</pdfrwt>
<pdfrwt beam="1">  1       -1 0.60593307E-02 0.15180051E+03</pdfrwt>
<totfact> 0.58680842E+03</totfact>
</mgrwt>
</event>
<event>
 7    1  0.6387485E-006  0.1896478E+03  0.7546771E-02  0.1163575E+00
         -3   -1    0    0    0  501 -0.00000000000E+00  0.00000000000E+00  0.13980847245E+03  0.13980847245E+03  0.00000000000E+00 0.  1.
          3   -1    0    0  501    0  0.00000000000E+00 -0.00000000000E+00 -0.29378155238E+03  0.29378155238E+03  0.00000000000E+00 0. -1.
         23    2    1    2    0    0 -0.72111389863E+02  0.12306315786E+03  0.19864190384E+02  0.19068524032E+03  0.12498672509E+03 0.  0.
          5    1    3    3  502    0 -0.50174056149E+02 -0.12038611365E+02  0.13710868750E+02  0.53595167654E+02  0.47000000000E+01 0.  1.
         -5    1    3    3    0  502 -0.21937333714E+02  0.13510176922E+03  0.61533216346E+01  0.13709007267E+03  0.47000000000E+01 0.  1.
        -11    1    1    2    0    0  0.40180526665E+02 -0.21582628874E+00 -0.61157561409E+02  0.73176284557E+02  0.00000000000E+00 0.  1.
         11    1    1    2    0    0  0.31930863197E+02 -0.12284733157E+03 -0.11267970890E+03  0.16972849995E+03  0.00000000000E+00 0. -1.
<mgrwt>
<rscale>  0 0.18443929E+03</rscale>
<asrwt>0</asrwt>
<pdfrwt beam="2">  1        3 0.45197162E-01 0.18964777E+03</pdfrwt>
<pdfrwt beam="1">  1       -3 0.21508996E-01 0.18964777E+03</pdfrwt>
<totfact> 0.23401906E+02</totfact>
</mgrwt>
</event>
<event>
 7    1  0.6387485E-006  0.2069840E+03  0.7546771E-02  0.1148067E+00
         -1   -1    0    0    0  501 -0.00000000000E+00  0.00000000000E+00  0.12909766064E+04  0.12909766064E+04  0.00000000000E+00 0.  1.
          1   -1    0    0  501    0  0.00000000000E+00 -0.00000000000E+00 -0.34440717872E+02  0.34440717872E+02  0.00000000000E+00 0. -1.
         23    2    1    2    0    0 -0.13835219711E+03 -0.89876973169E+02  0.88817474334E+03  0.91197408864E+03  0.12499265131E+03 0.  0.
          5    1    3    3  502    0 -0.13845856102E+03 -0.10346702148E+03  0.87666598433E+03  0.89355555828E+03  0.47000000000E+01 0.  1.
         -5    1    3    3    0  502  0.10636391131E+00  0.13590048314E+02  0.11508759016E+02  0.18418530358E+02  0.47000000000E+01 0.  1.
        -11    1    1    2    0    0  0.50973241911E+02  0.30595684351E+01  0.47461777843E+02  0.69715512664E+02  0.00000000000E+00 0. -1.
         11    1    1    2    0    0  0.87378955199E+02  0.86817404734E+02  0.32089936730E+03  0.34372772293E+03  0.00000000000E+00 0.  1.
<mgrwt>
<rscale>  0 0.20199485E+03</rscale>
<asrwt>0</asrwt>
<pdfrwt beam="2">  1        1 0.52985730E-02 0.20698397E+03</pdfrwt>
<pdfrwt beam="1">  1       -1 0.19861175E+00 0.20698397E+03</pdfrwt>
<totfact> 0.26273057E+02</totfact>
</mgrwt>
</event>
<event>
 7    1  0.6387485E-006  0.1434501E+03  0.7546771E-02  0.1219022E+00
         -1   -1    0    0    0  501 -0.00000000000E+00  0.00000000000E+00  0.80624956893E+02  0.80624956893E+02  0.00000000000E+00 0.  1.
          1   -1    0    0  501    0  0.00000000000E+00 -0.00000000000E+00 -0.21192079563E+03  0.21192079563E+03  0.00000000000E+00 0. -1.
         23    2    1    2    0    0  0.27748777051E+02  0.64668602475E+02 -0.93042361620E+02  0.17098193890E+03  0.12500367835E+03 0.  0.
          5    1    3    3  502    0 -0.30325313005E+02  0.75994687807E+02 -0.68265760890E+02  0.10666358935E+03  0.47000000000E+01 0.  1.
         -5    1    3    3    0  502  0.58074090056E+02 -0.11326085332E+02 -0.24776600730E+02  0.64318349547E+02  0.47000000000E+01 0.  1.
        -11    1    1    2    0    0 -0.45536759362E+02 -0.60666781257E+02  0.35694615323E+01  0.75939422284E+02  0.00000000000E+00 0.  1.
         11    1    1    2    0    0  0.17787982311E+02 -0.40018212186E+01 -0.41822938650E+02  0.45624391339E+02  0.00000000000E+00 0. -1.
<mgrwt>
<rscale>  0 0.13585201E+03</rscale>
<asrwt>0</asrwt>
<pdfrwt beam="2">  1        1 0.32603199E-01 0.14345014E+03</pdfrwt>
<pdfrwt beam="1">  1       -1 0.12403840E-01 0.14345014E+03</pdfrwt>
<totfact> 0.56716586E+03</totfact>
</mgrwt>
</event>
<event>
 7    1  0.6387485E-006  0.1288432E+03  0.7546771E-02  0.1242716E+00
         -3   -1    0    0    0  501 -0.00000000000E+00  0.00000000000E+00  0.44104760056E+02  0.44104760056E+02  0.00000000000E+00 0.  1.
          3   -1    0    0  501    0  0.00000000000E+00 -0.00000000000E+00 -0.29376366254E+03  0.29376366254E+03  0.00000000000E+00 0. -1.
         23    2    1    2    0    0  0.87301680505E+01 -0.30013466830E+02 -0.15833267368E+03  0.20413182152E+03  0.12499416377E+03 0.  0.
          5    1    3    3  502    0  0.58389270304E+02 -0.44376233925E+02 -0.11518988083E+03  0.13663585060E+03  0.47000000000E+01 0.  1.
         -5    1    3    3    0  502 -0.49659102253E+02  0.14362767096E+02 -0.43142792843E+02  0.67495970913E+02  0.47000000000E+01 0.  1.
        -11    1    1    2    0    0 -0.45028465874E+02 -0.51650059896E+01 -0.30414664751E+02  0.54582889789E+02  0.00000000000E+00 0.  1.
         11    1    1    2    0    0  0.36298297823E+02  0.35178472819E+02 -0.60911564054E+02  0.79153711286E+02  0.00000000000E+00 0. -1.
<mgrwt>
<rscale>  0 0.12023144E+03</rscale>
<asrwt>0</asrwt>
<pdfrwt beam="2">  1        3 0.45194409E-01 0.12884318E+03</pdfrwt>
<pdfrwt beam="1">  1       -3 0.67853478E-02 0.12884318E+03</pdfrwt>
<totfact> 0.15541954E+03</totfact>
</mgrwt>
</event>
<event>
 7    1  0.6387485E-006  0.1431654E+03  0.7546771E-02  0.1216063E+00
         -1   -1    0    0    0  501 -0.00000000000E+00  0.00000000000E+00  0.97846511856E+02  0.97846511856E+02  0.00000000000E+00 0.  1.
          1   -1    0    0  501    0  0.00000000000E+00 -0.00000000000E+00 -0.21431908295E+03  0.21431908295E+03  0.00000000000E+00 0. -1.
         23    2    1    2    0    0 -0.84516761059E+02 -0.16096638177E+02 -0.11698086878E+01  0.14317013370E+03  0.11442960312E+03 0.  0.
          5    1    3    3  502    0 -0.97105347351E+02 -0.11515121645E+02 -0.36978638576E+02  0.10464968333E+03  0.47000000000E+01 0. -1.
         -5    1    3    3    0  502  0.12588586292E+02 -0.45815165316E+01  0.35808829888E+02  0.38520450367E+02  0.47000000000E+01 0.  1.
        -11    1    1    2    0    0  0.86497877234E+02  0.33666842052E+02 -0.59004252969E+02  0.10998563946E+03  0.00000000000E+00 0. -1.
         11    1    1    2    0    0 -0.19811161755E+01 -0.17570203875E+02 -0.56298509439E+02  0.59009821645E+02  0.00000000000E+00 0.  1.
<mgrwt>
<rscale>  0 0.13798746E+03</rscale>
<asrwt>0</asrwt>
<pdfrwt beam="2">  1        1 0.32972166E-01 0.14316535E+03</pdfrwt>
<pdfrwt beam="1">  1       -1 0.15053310E-01 0.14316535E+03</pdfrwt>
<totfact> 0.41355855E+03</totfact>
</mgrwt>
</event>
<event>
 7    1  0.6387485E-006  0.1282318E+03  0.7546771E-02  0.1243241E+00
         -2   -1    0    0    0  501 -0.00000000000E+00  0.00000000000E+00  0.84629413424E+02  0.84629413424E+02  0.00000000000E+00 0.  1.
          2   -1    0    0  501    0  0.00000000000E+00 -0.00000000000E+00 -0.26444911048E+03  0.26444911048E+03  0.00000000000E+00 0. -1.
         23    2    1    2    0    0  0.53992040349E+01  0.28095190388E+02  0.16835892139E+02  0.12933233609E+03  0.12499965907E+03 0.  0.
          5    1    3    3  502    0  0.51819665325E+02 -0.75032190306E+01  0.40185599376E+02  0.66170600779E+02  0.47000000000E+01 0. -1.
         -5    1    3    3    0  502 -0.46420461291E+02  0.35598409418E+02 -0.23349707237E+02  0.63161735312E+02  0.47000000000E+01 0. -1.
        -11    1    1    2    0    0 -0.47379628145E+02 -0.25469577871E+02 -0.86837745822E+02  0.10214853234E+03  0.00000000000E+00 0.  1.
         11    1    1    2    0    0  0.41980424110E+02 -0.26256125165E+01 -0.10981784337E+03  0.11759765547E+03  0.00000000000E+00 0. -1.
<mgrwt>
<rscale>  0 0.11991276E+03</rscale>
<asrwt>0</asrwt>
<pdfrwt beam="2">  1        2 0.40684478E-01 0.12823184E+03</pdfrwt>
<pdfrwt beam="1">  1       -2 0.13019910E-01 0.12823184E+03</pdfrwt>
<totfact> 0.51769769E+03</totfact>
</mgrwt>
</event>
<event>
 6    1  0.6387485E-006  0.2045116E+03  0.7546771E-02  0.1159099E+00
          1   -1    0    0  501    0  0.00000000000E+00  0.00000000000E+00  0.11156974917E+04  0.11156974917E+04  0.00000000000E+00 0. -1.
         -1   -1    0    0    0  501 -0.00000000000E+00 -0.00000000000E+00 -0.39030907994E+02  0.39030907994E+02  0.00000000000E+00 0.  1.
          5    1    1    2  502    0 -0.51148844194E+02 -0.58214209698E+02  0.84679473075E+02  0.11488168537E+03  0.47000000000E+01 0. -1.
         -5    1    1    2    0  502  0.11645953109E+03 -0.41608341766E+02  0.21143206365E+03  0.24498915083E+03  0.47000000000E+01 0.  1.
        -11    1    1    2    0    0 -0.88496443441E+02  0.83763993345E+02  0.62554134803E+03  0.63729899198E+03  0.00000000000E+00 0. -1.
         11    1    1    2    0    0  0.23185756549E+02  0.16058558119E+02  0.15501369895E+03  0.15755857152E+03  0.00000000000E+00 0.  1.
<mgrwt>
<rscale>  0 0.18929504E+03</rscale>
<asrwt>0</asrwt>
<pdfrwt beam="1">  1        1 0.17164574E+00 0.20451156E+03</pdfrwt>
<pdfrwt beam="2">  1       -1 0.60047559E-02 0.20451156E+03</pdfrwt>
<totfact> 0.17527158E+03</totfact>
</mgrwt>
</event>
<event>
 7    1  0.6387485E-006  0.1861211E+03  0.7546771E-02  0.1166752E+00
          1   -1    0    0  501    0  0.00000000000E+00  0.00000000000E+00  0.11067097065E+03  0.11067097065E+03  0.00000000000E+00 0.  1.
         -1   -1    0    0    0  501 -0.00000000000E+00 -0.00000000000E+00 -0.28223061731E+03  0.28223061731E+03  0.00000000000E+00 0. -1.
         23    2    1    2    0    0  0.10499206183E+03  0.89429518331E+02 -0.79556298908E+02  0.20241117091E+03  0.12498042093E+03 0.  0.
          5    1    3    3  502    0 -0.74105056675E+01 -0.19947792893E+02  0.74063742916E+01  0.23016828967E+02  0.47000000000E+01 0.  1.
         -5    1    3    3    0  502  0.11240256750E+03  0.10937731122E+03 -0.86962673199E+02  0.17939434194E+03  0.47000000000E+01 0.  1.
        -11    1    1    2    0    0  0.14801582705E+01  0.12668485735E+02 -0.25843498045E+02  0.28819573046E+02  0.00000000000E+00 0. -1.
         11    1    1    2    0    0 -0.10647222010E+03 -0.10209800407E+03 -0.66159849716E+02  0.16167084401E+03  0.00000000000E+00 0.  1.
<mgrwt>
<rscale>  0 0.18109034E+03</rscale>
<asrwt>0</asrwt>
<pdfrwt beam="1">  1        1 0.17026303E-01 0.18612114E+03</pdfrwt>
<pdfrwt beam="2">  1       -1 0.43420094E-01 0.18612114E+03</pdfrwt>
<totfact> 0.16584022E+03</totfact>
</mgrwt>
</event>
<event>
 7    1  0.6387485E-006  0.1319374E+03  0.7546771E-02  0.1234084E+00
         -1   -1    0    0    0  501 -0.00000000000E+00  0.00000000000E+00  0.24365088484E+03  0.24365088484E+03  0.00000000000E+00 0.  1.
          1   -1    0    0  501    0  0.00000000000E+00 -0.00000000000E+00 -0.10371193262E+03  0.10371193262E+03  0.00000000000E+00 0. -1.
         23    2    1    2    0    0  0.34915151308E+02  0.23733164468E+02  0.18721838015E+03  0.22903753544E+03  0.12500055955E+03 0.  0.
          5    1    3    3  502    0  0.71601087550E+02  0.35232080645E+02  0.72359501852E+02  0.10782394332E+03  0.47000000000E+01 0. -1.
         -5    1    3    3    0  502 -0.36685936242E+02 -0.11498916177E+02  0.11485887830E+03  0.12121359212E+03  0.47000000000E+01 0. -1.
        -11    1    1    2    0    0 -0.28375595353E+02  0.29382040426E+02  0.77374869905E+01  0.41573397939E+02  0.00000000000E+00 0.  1.
         11    1    1    2    0    0 -0.65395559551E+01 -0.53115204894E+02 -0.55016914919E+02  0.76751884083E+02  0.00000000000E+00 0. -1.
<mgrwt>
<rscale>  0 0.12563259E+03</rscale>
<asrwt>0</asrwt>
<pdfrwt beam="2">  1        1 0.15955682E-01 0.13193737E+03</pdfrwt>
<pdfrwt beam="1">  1       -1 0.37484751E-01 0.13193737E+03</pdfrwt>
<totfact> 0.23072866E+03</totfact>
</mgrwt>
</event>
<event>
 7    1  0.6387485E-006  0.1487262E+03  0.7546771E-02  0.1211371E+00
         -2   -1    0    0    0  501 -0.00000000000E+00  0.00000000000E+00  0.16678713520E+03  0.16678713520E+03  0.00000000000E+00 0.  1.
          2   -1    0    0  501    0  0.00000000000E+00 -0.00000000000E+00 -0.12546676939E+03  0.12546676939E+03  0.00000000000E+00 0. -1.
         23    2    1    2    0    0  0.42347187150E+02 -0.68562518104E+02  0.74120839775E+02  0.16617273451E+03  0.12500150263E+03 0.  0.
          5    1    3    3  502    0 -0.28694262897E+02 -0.58642339410E+02  0.37269272536E+01  0.65561152228E+02  0.47000000000E+01 0. -1.
         -5    1    3    3    0  502  0.71041450047E+02 -0.99201786943E+01  0.70393912522E+02  0.10061158229E+03  0.47000000000E+01 0. -1.
        -11    1    1    2    0    0 -0.19337173611E+02  0.28097301851E+02  0.31681696430E+02  0.46552277530E+02  0.00000000000E+00 0.  1.
         11    1    1    2    0    0 -0.23010013540E+02  0.40465216253E+02 -0.64482170399E+02  0.79528892542E+02  0.00000000000E+00 0. -1.
<mgrwt>
<rscale>  0 0.14146492E+03</rscale>
<asrwt>0</asrwt>
<pdfrwt beam="2">  1        2 0.19302580E-01 0.14872619E+03</pdfrwt>
<pdfrwt beam="1">  1       -2 0.25659559E-01 0.14872619E+03</pdfrwt>
<totfact> 0.37857069E+03</totfact>
</mgrwt>
</event>
<event>
 7    1  0.6387485E-006  0.1698357E+03  0.7546771E-02  0.1183908E+00
          2   -1    0    0  501    0  0.00000000000E+00  0.00000000000E+00  0.25295341162E+03  0.25295341162E+03  0.00000000000E+00 0. -1.
         -2   -1    0    0    0  501 -0.00000000000E+00 -0.00000000000E+00 -0.20742270976E+03  0.20742270976E+03  0.00000000000E+00 0.  1.
         23    2    1    2    0    0  0.49336590761E+02  0.10384952922E+03 -0.14171797825E+03  0.22119709815E+03  0.12500138786E+03 0.  0.
          5    1    3    3  502    0  0.40564771668E+02  0.35445766507E+02 -0.14213336592E+03  0.15207197892E+03  0.47000000000E+01 0. -1.
         -5    1    3    3    0  502  0.87718190930E+01  0.68403762709E+02  0.41538767074E+00  0.69125119239E+02  0.47000000000E+01 0. -1.
        -11    1    1    2    0    0 -0.60468547932E+02 -0.70813929292E+02  0.18129847914E+03  0.20381412221E+03  0.00000000000E+00 0. -1.
         11    1    1    2    0    0  0.11131957171E+02 -0.33035599924E+02  0.59502009584E+01  0.35364901021E+02  0.00000000000E+00 0.  1.
<mgrwt>
<rscale>  0 0.16431609E+03</rscale>
<asrwt>0</asrwt>
<pdfrwt beam="1">  1        2 0.38915909E-01 0.16983572E+03</pdfrwt>
<pdfrwt beam="2">  1       -2 0.31911186E-01 0.16983572E+03</pdfrwt>
<totfact> 0.11908377E+03</totfact>
</mgrwt>
</event>
<event>
 7    1  0.6387485E-006  0.1440298E+03  0.7546771E-02  0.1218088E+00
         -1   -1    0    0    0  501 -0.00000000000E+00  0.00000000000E+00  0.10767776726E+03  0.10767776726E+03  0.00000000000E+00 0.  1.
          1   -1    0    0  501    0  0.00000000000E+00 -0.00000000000E+00 -0.18133652029E+03  0.18133652029E+03  0.00000000000E+00 0. -1.
         23    2    1    2    0    0 -0.21955496512E+02 -0.68099212854E+02  0.12109264521E+02  0.14453796125E+03  0.12500016534E+03 0.  0.
          5    1    3    3  502    0  0.16159069676E+02  0.30374756411E+02 -0.10840370445E+02  0.36377809049E+02  0.47000000000E+01 0. -1.
         -5    1    3    3    0  502 -0.38114566188E+02 -0.98473969265E+02  0.22949634966E+02  0.10816015220E+03  0.47000000000E+01 0. -1.
        -11    1    1    2    0    0  0.36919765872E+02  0.42390480255E+02 -0.27404497330E+01  0.56280831488E+02  0.00000000000E+00 0.  1.
         11    1    1    2    0    0 -0.14964269360E+02  0.25708732599E+02 -0.83027567818E+02  0.88195494823E+02  0.00000000000E+00 0. -1.
<mgrwt>
<rscale>  0 0.13652129E+03</rscale>
<asrwt>0</asrwt>
<pdfrwt beam="2">  1        1 0.27897926E-01 0.14402982E+03</pdfrwt>
<pdfrwt beam="1">  1       -1 0.16565810E-01 0.14402982E+03</pdfrwt>
<totfact> 0.43809293E+03</totfact>
</mgrwt>
</event>
<event>
 7    1  0.6387485E-006  0.1564616E+03  0.7546771E-02  0.1201030E+00
         -3   -1    0    0    0  501 -0.00000000000E+00  0.00000000000E+00  0.65314972506E+03  0.65314972506E+03  0.00000000000E+00 0.  1.
          3   -1    0    0  501    0  0.00000000000E+00 -0.00000000000E+00 -0.31814887672E+02  0.31814887672E+02  0.00000000000E+00 0. -1.
         23    2    1    2    0    0 -0.65786487653E+02  0.67277755384E+02  0.30659835072E+03  0.34421329640E+03  0.12500434564E+03 0.  0.
          5    1    3    3  502    0 -0.12444535312E+02  0.66917325756E+02  0.27207620384E+03  0.28050017049E+03  0.47000000000E+01 0.  1.
         -5    1    3    3    0  502 -0.53341952341E+02  0.36042962771E+00  0.34522146880E+02  0.63713125918E+02  0.47000000000E+01 0.  1.
        -11    1    1    2    0    0 -0.62329991942E+01 -0.31602605669E+02  0.18757059987E+03  0.19031632852E+03  0.00000000000E+00 0.  1.
         11    1    1    2    0    0  0.72019486847E+02 -0.35675149715E+02  0.12716588679E+03  0.15043498781E+03  0.00000000000E+00 0. -1.
<mgrwt>
<rscale>  0 0.14954748E+03</rscale>
<asrwt>0</asrwt>
<pdfrwt beam="2">  1        3 0.48945986E-02 0.15646164E+03</pdfrwt>
<pdfrwt beam="1">  1       -3 0.10048456E+00 0.15646164E+03</pdfrwt>
<totfact> 0.49972225E+02</totfact>
</mgrwt>
</event>
<event>
 7    1  0.6387485E-006  0.2458390E+03  0.7546771E-02  0.1118414E+00
          3   -1    0    0  501    0  0.00000000000E+00  0.00000000000E+00  0.44186557148E+03  0.44186557148E+03  0.00000000000E+00 0. -1.
         -3   -1    0    0    0  501 -0.00000000000E+00 -0.00000000000E+00 -0.12929810495E+03  0.12929810495E+03  0.00000000000E+00 0.  1.
         23    2    1    2    0    0 -0.16490312594E+03  0.13273252421E+03  0.14207042721E+03  0.28393802772E+03  0.12500333344E+03 0.  0.
          5    1    3    3  502    0 -0.30632457716E+02  0.62203512212E+02 -0.86892930747E+01  0.70037263020E+02  0.47000000000E+01 0. -1.
         -5    1    3    3    0  502 -0.13427066822E+03  0.70529012001E+02  0.15075972029E+03  0.21390076470E+03  0.47000000000E+01 0. -1.
        -11    1    1    2    0    0  0.12415612317E+03 -0.78203245047E+02  0.16208395375E+03  0.21863599548E+03  0.00000000000E+00 0.  1.
         11    1    1    2    0    0  0.40747002770E+02 -0.54529279166E+02  0.84130855694E+01  0.68589653228E+02  0.00000000000E+00 0. -1.
<mgrwt>
<rscale>  0 0.24208089E+03</rscale>
<asrwt>0</asrwt>
<pdfrwt beam="1">  1        3 0.67979318E-01 0.24583897E+03</pdfrwt>
<pdfrwt beam="2">  1       -3 0.19892016E-01 0.24583897E+03</pdfrwt>
<totfact> 0.11945802E+02</totfact>
</mgrwt>
</event>
<event>
 7    1  0.6387485E-006  0.1470622E+03  0.7546771E-02  0.1212742E+00
          2   -1    0    0  501    0  0.00000000000E+00  0.00000000000E+00  0.48297756536E+03  0.48297756536E+03  0.00000000000E+00 0. -1.
         -2   -1    0    0    0  501 -0.00000000000E+00 -0.00000000000E+00 -0.38148541571E+02  0.38148541571E+02  0.00000000000E+00 0.  1.
         23    2    1    2    0    0 -0.75404869419E+02 -0.17771528834E+02  0.21020974451E+03  0.25654517780E+03  0.12500227996E+03 0.  0.
          5    1    3    3  502    0  0.17531701652E+02  0.35465505312E+02  0.58548162620E+02  0.70817652997E+02  0.47000000000E+01 0.  1.
         -5    1    3    3    0  502 -0.92936571070E+02 -0.53237034146E+02  0.15166158189E+03  0.18572752480E+03  0.47000000000E+01 0.  1.
        -11    1    1    2    0    0  0.77875458406E+01  0.33790509823E+02  0.22418270913E+02  0.41291927722E+02  0.00000000000E+00 0.  1.
         11    1    1    2    0    0  0.67617323578E+02 -0.16018980989E+02  0.21220100837E+03  0.22328900141E+03  0.00000000000E+00 0. -1.
<mgrwt>
<rscale>  0 0.14043678E+03</rscale>
<asrwt>0</asrwt>
<pdfrwt beam="1">  1        2 0.74304237E-01 0.14706220E+03</pdfrwt>
<pdfrwt beam="2">  1       -2 0.58690067E-02 0.14706220E+03</pdfrwt>
<totfact> 0.94942336E+03</totfact>
</mgrwt>
</event>
<event>
 7    1  0.6387485E-006  0.1656061E+03  0.7546771E-02  0.1189860E+00
         -2   -1    0    0    0  501 -0.00000000000E+00  0.00000000000E+00  0.38022513128E+03  0.38022513128E+03  0.00000000000E+00 0.  1.
          2   -1    0    0  501    0  0.00000000000E+00 -0.00000000000E+00 -0.61665039638E+02  0.61665039638E+02  0.00000000000E+00 0. -1.
         23    2    1    2    0    0 -0.10860111364E+03 -0.21047413414E+01  0.17414140843E+03  0.24031354990E+03  0.12500696107E+03 0.  0.
          5    1    3    3  502    0 -0.92804273934E+02  0.35225167694E+02  0.53297598318E+02  0.11276599526E+03  0.47000000000E+01 0.  1.
         -5    1    3    3    0  502 -0.15796839704E+02 -0.37329909035E+02  0.12084381011E+03  0.12754755464E+03  0.47000000000E+01 0.  1.
        -11    1    1    2    0    0  0.56916892192E+02  0.19544729199E+02  0.13280930643E+03  0.14580754758E+03  0.00000000000E+00 0.  1.
         11    1    1    2    0    0  0.51684221446E+02 -0.17439987857E+02  0.11609376780E+02  0.55769073438E+02  0.00000000000E+00 0. -1.
<mgrwt>
<rscale>  0 0.15897380E+03</rscale>
<asrwt>0</asrwt>
<pdfrwt beam="2">  1        2 0.94869295E-02 0.16560608E+03</pdfrwt>
<pdfrwt beam="1">  1       -2 0.58496172E-01 0.16560608E+03</pdfrwt>
<totfact> 0.18638840E+03</totfact>
</mgrwt>
</event>
<event>
 7    1  0.6387485E-006  0.1278832E+03  0.7546771E-02  0.1244825E+00
          1   -1    0    0  501    0  0.00000000000E+00  0.00000000000E+00  0.23216470821E+03  0.23216470821E+03  0.00000000000E+00 0. -1.
         -1   -1    0    0    0  501 -0.00000000000E+00 -0.00000000000E+00 -0.53854281637E+02  0.53854281637E+02  0.00000000000E+00 0.  1.
         23    2    1    2    0    0  0.16450305763E+02  0.21418738000E+02  0.10158709825E+03  0.16332194798E+03  0.12499898106E+03 0.  0.
          5    1    3    3  502    0  0.40924569163E+02 -0.21031052877E+02 -0.44011748105E+01  0.46460584220E+02  0.47000000000E+01 0.  1.
         -5    1    3    3    0  502 -0.24474263400E+02  0.42449790877E+02  0.10598827306E+03  0.11686136376E+03  0.47000000000E+01 0.  1.
        -11    1    1    2    0    0 -0.34963232454E+02 -0.48867946724E+02  0.35377652244E+02  0.69728631988E+02  0.00000000000E+00 0. -1.
         11    1    1    2    0    0  0.18512926691E+02  0.27449208724E+02  0.41345676084E+02  0.52968409879E+02  0.00000000000E+00 0.  1.
<mgrwt>
<rscale>  0 0.11895839E+03</rscale>
<asrwt>0</asrwt>
<pdfrwt beam="1">  1        1 0.35717647E-01 0.12788323E+03</pdfrwt>
<pdfrwt beam="2">  1       -1 0.82852743E-02 0.12788323E+03</pdfrwt>
<totfact> 0.93089264E+03</totfact>
</mgrwt>
</event>
<event>
 7    1  0.6387485E-006  0.1335141E+03  0.7546771E-02  0.1234954E+00
          1   -1    0    0  501    0  0.00000000000E+00  0.00000000000E+00  0.86665096145E+03  0.86665096145E+03  0.00000000000E+00 0. -1.
         -1   -1    0    0    0  501 -0.00000000000E+00 -0.00000000000E+00 -0.16163908044E+02  0.16163908044E+02  0.00000000000E+00 0.  1.
         23    2    1    2    0    0 -0.36756219327E+02  0.29163524980E+02  0.45554127325E+03  0.47470397335E+03  0.12499791930E+03 0.  0.
          5    1    3    3  502    0 -0.27319282035E+02  0.52444923776E+02  0.44164909618E+03  0.44561511123E+03  0.47000000000E+01 0. -1.
         -5    1    3    3    0  502 -0.94369372922E+01 -0.23281398796E+02  0.13892177066E+02  0.29088862112E+02  0.47000000000E+01 0. -1.
        -11    1    1    2    0    0  0.15504397589E+02  0.29225961372E+02  0.71939503745E+02  0.79182291971E+02  0.00000000000E+00 0.  1.
         11    1    1    2    0    0  0.21251821738E+02 -0.58389486352E+02  0.32300627641E+03  0.32892860417E+03  0.00000000000E+00 0. -1.
<mgrwt>
<rscale>  0 0.12507389E+03</rscale>
<asrwt>0</asrwt>
<pdfrwt beam="1">  1        1 0.13333088E+00 0.13351408E+03</pdfrwt>
<pdfrwt beam="2">  1       -1 0.24867558E-02 0.13351408E+03</pdfrwt>
<totfact> 0.97161065E+03</totfact>
</mgrwt>
</event>
<event>
 7    1  0.6387485E-006  0.1820632E+03  0.7546771E-02  0.1171422E+00
         -2   -1    0    0    0  501 -0.00000000000E+00  0.00000000000E+00  0.82565702352E+02  0.82565702352E+02  0.00000000000E+00 0. -1.
          2   -1    0    0  501    0  0.00000000000E+00 -0.00000000000E+00 -0.47697197399E+03  0.47697197399E+03  0.00000000000E+00 0.  1.
         23    2    1    2    0    0 -0.19309009058E+02 -0.13096115869E+03 -0.65075647888E+02  0.19334385231E+03  0.12499336927E+03 0.  0.
          5    1    3    3  502    0  0.15800319420E+02 -0.23680009154E+02  0.32929111516E+02  0.43781380889E+02  0.47000000000E+01 0.  1.
         -5    1    3    3    0  502 -0.35109328477E+02 -0.10728114954E+03 -0.98004759405E+02  0.14956247142E+03  0.47000000000E+01 0.  1.
        -11    1    1    2    0    0 -0.15224722122E+02  0.67189146007E+02 -0.24723105233E+03  0.25665028100E+03  0.00000000000E+00 0.  1.
         11    1    1    2    0    0  0.34533731180E+02  0.63772012685E+02 -0.82099571429E+02  0.10954354303E+03  0.00000000000E+00 0. -1.
<mgrwt>
<rscale>  0 0.17631116E+03</rscale>
<asrwt>0</asrwt>
<pdfrwt beam="2">  1        2 0.73380306E-01 0.18206319E+03</pdfrwt>
<pdfrwt beam="1">  1       -2 0.12702415E-01 0.18206319E+03</pdfrwt>
<totfact> 0.29117051E+03</totfact>
</mgrwt>
</event>
<event>
 7    1  0.6387485E-006  0.2721792E+03  0.7546771E-02  0.1102046E+00
         -1   -1    0    0    0  501 -0.00000000000E+00  0.00000000000E+00  0.24034440424E+03  0.24034440424E+03  0.00000000000E+00 0.  1.
          1   -1    0    0  501    0  0.00000000000E+00 -0.00000000000E+00 -0.37025096089E+03  0.37025096089E+03  0.00000000000E+00 0. -1.
         23    2    1    2    0    0  0.70063439973E+02  0.23140352158E+03  0.73292485788E+02  0.28187457959E+03  0.12500005890E+03 0.  0.
          5    1    3    3  502    0  0.58631384831E+02  0.21727210360E+03  0.10235764914E+03  0.24727309726E+03  0.47000000000E+01 0.  1.
         -5    1    3    3    0  502  0.11432055141E+02  0.14131417983E+02 -0.29065163353E+02  0.34601482334E+02  0.47000000000E+01 0.  1.
        -11    1    1    2    0    0 -0.24770025181E+02 -0.10593687757E+03 -0.35499616062E+02  0.11443949894E+03  0.00000000000E+00 0.  1.
         11    1    1    2    0    0 -0.45293414792E+02 -0.12546664401E+03 -0.16769942638E+03  0.21428128661E+03  0.00000000000E+00 0. -1.
<mgrwt>
<rscale>  0 0.26866543E+03</rscale>
<asrwt>0</asrwt>
<pdfrwt beam="2">  1        1 0.56961686E-01 0.27217915E+03</pdfrwt>
<pdfrwt beam="1">  1       -1 0.36976062E-01 0.27217915E+03</pdfrwt>
<totfact> 0.47788096E+02</totfact>
</mgrwt>
</event>
<event>
 7    1  0.6387485E-006  0.1984213E+03  0.7546771E-02  0.1155363E+00
         -2   -1    0    0    0  501 -0.00000000000E+00  0.00000000000E+00  0.10468934398E+03  0.10468934398E+03  0.00000000000E+00 0.  1.
          2   -1    0    0  501    0  0.00000000000E+00 -0.00000000000E+00 -0.34454243896E+03  0.34454243896E+03  0.00000000000E+00 0. -1.
         23    2    1    2    0    0 -0.12912721856E+03 -0.84085609400E+02 -0.10261863831E+03  0.22338661298E+03  0.12500706240E+03 0.  0.
          5    1    3    3  502    0 -0.12937393967E+02  0.16144380705E+02 -0.60620996281E+02  0.64226259280E+02  0.47000000000E+01 0. -1.
         -5    1    3    3    0  502 -0.11618982459E+03 -0.10022999011E+03 -0.41997642031E+02  0.15916035370E+03  0.47000000000E+01 0. -1.
        -11    1    1    2    0    0  0.59479252548E+01  0.20974159174E+02  0.98119327115E+01  0.23907471456E+02  0.00000000000E+00 0.  1.
         11    1    1    2    0    0  0.12317929330E+03  0.63111450226E+02 -0.14704638938E+03  0.20193769850E+03  0.00000000000E+00 0. -1.
<mgrwt>
<rscale>  0 0.19347602E+03</rscale>
<asrwt>0</asrwt>
<pdfrwt beam="2">  1        2 0.53006529E-01 0.19842125E+03</pdfrwt>
<pdfrwt beam="1">  1       -2 0.16106053E-01 0.19842125E+03</pdfrwt>
<totfact> 0.28167100E+03</totfact>
</mgrwt>
</event>
<event>
 7    1  0.6387485E-006  0.1651968E+03  0.7546771E-02  0.1193179E+00
         -2   -1    0    0    0  501 -0.00000000000E+00  0.00000000000E+00  0.48717804603E+03  0.48717804603E+03  0.00000000000E+00 0.  1.
          2   -1    0    0  501    0  0.00000000000E+00 -0.00000000000E+00 -0.48352665792E+02  0.48352665792E+02  0.00000000000E+00 0. -1.
         23    2    1    2    0    0  0.10020725166E+03  0.40346094775E+02  0.31023029823E+03  0.35147237797E+03  0.12498277437E+03 0.  0.
          5    1    3    3  502    0  0.21310282766E+01 -0.54220454573E+01 -0.10525973838E+02  0.12916113336E+02  0.47000000000E+01 0. -1.
         -5    1    3    3    0  502  0.98076223379E+02  0.45768140233E+02  0.32075627207E+03  0.33855626463E+03  0.47000000000E+01 0. -1.
        -11    1    1    2    0    0 -0.11125464639E+02  0.17980891856E+02  0.41190921630E+02  0.46300976881E+02  0.00000000000E+00 0. -1.
         11    1    1    2    0    0 -0.89081787017E+02 -0.58326986631E+02  0.87404160375E+02  0.13775735697E+03  0.00000000000E+00 0.  1.
<mgrwt>
<rscale>  0 0.15609351E+03</rscale>
<asrwt>0</asrwt>
<pdfrwt beam="2">  1        2 0.74388720E-02 0.16519684E+03</pdfrwt>
<pdfrwt beam="1">  1       -2 0.74950465E-01 0.16519684E+03</pdfrwt>
<totfact> 0.15008566E+03</totfact>
</mgrwt>
</event>
<event>
 7    1  0.6387485E-006  0.1827635E+03  0.7546771E-02  0.1169925E+00
         -1   -1    0    0    0  501 -0.00000000000E+00  0.00000000000E+00  0.34052355429E+02  0.34052355429E+02  0.00000000000E+00 0.  1.
          1   -1    0    0  501    0  0.00000000000E+00 -0.00000000000E+00 -0.90724595010E+03  0.90724595010E+03  0.00000000000E+00 0. -1.
         23    2    1    2    0    0 -0.10873035309E+03 -0.77178221221E+02 -0.38104223707E+03  0.42260582827E+03  0.12499492849E+03 0.  0.
          5    1    3    3  502    0 -0.12515290782E+03 -0.81367575063E+02 -0.25638672554E+03  0.29671564779E+03  0.47000000000E+01 0. -1.
         -5    1    3    3    0  502  0.16422554729E+02  0.41893538419E+01 -0.12465551153E+03  0.12589018049E+03  0.47000000000E+01 0. -1.
        -11    1    1    2    0    0 -0.97274102707E+00 -0.14603693892E+02 -0.16767869093E+02  0.22257033367E+02  0.00000000000E+00 0.  1.
         11    1    1    2    0    0  0.10970309411E+03  0.91781915113E+02 -0.47538348851E+03  0.49643544389E+03  0.00000000000E+00 0. -1.
<mgrwt>
<rscale>  0 0.17782488E+03</rscale>
<asrwt>0</asrwt>
<pdfrwt beam="2">  1        1 0.13957630E+00 0.18276351E+03</pdfrwt>
<pdfrwt beam="1">  1       -1 0.52388238E-02 0.18276351E+03</pdfrwt>
<totfact> 0.30622735E+03</totfact>
</mgrwt>
</event>
<event>
 7    1  0.6387485E-006  0.1297679E+03  0.7546771E-02  0.1240503E+00
          3   -1    0    0  501    0  0.00000000000E+00  0.00000000000E+00  0.16097873804E+03  0.16097873804E+03  0.00000000000E+00 0. -1.
         -3   -1    0    0    0  501 -0.00000000000E+00 -0.00000000000E+00 -0.93098081106E+02  0.93098081106E+02  0.00000000000E+00 0.  1.
         23    2    1    2    0    0 -0.27499157622E+01 -0.34836867310E+02 -0.57380325675E+01  0.12989472580E+03  0.12497417899E+03 0.  0.
          5    1    3    3  502    0  0.12993945242E+02 -0.13287200704E+02 -0.63371931978E+02  0.66207885316E+02  0.47000000000E+01 0.  1.
         -5    1    3    3    0  502 -0.15743861004E+02 -0.21549666607E+02  0.57633899410E+02  0.63686840488E+02  0.47000000000E+01 0.  1.
        -11    1    1    2    0    0  0.45221453405E+02  0.19684734561E+02  0.17821220108E+02  0.52441057474E+02  0.00000000000E+00 0.  1.
         11    1    1    2    0    0 -0.42471537643E+02  0.15152132749E+02  0.55797469394E+02  0.71741035868E+02  0.00000000000E+00 0. -1.
<mgrwt>
<rscale>  0 0.12158600E+03</rscale>
<asrwt>0</asrwt>
<pdfrwt beam="1">  1        3 0.24765960E-01 0.12976793E+03</pdfrwt>
<pdfrwt beam="2">  1       -3 0.14322782E-01 0.12976793E+03</pdfrwt>
<totfact> 0.14018312E+03</totfact>
</mgrwt>
</event>
<event>
 7    1  0.6387485E-006  0.1406071E+03  0.7546771E-02  0.1218050E+00
         -2   -1    0    0    0  501 -0.00000000000E+00  0.00000000000E+00  0.19687372197E+03  0.19687372197E+03  0.00000000000E+00 0.  1.
          2   -1    0    0  501    0  0.00000000000E+00 -0.00000000000E+00 -0.17151255873E+03  0.17151255873E+03  0.00000000000E+00 0. -1.
         23    2    1    2    0    0  0.42240082614E+02 -0.48602703510E+02  0.14022647833E+03  0.19857953219E+03  0.12499567197E+03 0.  0.
          5    1    3    3  502    0  0.32323190712E+02 -0.62441257791E+02  0.15832015671E+03  0.17329472397E+03  0.47000000000E+01 0.  1.
         -5    1    3    3    0  502  0.99168919021E+01  0.13838554281E+02 -0.18093678382E+02  0.25284808225E+02  0.47000000000E+01 0.  1.
        -11    1    1    2    0    0 -0.49901596719E+02  0.41333589769E+02 -0.13349604516E+03  0.14839079847E+03  0.00000000000E+00 0. -1.
         11    1    1    2    0    0  0.76615141049E+01  0.72691137410E+01  0.18630730065E+02  0.21415950031E+02  0.00000000000E+00 0.  1.
<mgrwt>
<rscale>  0 0.13654824E+03</rscale>
<asrwt>0</asrwt>
<pdfrwt beam="2">  1        2 0.26386547E-01 0.14060713E+03</pdfrwt>
<pdfrwt beam="1">  1       -2 0.30288265E-01 0.14060713E+03</pdfrwt>
<totfact> 0.19819317E+03</totfact>
</mgrwt>
</event>
<event>
 7    1  0.6387485E-006  0.1250015E+03  0.7546771E-02  0.1250893E+00
         -3   -1    0    0    0  501 -0.00000000000E+00  0.00000000000E+00  0.45231471366E+03  0.45231471366E+03  0.00000000000E+00 0.  1.
          3   -1    0    0  501    0  0.00000000000E+00 -0.00000000000E+00 -0.25895784042E+02  0.25895784042E+02  0.00000000000E+00 0. -1.
         23    2    1    2    0    0  0.66179503276E+00 -0.20218640601E+00  0.26536161510E+03  0.29332944276E+03  0.12499958547E+03 0.  0.
          5    1    3    3  502    0  0.25121176802E+02  0.42443791956E+02  0.22246212195E+03  0.22791233996E+03  0.47000000000E+01 0.  1.
         -5    1    3    3    0  502 -0.24459381769E+02 -0.42645978362E+02  0.42899493146E+02  0.65417102803E+02  0.47000000000E+01 0.  1.
        -11    1    1    2    0    0 -0.37632817065E+02  0.51858018154E+01  0.13267443021E+03  0.13800589079E+03  0.00000000000E+00 0.  1.
         11    1    1    2    0    0  0.36971022033E+02 -0.49836154094E+01  0.28382884303E+02  0.46875164149E+02  0.00000000000E+00 0. -1.
<mgrwt>
<rscale>  0 0.11539514E+03</rscale>
<asrwt>0</asrwt>
<pdfrwt beam="2">  1        3 0.39839671E-02 0.12500150E+03</pdfrwt>
<pdfrwt beam="1">  1       -3 0.69586873E-01 0.12500150E+03</pdfrwt>
<totfact> 0.14930505E+03</totfact>
</mgrwt>
</event>
<event>
 7    1  0.6387485E-006  0.1514127E+03  0.7546771E-02  0.1207101E+00
         -1   -1    0    0    0  501 -0.00000000000E+00  0.00000000000E+00  0.11544069405E+04  0.11544069405E+04  0.00000000000E+00 0.  1.
          1   -1    0    0  501    0  0.00000000000E+00 -0.00000000000E+00 -0.19119097393E+02  0.19119097393E+02  0.00000000000E+00 0. -1.
         23    2    1    2    0    0  0.71380970465E+02  0.46982365678E+02  0.81966743292E+03  0.83353495113E+03  0.12499291394E+03 0.  0.
          5    1    3    3  502    0  0.96539960695E+02  0.13092781818E+01  0.45727792747E+03  0.46738300265E+03  0.47000000000E+01 0.  1.
         -5    1    3    3    0  502 -0.25158990230E+02  0.45673087496E+02  0.36238950545E+03  0.36615194848E+03  0.47000000000E+01 0.  1.
        -11    1    1    2    0    0 -0.10669245800E+02 -0.85204850981E+01 -0.24760731422E+01  0.13876685860E+02  0.00000000000E+00 0. -1.
         11    1    1    2    0    0 -0.60711724665E+02 -0.38461880580E+02  0.31809648329E+03  0.32611440086E+03  0.00000000000E+00 0.  1.
<mgrwt>
<rscale>  0 0.14473083E+03</rscale>
<asrwt>0</asrwt>
<pdfrwt beam="2">  1        1 0.29414005E-02 0.15141273E+03</pdfrwt>
<pdfrwt beam="1">  1       -1 0.17760101E+00 0.15141273E+03</pdfrwt>
<totfact> 0.82279476E+02</totfact>
</mgrwt>
</event>
<event>
 7    1  0.6387485E-006  0.1375309E+03  0.7546771E-02  0.1228750E+00
          2   -1    0    0  501    0  0.00000000000E+00  0.00000000000E+00  0.53175485364E+03  0.53175485364E+03  0.00000000000E+00 0. -1.
         -2   -1    0    0    0  501 -0.00000000000E+00 -0.00000000000E+00 -0.28123976376E+02  0.28123976376E+02  0.00000000000E+00 0.  1.
         23    2    1    2    0    0 -0.15113435743E+02  0.55331197882E+02  0.27321400223E+03  0.30587682278E+03  0.12499912920E+03 0.  0.
          5    1    3    3  502    0 -0.57836280220E+01 -0.15981231902E+02 -0.51206860900E+01  0.18361959379E+02  0.47000000000E+01 0.  1.
         -5    1    3    3    0  502 -0.93298077215E+01  0.71312429784E+02  0.27833468832E+03  0.28751486340E+03  0.47000000000E+01 0.  1.
        -11    1    1    2    0    0  0.34541283460E+02  0.29843992811E+01  0.14297041150E+03  0.14711405598E+03  0.00000000000E+00 0.  1.
         11    1    1    2    0    0 -0.19427847717E+02 -0.58315597163E+02  0.87446463535E+02  0.10688795126E+03  0.00000000000E+00 0. -1.
<mgrwt>
<rscale>  0 0.12913161E+03</rscale>
<asrwt>0</asrwt>
<pdfrwt beam="1">  1        2 0.81808432E-01 0.13753087E+03</pdfrwt>
<pdfrwt beam="2">  1       -2 0.43267660E-02 0.13753087E+03</pdfrwt>
<totfact> 0.13442632E+04</totfact>
</mgrwt>
</event>
<event>
 7    1  0.6387485E-006  0.1489762E+03  0.7546771E-02  0.1210867E+00
          1   -1    0    0  501    0  0.00000000000E+00  0.00000000000E+00  0.51874600286E+03  0.51874600286E+03  0.00000000000E+00 0. -1.
         -1   -1    0    0    0  501 -0.00000000000E+00 -0.00000000000E+00 -0.36731933468E+02  0.36731933468E+02  0.00000000000E+00 0.  1.
         23    2    1    2    0    0 -0.25297996975E+02  0.77096636164E+02  0.21318199215E+03  0.26007782040E+03  0.12494010938E+03 0.  0.
          5    1    3    3  502    0 -0.56928848927E+02  0.85120828167E+02  0.10401104338E+03  0.14603710615E+03  0.47000000000E+01 0. -1.
         -5    1    3    3    0  502  0.31630851953E+02 -0.80241920027E+01  0.10917094877E+03  0.11404071425E+03  0.47000000000E+01 0. -1.
        -11    1    1    2    0    0 -0.16588228290E+02 -0.67118742725E+02  0.10288110494E+03  0.12395409109E+03  0.00000000000E+00 0.  1.
         11    1    1    2    0    0  0.41886225264E+02 -0.99778934393E+01  0.16595097230E+03  0.17144602483E+03  0.00000000000E+00 0. -1.
<mgrwt>
<rscale>  0 0.14184527E+03</rscale>
<asrwt>0</asrwt>
<pdfrwt beam="1">  1        1 0.79807072E-01 0.14897621E+03</pdfrwt>
<pdfrwt beam="2">  1       -1 0.56510671E-02 0.14897621E+03</pdfrwt>
<totfact> 0.60754060E+03</totfact>
</mgrwt>
</event>
<event>
 7    1  0.6387485E-006  0.1279708E+03  0.7546771E-02  0.1262317E+00
          1   -1    0    0  501    0  0.00000000000E+00  0.00000000000E+00  0.35243589969E+03  0.35243589969E+03  0.00000000000E+00 0.  1.
         -1   -1    0    0    0  501 -0.00000000000E+00 -0.00000000000E+00 -0.32887187786E+02  0.32887187786E+02  0.00000000000E+00 0. -1.
         23    2    1    2    0    0 -0.20840319237E+02 -0.17797905020E+02  0.12297587778E+03  0.17748122044E+03  0.12500173105E+03 0.  0.
          5    1    3    3  502    0 -0.10366145748E+01 -0.43669198594E+01 -0.25858335537E+02  0.26662484422E+02  0.47000000000E+01 0.  1.
         -5    1    3    3    0  502 -0.19803704662E+02 -0.13430985161E+02  0.14883421332E+03  0.15081873602E+03  0.47000000000E+01 0.  1.
        -11    1    1    2    0    0  0.32381899077E+02  0.32127691699E+02  0.10566546345E+03  0.11509112098E+03  0.00000000000E+00 0. -1.
         11    1    1    2    0    0 -0.11541579840E+02 -0.14329786679E+02  0.90907370668E+02  0.92750746052E+02  0.00000000000E+00 0.  1.
<mgrwt>
<rscale>  0 0.10906170E+03</rscale>
<asrwt>0</asrwt>
<pdfrwt beam="1">  1        1 0.54220905E-01 0.12797077E+03</pdfrwt>
<pdfrwt beam="2">  1       -1 0.50595676E-02 0.12797077E+03</pdfrwt>
<totfact> 0.11599922E+04</totfact>
</mgrwt>
</event>
<event>
 7    1  0.6387485E-006  0.1555462E+03  0.7546771E-02  0.1202244E+00
          2   -1    0    0  501    0  0.00000000000E+00  0.00000000000E+00  0.18810625156E+03  0.18810625156E+03  0.00000000000E+00 0. -1.
         -2   -1    0    0    0  501 -0.00000000000E+00 -0.00000000000E+00 -0.12892682899E+03  0.12892682899E+03  0.00000000000E+00 0.  1.
         23    2    1    2    0    0  0.92163339096E+02 -0.86878312224E+01 -0.31855377477E+02  0.15877467246E+03  0.12500028822E+03 0.  0.
          5    1    3    3  502    0  0.88570821453E+02 -0.61534189317E+01 -0.74286246612E+02  0.11585849737E+03  0.47000000000E+01 0.  1.
         -5    1    3    3    0  502  0.35925176433E+01 -0.25344122907E+01  0.42430869135E+02  0.42916175088E+02  0.47000000000E+01 0.  1.
        -11    1    1    2    0    0 -0.10281031254E+03 -0.12129293685E+02  0.60869926194E+02  0.12009258114E+03  0.00000000000E+00 0. -1.
         11    1    1    2    0    0  0.10646973444E+02  0.20817124908E+02  0.30164873847E+02  0.38165826955E+02  0.00000000000E+00 0.  1.
<mgrwt>
<rscale>  0 0.14856745E+03</rscale>
<asrwt>0</asrwt>
<pdfrwt beam="1">  1        2 0.28939423E-01 0.15554624E+03</pdfrwt>
<pdfrwt beam="2">  1       -2 0.19834897E-01 0.15554624E+03</pdfrwt>
<totfact> 0.37691259E+03</totfact>
</mgrwt>
</event>
<event>
 7    1  0.6387485E-006  0.1337410E+03  0.7546771E-02  0.1232845E+00
          2   -1    0    0  501    0  0.00000000000E+00  0.00000000000E+00  0.20887467149E+03  0.20887467149E+03  0.00000000000E+00 0. -1.
         -2   -1    0    0    0  501 -0.00000000000E+00 -0.00000000000E+00 -0.77302956120E+02  0.77302956120E+02  0.00000000000E+00 0.  1.
         23    2    1    2    0    0 -0.39781213062E+02 -0.26055157552E+02  0.26500663405E+02  0.13634130643E+03  0.12500100211E+03 0.  0.
          5    1    3    3  502    0  0.27830997129E+02 -0.43047210062E+02  0.39983084483E+02  0.65179473303E+02  0.47000000000E+01 0. -1.
         -5    1    3    3    0  502 -0.67612210191E+02  0.16992052511E+02 -0.13482421077E+02  0.71161833123E+02  0.47000000000E+01 0. -1.
        -11    1    1    2    0    0  0.39865023864E+02 -0.29428999586E+02  0.36040455520E+02  0.61271531549E+02  0.00000000000E+00 0. -1.
         11    1    1    2    0    0 -0.83810802144E-01  0.55484157138E+02  0.69030596446E+02  0.88564789636E+02  0.00000000000E+00 0.  1.
<mgrwt>
<rscale>  0 0.12643403E+03</rscale>
<asrwt>0</asrwt>
<pdfrwt beam="1">  1        2 0.32134565E-01 0.13374104E+03</pdfrwt>
<pdfrwt beam="2">  1       -2 0.11892763E-01 0.13374104E+03</pdfrwt>
<totfact> 0.77212294E+03</totfact>
</mgrwt>
</event>
<event>
 7    1  0.6387485E-006  0.1324175E+03  0.7546771E-02  0.1233963E+00
         -1   -1    0    0    0  501 -0.00000000000E+00  0.00000000000E+00  0.11890343413E+03  0.11890343413E+03  0.00000000000E+00 0.  1.
          1   -1    0    0  501    0  0.00000000000E+00 -0.00000000000E+00 -0.12812824499E+03  0.12812824499E+03  0.00000000000E+00 0. -1.
         23    2    1    2    0    0 -0.55759554340E+02  0.22326129971E+02 -0.33876803362E+02  0.13668221815E+03  0.11801189336E+03 0.  0.
          5    1    3    3  502    0 -0.83244193805E+02 -0.14652540205E+02 -0.31442227963E+02  0.90305018886E+02  0.47000000000E+01 0. -1.
         -5    1    3    3    0  502  0.27484639465E+02  0.36978670175E+02 -0.24345753991E+01  0.46377199267E+02  0.47000000000E+01 0.  1.
        -11    1    1    2    0    0  0.38518205447E+02 -0.74080934248E+01  0.57960436348E+02  0.69985314036E+02  0.00000000000E+00 0.  1.
         11    1    1    2    0    0  0.17241348893E+02 -0.14918036546E+02 -0.33308443851E+02  0.40364146935E+02  0.00000000000E+00 0. -1.
<mgrwt>
<rscale>  0 0.12571072E+03</rscale>
<asrwt>0</asrwt>
<pdfrwt beam="2">  1        1 0.19712038E-01 0.13241749E+03</pdfrwt>
<pdfrwt beam="1">  1       -1 0.18292836E-01 0.13241749E+03</pdfrwt>
<totfact> 0.57695428E+03</totfact>
</mgrwt>
</event>
<event>
 7    1  0.6387485E-006  0.1181876E+03  0.7546771E-02  0.1258863E+00
          1   -1    0    0  501    0  0.00000000000E+00  0.00000000000E+00  0.77047430180E+02  0.77047430180E+02  0.00000000000E+00 0. -1.
         -1   -1    0    0    0  501 -0.00000000000E+00 -0.00000000000E+00 -0.20358631780E+03  0.20358631780E+03  0.00000000000E+00 0.  1.
         23    2    1    2    0    0  0.17462333817E+01 -0.92503596664E+01 -0.14501736180E+03  0.18707844038E+03  0.11781209254E+03 0.  0.
          5    1    3    3  502    0  0.24737115376E+02 -0.49215746325E+02 -0.29610627619E+02  0.62713585701E+02  0.47000000000E+01 0. -1.
         -5    1    3    3    0  502 -0.22990881994E+02  0.39965386659E+02 -0.11540673418E+03  0.12436485468E+03  0.47000000000E+01 0.  1.
        -11    1    1    2    0    0 -0.41099464330E+02 -0.41948678449E+01 -0.10793448139E+02  0.42699665188E+02  0.00000000000E+00 0.  1.
         11    1    1    2    0    0  0.39353230949E+02  0.13445227511E+02  0.29271922317E+02  0.50855642411E+02  0.00000000000E+00 0. -1.
<mgrwt>
<rscale>  0 0.11092662E+03</rscale>
<asrwt>0</asrwt>
<pdfrwt beam="1">  1        1 0.11853451E-01 0.11818760E+03</pdfrwt>
<pdfrwt beam="2">  1       -1 0.31320971E-01 0.11818760E+03</pdfrwt>
<totfact> 0.45832691E+03</totfact>
</mgrwt>
</event>
<event>
 7    1  0.6387485E-006  0.1500959E+03  0.7546771E-02  0.1209148E+00
         -1   -1    0    0    0  501 -0.00000000000E+00  0.00000000000E+00  0.10156913106E+03  0.10156913106E+03  0.00000000000E+00 0.  1.
          1   -1    0    0  501    0  0.00000000000E+00 -0.00000000000E+00 -0.21020073264E+03  0.21020073264E+03  0.00000000000E+00 0. -1.
         23    2    1    2    0    0 -0.20337630423E+02  0.80552403381E+02 -0.52644039052E+01  0.15018820148E+03  0.12500589191E+03 0.  0.
          5    1    3    3  502    0 -0.21108494013E+02 -0.22733392463E+01 -0.51008619334E+02  0.55450030092E+02  0.47000000000E+01 0. -1.
         -5    1    3    3    0  502  0.77086358940E+00  0.82825742628E+02  0.45744215429E+02  0.94738171387E+02  0.47000000000E+01 0. -1.
        -11    1    1    2    0    0 -0.32200287687E+02 -0.37333115764E+02 -0.18141350970E+02  0.52533119790E+02  0.00000000000E+00 0.  1.
         11    1    1    2    0    0  0.52537918111E+02 -0.43219287617E+02 -0.85225846702E+02  0.10904854244E+03  0.00000000000E+00 0. -1.
<mgrwt>
<rscale>  0 0.14315310E+03</rscale>
<asrwt>0</asrwt>
<pdfrwt beam="2">  1        1 0.32338574E-01 0.15009591E+03</pdfrwt>
<pdfrwt beam="1">  1       -1 0.15626020E-01 0.15009591E+03</pdfrwt>
<totfact> 0.40049507E+03</totfact>
</mgrwt>
</event>
<event>
 7    1  0.6387485E-006  0.2141344E+03  0.7546771E-02  0.1141996E+00
          1   -1    0    0  501    0  0.00000000000E+00  0.00000000000E+00  0.76761130148E+02  0.76761130148E+02  0.00000000000E+00 0. -1.
         -1   -1    0    0    0  501 -0.00000000000E+00 -0.00000000000E+00 -0.54876929690E+03  0.54876929690E+03  0.00000000000E+00 0.  1.
         23    2    1    2    0    0  0.16704997002E+03  0.48216652730E+02 -0.23413532897E+03  0.31728989024E+03  0.12499193611E+03 0.  0.
          5    1    3    3  502    0  0.56504444309E+02  0.29591050945E+02 -0.18324627164E+03  0.19408675532E+03  0.47000000000E+01 0.  1.
         -5    1    3    3    0  502  0.11054552571E+03  0.18625601785E+02 -0.50889057327E+02  0.12320313492E+03  0.47000000000E+01 0.  1.
        -11    1    1    2    0    0 -0.36104529897E+02 -0.84898199563E+01 -0.12644438256E+03  0.13177175723E+03  0.00000000000E+00 0.  1.
         11    1    1    2    0    0 -0.13094544013E+03 -0.39726832774E+02 -0.11142845522E+03  0.17646877958E+03  0.00000000000E+00 0. -1.
<mgrwt>
<rscale>  0 0.20945792E+03</rscale>
<asrwt>0</asrwt>
<pdfrwt beam="1">  1        1 0.11809405E-01 0.21413436E+03</pdfrwt>
<pdfrwt beam="2">  1       -1 0.84426044E-01 0.21413436E+03</pdfrwt>
<totfact> 0.74535502E+02</totfact>
</mgrwt>
</event>
<event>
 7    1  0.6387485E-006  0.1350851E+03  0.7546771E-02  0.1234076E+00
         -2   -1    0    0    0  501 -0.00000000000E+00  0.00000000000E+00  0.16415403107E+03  0.16415403107E+03  0.00000000000E+00 0. -1.
          2   -1    0    0  501    0  0.00000000000E+00 -0.00000000000E+00 -0.93002722138E+02  0.93002722138E+02  0.00000000000E+00 0.  1.
         23    2    1    2    0    0  0.12301894788E+02  0.49709405482E+02  0.77753538423E+02  0.15586407150E+03  0.12500253773E+03 0.  0.
          5    1    3    3  502    0 -0.51718306107E+02  0.18408277744E+02  0.73616030012E+01  0.55587148468E+02  0.47000000000E+01 0.  1.
         -5    1    3    3    0  502  0.64020200895E+02  0.31301127738E+02  0.70391935422E+02  0.10027692303E+03  0.47000000000E+01 0.  1.
        -11    1    1    2    0    0  0.31494727472E+02 -0.16303647811E+02 -0.24807274637E+02  0.43279644931E+02  0.00000000000E+00 0.  1.
         11    1    1    2    0    0 -0.43796622260E+02 -0.33405757671E+02  0.18205045143E+02  0.58013036773E+02  0.00000000000E+00 0. -1.
<mgrwt>
<rscale>  0 0.12563744E+03</rscale>
<asrwt>0</asrwt>
<pdfrwt beam="2">  1        2 0.14308111E-01 0.13508514E+03</pdfrwt>
<pdfrwt beam="1">  1       -2 0.25254466E-01 0.13508514E+03</pdfrwt>
<totfact> 0.54729745E+03</totfact>
</mgrwt>
</event>
<event>
 7    1  0.6387485E-006  0.1294357E+03  0.7546771E-02  0.1242474E+00
          2   -1    0    0  501    0  0.00000000000E+00  0.00000000000E+00  0.35735862090E+03  0.35735862090E+03  0.00000000000E+00 0. -1.
         -2   -1    0    0    0  501 -0.00000000000E+00 -0.00000000000E+00 -0.42005148870E+02  0.42005148870E+02  0.00000000000E+00 0.  1.
         23    2    1    2    0    0  0.20537731405E+02 -0.26506420850E+02  0.10108890776E+03  0.16423327192E+03  0.12501684517E+03 0.  0.
          5    1    3    3  502    0  0.61593203584E+02  0.19098823351E+02  0.69971591702E+02  0.95271199354E+02  0.47000000000E+01 0.  1.
         -5    1    3    3    0  502 -0.41055472178E+02 -0.45605244201E+02  0.31117316059E+02  0.68962072570E+02  0.47000000000E+01 0.  1.
        -11    1    1    2    0    0 -0.40893408623E+02  0.41145346023E+02  0.19518636344E+03  0.20362447505E+03  0.00000000000E+00 0. -1.
         11    1    1    2    0    0  0.20355677218E+02 -0.14638925173E+02  0.19078200829E+02  0.31506022791E+02  0.00000000000E+00 0.  1.
<mgrwt>
<rscale>  0 0.12037847E+03</rscale>
<asrwt>0</asrwt>
<pdfrwt beam="1">  1        2 0.54978248E-01 0.12943570E+03</pdfrwt>
<pdfrwt beam="2">  1       -2 0.64623308E-02 0.12943570E+03</pdfrwt>
<totfact> 0.11234996E+04</totfact>
</mgrwt>
</event>
<event>
 7    1  0.6387485E-006  0.2221089E+03  0.7546771E-02  0.1135971E+00
         -2   -1    0    0    0  501 -0.00000000000E+00  0.00000000000E+00  0.10654617475E+03  0.10654617475E+03  0.00000000000E+00 0. -1.
          2   -1    0    0  501    0  0.00000000000E+00 -0.00000000000E+00 -0.47076406560E+03  0.47076406560E+03  0.00000000000E+00 0.  1.
         23    2    1    2    0    0 -0.17341516373E+03  0.60284865647E+02 -0.98932430205E+02  0.24314601141E+03  0.12500109232E+03 0.  0.
          5    1    3    3  502    0 -0.17465983417E+03  0.82115522219E+02 -0.67394415938E+02  0.20448255173E+03  0.47000000000E+01 0.  1.
         -5    1    3    3    0  502  0.12446704415E+01 -0.21830656572E+02 -0.31538014266E+02  0.38663459684E+02  0.47000000000E+01 0.  1.
        -11    1    1    2    0    0  0.15840553509E+03 -0.26168027957E+02 -0.24132973879E+03  0.28985707178E+03  0.00000000000E+00 0.  1.
         11    1    1    2    0    0  0.15009628635E+02 -0.34116837690E+02 -0.23955721865E+02  0.44307157162E+02  0.00000000000E+00 0. -1.
<mgrwt>
<rscale>  0 0.21722220E+03</rscale>
<asrwt>0</asrwt>
<pdfrwt beam="2">  1        2 0.72425242E-01 0.22210889E+03</pdfrwt>
<pdfrwt beam="1">  1       -2 0.16391719E-01 0.22210889E+03</pdfrwt>
<totfact> 0.19542655E+03</totfact>
</mgrwt>
</event>
<event>
 7    1  0.6387485E-006  0.1942204E+03  0.7546771E-02  0.1158708E+00
         -1   -1    0    0    0  501 -0.00000000000E+00  0.00000000000E+00  0.12831828683E+03  0.12831828683E+03  0.00000000000E+00 0.  1.
          1   -1    0    0  501    0  0.00000000000E+00 -0.00000000000E+00 -0.50264495322E+03  0.50264495322E+03  0.00000000000E+00 0. -1.
         23    2    1    2    0    0 -0.30700748388E+02  0.14544820937E+03  0.23459343943E+02  0.19563207287E+03  0.12499539815E+03 0.  0.
          5    1    3    3  502    0  0.91911977724E+01  0.49439958387E+02 -0.47769747317E+02  0.69518532497E+02  0.47000000000E+01 0.  1.
         -5    1    3    3    0  502 -0.39891946160E+02  0.96008250981E+02  0.71229091259E+02  0.12611354038E+03  0.47000000000E+01 0.  1.
        -11    1    1    2    0    0  0.16679091939E+02 -0.46489283448E+02 -0.26263108136E+03  0.26723497241E+03  0.00000000000E+00 0. -1.
         11    1    1    2    0    0  0.14021656449E+02 -0.98958925920E+02 -0.13515492898E+03  0.16809619477E+03  0.00000000000E+00 0.  1.
<mgrwt>
<rscale>  0 0.18972679E+03</rscale>
<asrwt>0</asrwt>
<pdfrwt beam="2">  1        1 0.77329993E-01 0.19422041E+03</pdfrwt>
<pdfrwt beam="1">  1       -1 0.19741275E-01 0.19422041E+03</pdfrwt>
<totfact> 0.92495255E+02</totfact>
</mgrwt>
</event>
<event>
 7    1  0.6387485E-006  0.2255851E+03  0.7546771E-02  0.1132919E+00
          1   -1    0    0  501    0  0.00000000000E+00  0.00000000000E+00  0.91315549333E+02  0.91315549333E+02  0.00000000000E+00 0. -1.
         -1   -1    0    0    0  501 -0.00000000000E+00 -0.00000000000E+00 -0.63504888019E+03  0.63504888019E+03  0.00000000000E+00 0.  1.
         23    2    1    2    0    0  0.18321986217E+03  0.41137215918E+02 -0.43692828473E+03  0.49172651535E+03  0.12500740567E+03 0.  0.
          5    1    3    3  502    0  0.18793226571E+03  0.42103283614E+01 -0.36148376425E+03  0.40746639760E+03  0.47000000000E+01 0. -1.
         -5    1    3    3    0  502 -0.47124035397E+01  0.36926887556E+02 -0.75444520490E+02  0.84260117752E+02  0.47000000000E+01 0. -1.
        -11    1    1    2    0    0 -0.15070057553E+03 -0.66559305295E+02 -0.10023449517E+03  0.19284127828E+03  0.00000000000E+00 0.  1.
         11    1    1    2    0    0 -0.32519286645E+02  0.25422089378E+02 -0.65705509569E+01  0.41796635894E+02  0.00000000000E+00 0. -1.
<mgrwt>
<rscale>  0 0.22129821E+03</rscale>
<asrwt>0</asrwt>
<pdfrwt beam="1">  1        1 0.14048546E-01 0.22558511E+03</pdfrwt>
<pdfrwt beam="2">  1       -1 0.97699829E-01 0.22558511E+03</pdfrwt>
<totfact> 0.43264384E+02</totfact>
</mgrwt>
</event>
<event>
 6    1  0.6387485E-006  0.4218952E+03  0.7546771E-02  0.1076693E+00
         -2   -1    0    0    0  501 -0.00000000000E+00  0.00000000000E+00  0.73198279752E+03  0.73198279752E+03  0.00000000000E+00 0.  1.
          2   -1    0    0  501    0  0.00000000000E+00 -0.00000000000E+00 -0.11258067808E+03  0.11258067808E+03  0.00000000000E+00 0. -1.
          5    1    1    2  502    0 -0.11994537614E+03 -0.11539322515E+03  0.16758658864E+03  0.23624107255E+03  0.47000000000E+01 0. -1.
         -5    1    1    2    0  502  0.12684900107E+03  0.21578993896E+03  0.37918722249E+03  0.45437980427E+03  0.47000000000E+01 0.  1.
        -11    1    1    2    0    0 -0.39631405355E+02 -0.28687647296E+02  0.54155411021E+02  0.72982449539E+02  0.00000000000E+00 0.  1.
         11    1    1    2    0    0  0.32727780428E+02 -0.71709066513E+02  0.18472897285E+02  0.80960149246E+02  0.00000000000E+00 0. -1.
<mgrwt>
<rscale>  0 0.31774216E+03</rscale>
<asrwt>0</asrwt>
<pdfrwt beam="2">  1        2 0.17320105E-01 0.42189524E+03</pdfrwt>
<pdfrwt beam="1">  1       -2 0.11261273E+00 0.42189524E+03</pdfrwt>
<totfact> 0.21266624E+02</totfact>
</mgrwt>
</event>
<event>
 7    1  0.6387485E-006  0.1597442E+03  0.7546771E-02  0.1194397E+00
         -2   -1    0    0    0  501 -0.00000000000E+00  0.00000000000E+00  0.15922106924E+03  0.15922106924E+03  0.00000000000E+00 0.  1.
          2   -1    0    0  501    0  0.00000000000E+00 -0.00000000000E+00 -0.14391134631E+03  0.14391134631E+03  0.00000000000E+00 0. -1.
         23    2    1    2    0    0  0.26154443283E+02 -0.95965067245E+02  0.21607309080E+02  0.16119889909E+03  0.12499944090E+03 0.  0.
          5    1    3    3  502    0  0.12685222420E+02 -0.10332657581E+03  0.59533566763E+02  0.12001513116E+03  0.47000000000E+01 0. -1.
         -5    1    3    3    0  502  0.13469220863E+02  0.73615085609E+01 -0.37926257683E+02  0.41183767928E+02  0.47000000000E+01 0. -1.
        -11    1    1    2    0    0 -0.31687627642E+01  0.93234110412E+02 -0.39626238699E+02  0.10135521297E+03  0.00000000000E+00 0. -1.
         11    1    1    2    0    0 -0.22985680519E+02  0.27309568324E+01  0.33328652549E+02  0.40578303499E+02  0.00000000000E+00 0.  1.
<mgrwt>
<rscale>  0 0.15505404E+03</rscale>
<asrwt>0</asrwt>
<pdfrwt beam="2">  1        2 0.22140207E-01 0.15974420E+03</pdfrwt>
<pdfrwt beam="1">  1       -2 0.24495549E-01 0.15974420E+03</pdfrwt>
<totfact> 0.35305778E+03</totfact>
</mgrwt>
</event>
<event>
 7    1  0.6387485E-006  0.1396117E+03  0.7546771E-02  0.1225236E+00
          1   -1    0    0  501    0  0.00000000000E+00  0.00000000000E+00  0.29044838485E+03  0.29044838485E+03  0.00000000000E+00 0. -1.
         -1   -1    0    0    0  501 -0.00000000000E+00 -0.00000000000E+00 -0.55483322472E+02  0.55483322472E+02  0.00000000000E+00 0.  1.
         23    2    1    2    0    0 -0.52665436978E+00 -0.62233598234E+02  0.99258505056E+02  0.17129997858E+03  0.12497253187E+03 0.  0.
          5    1    3    3  502    0 -0.46926428989E+02 -0.14787938968E+02  0.91922484091E+02  0.10436764804E+03  0.47000000000E+01 0.  1.
         -5    1    3    3    0  502  0.46399774619E+02 -0.47445659267E+02  0.73360209649E+01  0.66932330540E+02  0.47000000000E+01 0.  1.
        -11    1    1    2    0    0  0.11778906968E+02 -0.13342327948E+02 -0.12084081663E+01  0.17838739157E+02  0.00000000000E+00 0.  1.
         11    1    1    2    0    0 -0.11252252598E+02  0.75575926182E+02  0.13691496548E+03  0.15679298958E+03  0.00000000000E+00 0. -1.
<mgrwt>
<rscale>  0 0.13150723E+03</rscale>
<asrwt>0</asrwt>
<pdfrwt beam="1">  1        1 0.44684366E-01 0.13961172E+03</pdfrwt>
<pdfrwt beam="2">  1       -1 0.85358960E-02 0.13961172E+03</pdfrwt>
<totfact> 0.67894357E+03</totfact>
</mgrwt>
</event>
<event>
 7    1  0.6387485E-006  0.1301234E+03  0.7546771E-02  0.1240706E+00
          1   -1    0    0  501    0  0.00000000000E+00  0.00000000000E+00  0.42042839642E+03  0.42042839642E+03  0.00000000000E+00 0. -1.
         -1   -1    0    0    0  501 -0.00000000000E+00 -0.00000000000E+00 -0.38053335838E+02  0.38053335838E+02  0.00000000000E+00 0.  1.
         23    2    1    2    0    0 -0.97964572604E+01  0.34802043125E+02  0.11578577116E+03  0.17417930761E+03  0.12499973447E+03 0.  0.
          5    1    3    3  502    0 -0.15965819486E+02  0.13582399212E+02  0.13966427372E+03  0.14130671716E+03  0.47000000000E+01 0. -1.
         -5    1    3    3    0  502  0.61693622256E+01  0.21219643914E+02 -0.23878502566E+02  0.32872590450E+02  0.47000000000E+01 0. -1.
        -11    1    1    2    0    0 -0.27325769801E+02 -0.41956927152E+02  0.21244399360E+03  0.21826482046E+03  0.00000000000E+00 0. -1.
         11    1    1    2    0    0  0.37122227061E+02  0.71548840267E+01  0.54145295826E+02  0.66037604192E+02  0.00000000000E+00 0.  1.
<mgrwt>
<rscale>  0 0.12146094E+03</rscale>
<asrwt>0</asrwt>
<pdfrwt beam="1">  1        1 0.64681289E-01 0.13012335E+03</pdfrwt>
<pdfrwt beam="2">  1       -1 0.58543596E-02 0.13012335E+03</pdfrwt>
<totfact> 0.74984256E+03</totfact>
</mgrwt>
</event>
<event>
 7    1  0.6387485E-006  0.1989434E+03  0.7546771E-02  0.1154865E+00
         -1   -1    0    0    0  501 -0.00000000000E+00  0.00000000000E+00  0.85591410784E+02  0.85591410784E+02  0.00000000000E+00 0.  1.
          1   -1    0    0  501    0  0.00000000000E+00 -0.00000000000E+00 -0.44745435044E+03  0.44745435044E+03  0.00000000000E+00 0. -1.
         23    2    1    2    0    0  0.15475737099E+03  0.26855253657E+01 -0.12290222287E+03  0.23384491013E+03  0.12498571792E+03 0.  0.
          5    1    3    3  502    0  0.17464148214E+03 -0.62675197949E+01 -0.97999669737E+02  0.20041196161E+03  0.47000000000E+01 0.  1.
         -5    1    3    3    0  502 -0.19884111149E+02  0.89530451606E+01 -0.24902553135E+02  0.33432948516E+02  0.47000000000E+01 0.  1.
        -11    1    1    2    0    0 -0.42378563200E+02 -0.30355831870E+02 -0.29511875558E+02  0.59903004485E+02  0.00000000000E+00 0.  1.
         11    1    1    2    0    0 -0.11237880779E+03  0.27670306504E+02 -0.20944884123E+03  0.23929784662E+03  0.00000000000E+00 0. -1.
<mgrwt>
<rscale>  0 0.19404257E+03</rscale>
<asrwt>0</asrwt>
<pdfrwt beam="2">  1        1 0.68839130E-01 0.19894342E+03</pdfrwt>
<pdfrwt beam="1">  1       -1 0.13167910E-01 0.19894342E+03</pdfrwt>
<totfact> 0.20517874E+03</totfact>
</mgrwt>
</event>
<event>
 7    1  0.6387485E-006  0.1451110E+03  0.7546771E-02  0.1218297E+00
          2   -1    0    0  501    0  0.00000000000E+00  0.00000000000E+00  0.21765648875E+03  0.21765648875E+03  0.00000000000E+00 0. -1.
         -2   -1    0    0    0  501 -0.00000000000E+00 -0.00000000000E+00 -0.13701396979E+03  0.13701396979E+03  0.00000000000E+00 0.  1.
         23    2    1    2    0    0  0.15866911179E+02 -0.71864568808E+02 -0.74112498757E+02  0.16294127735E+03  0.12506367287E+03 0.  0.
          5    1    3    3  502    0  0.68006192765E+02 -0.60455791147E+02 -0.52576784014E+02  0.10519578487E+03  0.47000000000E+01 0. -1.
         -5    1    3    3    0  502 -0.52139281586E+02 -0.11408777661E+02 -0.21535714744E+02  0.57745492478E+02  0.47000000000E+01 0. -1.
        -11    1    1    2    0    0 -0.22656637152E+01  0.49545449503E+02  0.15780443152E+03  0.16541500357E+03  0.00000000000E+00 0. -1.
         11    1    1    2    0    0 -0.13601247464E+02  0.22319119305E+02 -0.30494137983E+01  0.26314177616E+02  0.00000000000E+00 0.  1.
<mgrwt>
<rscale>  0 0.13637129E+03</rscale>
<asrwt>0</asrwt>
<pdfrwt beam="1">  1        2 0.33485614E-01 0.14511098E+03</pdfrwt>
<pdfrwt beam="2">  1       -2 0.21079072E-01 0.14511098E+03</pdfrwt>
<totfact> 0.28916593E+03</totfact>
</mgrwt>
</event>
<event>
 7    1  0.6387485E-006  0.1415813E+03  0.7546771E-02  0.1220165E+00
          2   -1    0    0  501    0  0.00000000000E+00  0.00000000000E+00  0.48784773093E+03  0.48784773093E+03  0.00000000000E+00 0. -1.
         -2   -1    0    0    0  501 -0.00000000000E+00 -0.00000000000E+00 -0.38040199712E+02  0.38040199712E+02  0.00000000000E+00 0.  1.
         23    2    1    2    0    0 -0.63443117969E+02 -0.19782123060E+02  0.16203432695E+03  0.21517524301E+03  0.12501560096E+03 0.  0.
          5    1    3    3  502    0 -0.44766457297E+02  0.23255690075E+02  0.46479548285E+01  0.50877856714E+02  0.47000000000E+01 0. -1.
         -5    1    3    3    0  502 -0.18676660673E+02 -0.43037813135E+02  0.15738637212E+03  0.16429738630E+03  0.47000000000E+01 0. -1.
        -11    1    1    2    0    0  0.76062518151E+02  0.43793897472E+02  0.24298188310E+03  0.25834784233E+03  0.00000000000E+00 0.  1.
         11    1    1    2    0    0 -0.12619400181E+02 -0.24011774413E+02  0.44791321168E+02  0.52364845301E+02  0.00000000000E+00 0. -1.
<mgrwt>
<rscale>  0 0.13503896E+03</rscale>
<asrwt>0</asrwt>
<pdfrwt beam="1">  1        2 0.75053493E-01 0.14158129E+03</pdfrwt>
<pdfrwt beam="2">  1       -2 0.58523388E-02 0.14158129E+03</pdfrwt>
<totfact> 0.94073755E+03</totfact>
</mgrwt>
</event>
<event>
 6    1  0.6387485E-006  0.1973879E+03  0.7546771E-02  0.1166798E+00
         -2   -1    0    0    0  501 -0.00000000000E+00  0.00000000000E+00  0.13557180024E+03  0.13557180024E+03  0.00000000000E+00 0.  1.
          2   -1    0    0  501    0  0.00000000000E+00 -0.00000000000E+00 -0.23795674868E+03  0.23795674868E+03  0.00000000000E+00 0. -1.
          5    1    1    2  502    0  0.44028398538E+02 -0.19239787858E+02 -0.29441151941E+02  0.56546801344E+02  0.47000000000E+01 0. -1.
         -5    1    1    2    0  502 -0.13164221755E+03 -0.36435626523E+02  0.34255522960E+02  0.14089981964E+03  0.47000000000E+01 0.  1.
        -11    1    1    2    0    0  0.14930965151E+02  0.39604752694E+01  0.17127391741E+02  0.23064401847E+02  0.00000000000E+00 0.  1.
         11    1    1    2    0    0  0.72682853863E+02  0.51714939112E+02 -0.12432671120E+03  0.15301752609E+03  0.00000000000E+00 0. -1.
<mgrwt>
<rscale>  0 0.18104284E+03</rscale>
<asrwt>0</asrwt>
<pdfrwt beam="2">  1        2 0.36608730E-01 0.19738792E+03</pdfrwt>
<pdfrwt beam="1">  1       -2 0.20857200E-01 0.19738792E+03</pdfrwt>
<totfact> 0.27096134E+03</totfact>
</mgrwt>
</event>
<event>
 7    1  0.6387485E-006  0.1423105E+03  0.7546771E-02  0.1220517E+00
         -2   -1    0    0    0  501 -0.00000000000E+00  0.00000000000E+00  0.31212064788E+02  0.31212064788E+02  0.00000000000E+00 0.  1.
          2   -1    0    0  501    0  0.00000000000E+00 -0.00000000000E+00 -0.53989070536E+03  0.53989070536E+03  0.00000000000E+00 0. -1.
         23    2    1    2    0    0  0.53558189916E+02 -0.41818581397E+02 -0.23979052279E+03  0.27884004328E+03  0.12503999944E+03 0.  0.
          5    1    3    3  502    0  0.90238489568E+02 -0.38100587917E+02 -0.12940155523E+03  0.16236222558E+03  0.47000000000E+01 0. -1.
         -5    1    3    3    0  502 -0.36680299652E+02 -0.37179934806E+01 -0.11038896756E+03  0.11647781770E+03  0.47000000000E+01 0. -1.
        -11    1    1    2    0    0 -0.25433325902E+02  0.25556609921E+01 -0.77708931900E+01  0.26716516437E+02  0.00000000000E+00 0.  1.
         11    1    1    2    0    0 -0.28124864013E+02  0.39262920405E+02 -0.26111722459E+03  0.26554621043E+03  0.00000000000E+00 0. -1.
<mgrwt>
<rscale>  0 0.13478938E+03</rscale>
<asrwt>0</asrwt>
<pdfrwt beam="2">  1        2 0.83060108E-01 0.14231049E+03</pdfrwt>
<pdfrwt beam="1">  1       -2 0.48018561E-02 0.14231049E+03</pdfrwt>
<totfact> 0.11337659E+04</totfact>
</mgrwt>
</event>
<event>
 7    1  0.6387485E-006  0.1346324E+03  0.7546771E-02  0.1232060E+00
          1   -1    0    0  501    0  0.00000000000E+00  0.00000000000E+00  0.68953026364E+02  0.68953026364E+02  0.00000000000E+00 0. -1.
         -1   -1    0    0    0  501 -0.00000000000E+00 -0.00000000000E+00 -0.21331269980E+03  0.21331269980E+03  0.00000000000E+00 0.  1.
         23    2    1    2    0    0 -0.41622565571E+02 -0.27707411147E+02 -0.96127459143E+02  0.16542782398E+03  0.12500295176E+03 0.  0.
          5    1    3    3  502    0 -0.45808556737E+02 -0.70552388785E+02 -0.36702217428E+02  0.91897803009E+02  0.47000000000E+01 0.  1.
         -5    1    3    3    0  502  0.41859911668E+01  0.42844977639E+02 -0.59425241715E+02  0.73530020970E+02  0.47000000000E+01 0.  1.
        -11    1    1    2    0    0  0.18271369177E+01  0.12331883024E+02  0.27343960551E+02  0.30051721196E+02  0.00000000000E+00 0. -1.
         11    1    1    2    0    0  0.39795428653E+02  0.15375528122E+02 -0.75576174844E+02  0.86786180989E+02  0.00000000000E+00 0.  1.
<mgrwt>
<rscale>  0 0.12694503E+03</rscale>
<asrwt>0</asrwt>
<pdfrwt beam="1">  1        1 0.10608158E-01 0.13463238E+03</pdfrwt>
<pdfrwt beam="2">  1       -1 0.32817338E-01 0.13463238E+03</pdfrwt>
<totfact> 0.49431786E+03</totfact>
</mgrwt>
</event>
<event>
 7    1  0.6387485E-006  0.1391998E+03  0.7546771E-02  0.1226197E+00
          2   -1    0    0  501    0  0.00000000000E+00  0.00000000000E+00  0.46455356245E+03  0.46455356245E+03  0.00000000000E+00 0.  1.
         -2   -1    0    0    0  501 -0.00000000000E+00 -0.00000000000E+00 -0.35247703592E+02  0.35247703592E+02  0.00000000000E+00 0. -1.
         23    2    1    2    0    0 -0.47889742553E+02 -0.38185926447E+02  0.17776536335E+03  0.22578110840E+03  0.12499996833E+03 0.  0.
          5    1    3    3  502    0  0.15762614569E+02 -0.16606979745E+02 -0.10647031426E+02  0.25684646630E+02  0.47000000000E+01 0. -1.
         -5    1    3    3    0  502 -0.63652357122E+02 -0.21578946702E+02  0.18841239478E+03  0.20009646177E+03  0.47000000000E+01 0. -1.
        -11    1    1    2    0    0  0.43140659580E+02 -0.11453195539E+02  0.18812283376E+03  0.19334552692E+03  0.00000000000E+00 0.  1.
         11    1    1    2    0    0  0.47490829726E+01  0.49639121986E+02  0.63417661742E+02  0.80674630718E+02  0.00000000000E+00 0. -1.
<mgrwt>
<rscale>  0 0.13085205E+03</rscale>
<asrwt>0</asrwt>
<pdfrwt beam="1">  1        2 0.71469775E-01 0.13919980E+03</pdfrwt>
<pdfrwt beam="2">  1       -2 0.54227239E-02 0.13919980E+03</pdfrwt>
<totfact> 0.11122932E+04</totfact>
</mgrwt>
</event>
<event>
 7    1  0.6387485E-006  0.1516804E+03  0.7546771E-02  0.1207352E+00
         -1   -1    0    0    0  501 -0.00000000000E+00  0.00000000000E+00  0.93185741826E+02  0.93185741826E+02  0.00000000000E+00 0.  1.
          1   -1    0    0  501    0  0.00000000000E+00 -0.00000000000E+00 -0.21194933765E+03  0.21194933765E+03  0.00000000000E+00 0. -1.
         23    2    1    2    0    0  0.77690148597E+02 -0.36691404745E+02 -0.38356807417E+02  0.15645503515E+03  0.12499965991E+03 0.  0.
          5    1    3    3  502    0  0.16775828998E+02 -0.62361973635E+02  0.20401449594E+02  0.67887799639E+02  0.47000000000E+01 0.  1.
         -5    1    3    3    0  502  0.60914319599E+02  0.25670568890E+02 -0.58758257011E+02  0.88567235512E+02  0.47000000000E+01 0.  1.
        -11    1    1    2    0    0 -0.28521958363E+02 -0.11026949973E+02  0.12673111970E+02  0.33101412380E+02  0.00000000000E+00 0.  1.
         11    1    1    2    0    0 -0.49168190234E+02  0.47718354718E+02 -0.93079900380E+02  0.11557863195E+03  0.00000000000E+00 0. -1.
<mgrwt>
<rscale>  0 0.14453678E+03</rscale>
<asrwt>0</asrwt>
<pdfrwt beam="2">  1        1 0.32607590E-01 0.15168037E+03</pdfrwt>
<pdfrwt beam="1">  1       -1 0.14336268E-01 0.15168037E+03</pdfrwt>
<totfact> 0.45408973E+03</totfact>
</mgrwt>
</event>
<event>
 7    1  0.6387485E-006  0.1977710E+03  0.7546771E-02  0.1156276E+00
         -1   -1    0    0    0  501 -0.00000000000E+00  0.00000000000E+00  0.77489678998E+03  0.77489678998E+03  0.00000000000E+00 0.  1.
          1   -1    0    0  501    0  0.00000000000E+00 -0.00000000000E+00 -0.48102875092E+02  0.48102875092E+02  0.00000000000E+00 0. -1.
         23    2    1    2    0    0  0.42619810095E+02  0.14720408387E+03  0.47974767665E+03  0.51891348294E+03  0.12501151553E+03 0.  0.
          5    1    3    3  502    0  0.77980385804E+02  0.52652860219E+02  0.27281807497E+03  0.28862615316E+03  0.47000000000E+01 0.  1.
         -5    1    3    3    0  502 -0.35360575709E+02  0.94551223647E+02  0.20692960167E+03  0.23028732978E+03  0.47000000000E+01 0.  1.
        -11    1    1    2    0    0 -0.48450687328E+02 -0.31256474237E+02  0.11221494533E+03  0.12616112808E+03  0.00000000000E+00 0. -1.
         11    1    1    2    0    0  0.58308772336E+01 -0.11594760963E+03  0.13483129292E+03  0.17792505405E+03  0.00000000000E+00 0.  1.
<mgrwt>
<rscale>  0 0.19244266E+03</rscale>
<asrwt>0</asrwt>
<pdfrwt beam="2">  1        1 0.74004429E-02 0.19777100E+03</pdfrwt>
<pdfrwt beam="1">  1       -1 0.11921488E+00 0.19777100E+03</pdfrwt>
<totfact> 0.64808748E+02</totfact>
</mgrwt>
</event>
<event>
 7    1  0.6387485E-006  0.1425484E+03  0.7546771E-02  0.1220590E+00
          2   -1    0    0  501    0  0.00000000000E+00  0.00000000000E+00  0.72853018600E+03  0.72853018600E+03  0.00000000000E+00 0. -1.
         -2   -1    0    0    0  501 -0.00000000000E+00 -0.00000000000E+00 -0.23404757441E+02  0.23404757441E+02  0.00000000000E+00 0.  1.
         23    2    1    2    0    0  0.53184702837E+02 -0.43197249156E+02  0.31915468445E+03  0.34954222791E+03  0.12500176613E+03 0.  0.
          5    1    3    3  502    0  0.26669258937E+02 -0.37144117544E+02  0.21739514324E+02  0.50849103467E+02  0.47000000000E+01 0.  1.
         -5    1    3    3    0  502  0.26515443899E+02 -0.60531316115E+01  0.29741517013E+03  0.29869312444E+03  0.47000000000E+01 0.  1.
        -11    1    1    2    0    0 -0.77268227419E+02  0.22663799679E+02  0.24424716630E+03  0.25717835257E+03  0.00000000000E+00 0.  1.
         11    1    1    2    0    0  0.24083524582E+02  0.20533449477E+02  0.14172357781E+03  0.14521436296E+03  0.00000000000E+00 0. -1.
<mgrwt>
<rscale>  0 0.13473822E+03</rscale>
<asrwt>0</asrwt>
<pdfrwt beam="1">  1        2 0.11208155E+00 0.14254844E+03</pdfrwt>
<pdfrwt beam="2">  1       -2 0.36007325E-02 0.14254844E+03</pdfrwt>
<totfact> 0.12319655E+04</totfact>
</mgrwt>
</event>
<event>
 7    1  0.6387485E-006  0.1371263E+03  0.7546771E-02  0.1228958E+00
          1   -1    0    0  501    0  0.00000000000E+00  0.00000000000E+00  0.11874059622E+03  0.11874059622E+03  0.00000000000E+00 0. -1.
         -1   -1    0    0    0  501 -0.00000000000E+00 -0.00000000000E+00 -0.12938243688E+03  0.12938243688E+03  0.00000000000E+00 0.  1.
         23    2    1    2    0    0 -0.47191852404E+02  0.30780172067E+02 -0.26266309806E+02  0.13961926159E+03  0.12501651591E+03 0.  0.
          5    1    3    3  502    0 -0.36687761839E+02 -0.13109759535E+02 -0.67649988306E+02  0.78207854986E+02  0.47000000000E+01 0. -1.
         -5    1    3    3    0  502 -0.10504090565E+02  0.43889931602E+02  0.41383678499E+02  0.61411406602E+02  0.47000000000E+01 0. -1.
        -11    1    1    2    0    0  0.29813278744E+02 -0.49705753092E+02  0.42079121264E+02  0.71625037007E+02  0.00000000000E+00 0. -1.
         11    1    1    2    0    0  0.17378573660E+02  0.18925581025E+02 -0.26454652117E+02  0.36878734498E+02  0.00000000000E+00 0.  1.
<mgrwt>
<rscale>  0 0.12899243E+03</rscale>
<asrwt>0</asrwt>
<pdfrwt beam="1">  1        1 0.18267784E-01 0.13712629E+03</pdfrwt>
<pdfrwt beam="2">  1       -1 0.19904990E-01 0.13712629E+03</pdfrwt>
<totfact> 0.55670730E+03</totfact>
</mgrwt>
</event>
<event>
 7    1  0.6387485E-006  0.1558648E+03  0.7546771E-02  0.1201305E+00
         -2   -1    0    0    0  501 -0.00000000000E+00  0.00000000000E+00  0.10027873472E+03  0.10027873472E+03  0.00000000000E+00 0.  1.
          2   -1    0    0  501    0  0.00000000000E+00 -0.00000000000E+00 -0.20918382898E+03  0.20918382898E+03  0.00000000000E+00 0. -1.
         23    2    1    2    0    0  0.92331393296E+02  0.12057445622E+02 -0.38833800839E+02  0.16062972235E+03  0.12499350156E+03 0.  0.
          5    1    3    3  502    0 -0.14006018331E+02  0.15645789258E+02 -0.49125670199E+02  0.53631900427E+02  0.47000000000E+01 0.  1.
         -5    1    3    3    0  502  0.10633741163E+03 -0.35883436356E+01  0.10291869360E+02  0.10699782192E+03  0.47000000000E+01 0.  1.
        -11    1    1    2    0    0 -0.25428080179E+02 -0.94727896108E+01 -0.76885804891E+02  0.81533723075E+02  0.00000000000E+00 0. -1.
         11    1    1    2    0    0 -0.66903313116E+02 -0.25846560116E+01  0.68145114704E+01  0.67299118265E+02  0.00000000000E+00 0.  1.
<mgrwt>
<rscale>  0 0.14932486E+03</rscale>
<asrwt>0</asrwt>
<pdfrwt beam="2">  1        2 0.32182127E-01 0.15586482E+03</pdfrwt>
<pdfrwt beam="1">  1       -2 0.15427498E-01 0.15586482E+03</pdfrwt>
<totfact> 0.51088697E+03</totfact>
</mgrwt>
</event>
<event>
 7    1  0.6387485E-006  0.1513423E+03  0.7546771E-02  0.1206371E+00
          1   -1    0    0  501    0  0.00000000000E+00  0.00000000000E+00  0.44242940436E+03  0.44242940436E+03  0.00000000000E+00 0.  1.
         -1   -1    0    0    0  501 -0.00000000000E+00 -0.00000000000E+00 -0.63936973449E+02  0.63936973449E+02  0.00000000000E+00 0. -1.
         23    2    1    2    0    0  0.68147912967E+02 -0.51336651819E+02  0.59827880376E+02  0.16273864208E+03  0.12499960197E+03 0.  0.
          5    1    3    3  502    0  0.39344447095E+02 -0.54995996080E+02 -0.25547809572E+02  0.72438426791E+02  0.47000000000E+01 0.  1.
         -5    1    3    3    0  502  0.28803465872E+02  0.36593442613E+01  0.85375689948E+02  0.90300215286E+02  0.47000000000E+01 0.  1.
        -11    1    1    2    0    0 -0.48178399561E+02  0.21759822661E+02  0.29744997333E+03  0.30211112972E+03  0.00000000000E+00 0.  1.
         11    1    1    2    0    0 -0.19969513406E+02  0.29576829158E+02  0.21214577202E+02  0.41516606010E+02  0.00000000000E+00 0. -1.
<mgrwt>
<rscale>  0 0.14529944E+03</rscale>
<asrwt>0</asrwt>
<pdfrwt beam="1">  1        1 0.68066060E-01 0.15134230E+03</pdfrwt>
<pdfrwt beam="2">  1       -1 0.98364578E-02 0.15134230E+03</pdfrwt>
<totfact> 0.32409300E+03</totfact>
</mgrwt>
</event>
<event>
 7    1  0.6387485E-006  0.1826702E+03  0.7546771E-02  0.1170268E+00
         -1   -1    0    0    0  501 -0.00000000000E+00  0.00000000000E+00  0.16338426846E+03  0.16338426846E+03  0.00000000000E+00 0.  1.
          1   -1    0    0  501    0  0.00000000000E+00 -0.00000000000E+00 -0.19562202570E+03  0.19562202570E+03  0.00000000000E+00 0. -1.
         23    2    1    2    0    0  0.11004146524E+03 -0.75053018087E+02  0.29282833314E+02  0.18500244163E+03  0.12500535783E+03 0.  0.
          5    1    3    3  502    0  0.14397240730E+02  0.59187507728E+01 -0.38970583455E+02  0.42226869718E+02  0.47000000000E+01 0. -1.
         -5    1    3    3    0  502  0.95644224506E+02 -0.80971768860E+02  0.68253416769E+02  0.14277557191E+03  0.47000000000E+01 0. -1.
        -11    1    1    2    0    0 -0.10216626295E+03  0.51653661604E+02 -0.76402248421E+01  0.11473630236E+03  0.00000000000E+00 0.  1.
         11    1    1    2    0    0 -0.78752022836E+01  0.23399356483E+02 -0.53880365715E+02  0.59267550181E+02  0.00000000000E+00 0. -1.
<mgrwt>
<rscale>  0 0.17747670E+03</rscale>
<asrwt>0</asrwt>
<pdfrwt beam="2">  1        1 0.30095696E-01 0.18267025E+03</pdfrwt>
<pdfrwt beam="1">  1       -1 0.25136041E-01 0.18267025E+03</pdfrwt>
<totfact> 0.20517120E+03</totfact>
</mgrwt>
</event>
<event>
 7    1  0.6387485E-006  0.1454014E+03  0.7546771E-02  0.1215769E+00
         -2   -1    0    0    0  501 -0.00000000000E+00  0.00000000000E+00  0.44658946267E+02  0.44658946267E+02  0.00000000000E+00 0.  1.
          2   -1    0    0  501    0  0.00000000000E+00 -0.00000000000E+00 -0.39640310221E+03  0.39640310221E+03  0.00000000000E+00 0. -1.
         23    2    1    2    0    0  0.73342320090E+02 -0.11699083396E+02 -0.16634862807E+03  0.22093762410E+03  0.12500241283E+03 0.  0.
          5    1    3    3  502    0  0.90170225859E+02 -0.49807593266E+02 -0.12513533935E+03  0.16214934207E+03  0.47000000000E+01 0. -1.
         -5    1    3    3    0  502 -0.16827905769E+02  0.38108509870E+02 -0.41213288720E+02  0.58788282031E+02  0.47000000000E+01 0. -1.
        -11    1    1    2    0    0  0.21063797112E+02 -0.69937242300E+01 -0.40438135986E+02  0.46128500619E+02  0.00000000000E+00 0. -1.
         11    1    1    2    0    0 -0.94406117202E+02  0.18692807626E+02 -0.14495739188E+03  0.17399592376E+03  0.00000000000E+00 0.  1.
<mgrwt>
<rscale>  0 0.13820201E+03</rscale>
<asrwt>0</asrwt>
<pdfrwt beam="2">  1        2 0.60985090E-01 0.14540140E+03</pdfrwt>
<pdfrwt beam="1">  1       -2 0.68706074E-02 0.14540140E+03</pdfrwt>
<totfact> 0.92390151E+03</totfact>
</mgrwt>
</event>
<event>
 6    1  0.6387485E-006  0.1379524E+03  0.7546771E-02  0.1231930E+00
          2   -1    0    0  501    0  0.00000000000E+00  0.00000000000E+00  0.38042742489E+03  0.38042742489E+03  0.00000000000E+00 0. -1.
         -2   -1    0    0    0  501 -0.00000000000E+00 -0.00000000000E+00 -0.40166723849E+02  0.40166723849E+02  0.00000000000E+00 0.  1.
          5    1    1    2  502    0 -0.13079527770E+01  0.38913008471E+02  0.11698591369E+03  0.12338446811E+03  0.47000000000E+01 0. -1.
         -5    1    1    2    0  502 -0.35191870685E+02 -0.58172728606E+02  0.19995382278E+02  0.71024217196E+02  0.47000000000E+01 0.  1.
        -11    1    1    2    0    0  0.29081645308E+02  0.52892643079E+02  0.15911530584E+03  0.17017947684E+03  0.00000000000E+00 0.  1.
         11    1    1    2    0    0  0.74181781533E+01 -0.33632922944E+02  0.44164099226E+02  0.56005986584E+02  0.00000000000E+00 0. -1.
<mgrwt>
<rscale>  0 0.12703011E+03</rscale>
<asrwt>0</asrwt>
<pdfrwt beam="1">  1        2 0.58527294E-01 0.13795239E+03</pdfrwt>
<pdfrwt beam="2">  1       -2 0.61794962E-02 0.13795239E+03</pdfrwt>
<totfact> 0.11306260E+04</totfact>
</mgrwt>
</event>
<event>
 6    1  0.6387485E-006  0.2189872E+03  0.7546771E-02  0.1158707E+00
          1   -1    0    0  501    0  0.00000000000E+00  0.00000000000E+00  0.56683761155E+03  0.56683761155E+03  0.00000000000E+00 0. -1.
         -1   -1    0    0    0  501 -0.00000000000E+00 -0.00000000000E+00 -0.52000471214E+02  0.52000471214E+02  0.00000000000E+00 0.  1.
          5    1    1    2  502    0 -0.98857199955E+02 -0.37639449077E+02  0.29968290211E+03  0.31783864763E+03  0.47000000000E+01 0. -1.
         -5    1    1    2    0  502  0.54704030817E+02 -0.19554567474E+02  0.65694113718E+01  0.58652870880E+02  0.47000000000E+01 0.  1.
        -11    1    1    2    0    0  0.19352184789E+02  0.84298238385E+02  0.14070344618E+03  0.16516101180E+03  0.00000000000E+00 0.  1.
         11    1    1    2    0    0  0.24800984349E+02 -0.27104221834E+02  0.67881380674E+02  0.77185552457E+02  0.00000000000E+00 0. -1.
<mgrwt>
<rscale>  0 0.18972778E+03</rscale>
<asrwt>0</asrwt>
<pdfrwt beam="1">  1        1 0.87205782E-01 0.21898718E+03</pdfrwt>
<pdfrwt beam="2">  1       -1 0.80000729E-02 0.21898718E+03</pdfrwt>
<totfact> 0.32466047E+03</totfact>
</mgrwt>
</event>
<event>
 7    1  0.6387485E-006  0.1257748E+03  0.7546771E-02  0.1251568E+00
         -1   -1    0    0    0  501 -0.00000000000E+00  0.00000000000E+00  0.41269331479E+03  0.41269331479E+03  0.00000000000E+00 0.  1.
          1   -1    0    0  501    0  0.00000000000E+00 -0.00000000000E+00 -0.32942625381E+02  0.32942625381E+02  0.00000000000E+00 0. -1.
         23    2    1    2    0    0  0.61161516889E+01  0.12457001212E+02  0.30611853526E+03  0.33094992687E+03  0.12500684892E+03 0.  0.
          5    1    3    3  502    0  0.63404148403E+02  0.15030338431E+02  0.19762118103E+03  0.20813990079E+03  0.47000000000E+01 0. -1.
         -5    1    3    3    0  502 -0.57287996714E+02 -0.25733372184E+01  0.10849735422E+03  0.12281002608E+03  0.47000000000E+01 0. -1.
        -11    1    1    2    0    0 -0.43195991516E+02  0.10162712394E+02  0.40168697636E+02  0.59855648656E+02  0.00000000000E+00 0. -1.
         11    1    1    2    0    0  0.37079839827E+02 -0.22619713606E+02  0.33463456518E+02  0.54830364647E+02  0.00000000000E+00 0.  1.
<mgrwt>
<rscale>  0 0.11500745E+03</rscale>
<asrwt>0</asrwt>
<pdfrwt beam="2">  1        1 0.50680965E-02 0.12577478E+03</pdfrwt>
<pdfrwt beam="1">  1       -1 0.63491275E-01 0.12577478E+03</pdfrwt>
<totfact> 0.40534555E+03</totfact>
</mgrwt>
</event>
<event>
 7    1  0.6387485E-006  0.1312148E+03  0.7546771E-02  0.1239805E+00
         -1   -1    0    0    0  501 -0.00000000000E+00  0.00000000000E+00  0.21664866566E+02  0.21664866566E+02  0.00000000000E+00 0.  1.
          1   -1    0    0  501    0  0.00000000000E+00 -0.00000000000E+00 -0.60791161274E+03  0.60791161274E+03  0.00000000000E+00 0. -1.
         23    2    1    2    0    0 -0.36460058189E+02 -0.16237778659E+02 -0.32263712121E+03  0.34829877843E+03  0.12499730307E+03 0.  0.
          5    1    3    3  502    0  0.30362330102E+02 -0.25234501551E+02 -0.23119627203E+03  0.23458997710E+03  0.47000000000E+01 0.  1.
         -5    1    3    3    0  502 -0.66822388292E+02  0.89967228925E+01 -0.91440849182E+02  0.11370880133E+03  0.47000000000E+01 0.  1.
        -11    1    1    2    0    0  0.61993439029E+01 -0.36649037303E+02 -0.97422345320E+02  0.10427222625E+03  0.00000000000E+00 0. -1.
         11    1    1    2    0    0  0.30260714286E+02  0.52886815962E+02 -0.16618727965E+03  0.17700547463E+03  0.00000000000E+00 0.  1.
<mgrwt>
<rscale>  0 0.12201807E+03</rscale>
<asrwt>0</asrwt>
<pdfrwt beam="2">  1        1 0.93524863E-01 0.13121481E+03</pdfrwt>
<pdfrwt beam="1">  1       -1 0.33330564E-02 0.13121481E+03</pdfrwt>
<totfact> 0.10610672E+04</totfact>
</mgrwt>
</event>
<event>
 7    1  0.6387485E-006  0.2131494E+03  0.7546771E-02  0.1142647E+00
          1   -1    0    0  501    0  0.00000000000E+00  0.00000000000E+00  0.38265528707E+03  0.38265528707E+03  0.00000000000E+00 0. -1.
         -1   -1    0    0    0  501 -0.00000000000E+00 -0.00000000000E+00 -0.13804346245E+03  0.13804346245E+03  0.00000000000E+00 0.  1.
         23    2    1    2    0    0  0.16178902967E+03  0.60264041725E+02  0.75144196663E+01  0.21328180908E+03  0.12500087494E+03 0.  0.
          5    1    3    3  502    0  0.57887149878E+02  0.79645620662E+02 -0.26637347115E+02  0.10210771407E+03  0.47000000000E+01 0. -1.
         -5    1    3    3    0  502  0.10390187980E+03 -0.19381578936E+02  0.34151766781E+02  0.11117409501E+03  0.47000000000E+01 0. -1.
        -11    1    1    2    0    0 -0.75485694071E+02 -0.65047089863E+02  0.17359722910E+03  0.20016296326E+03  0.00000000000E+00 0. -1.
         11    1    1    2    0    0 -0.86303335602E+02  0.47830481377E+01  0.63500175850E+02  0.10725397717E+03  0.00000000000E+00 0.  1.
<mgrwt>
<rscale>  0 0.20864056E+03</rscale>
<asrwt>0</asrwt>
<pdfrwt beam="1">  1        1 0.58870044E-01 0.21314939E+03</pdfrwt>
<pdfrwt beam="2">  1       -1 0.21237456E-01 0.21314939E+03</pdfrwt>
<totfact> 0.11700443E+03</totfact>
</mgrwt>
</event>
<event>
 6    1  0.6387485E-006  0.1726898E+03  0.7546771E-02  0.1195351E+00
         -2   -1    0    0    0  501 -0.00000000000E+00  0.00000000000E+00  0.28156350337E+03  0.28156350337E+03  0.00000000000E+00 0.  1.
          2   -1    0    0  501    0  0.00000000000E+00 -0.00000000000E+00 -0.12333781635E+03  0.12333781635E+03  0.00000000000E+00 0. -1.
          5    1    1    2  502    0  0.66438844647E+02 -0.45127937978E+02  0.28679983649E+02  0.85412424894E+02  0.47000000000E+01 0. -1.
         -5    1    1    2    0  502 -0.33971757700E+02 -0.36306903705E+01  0.19064132347E+03  0.19373555804E+03  0.47000000000E+01 0.  1.
        -11    1    1    2    0    0  0.23466787330E+02  0.48346129406E+02 -0.25797768416E+02  0.59611770578E+02  0.00000000000E+00 0.  1.
         11    1    1    2    0    0 -0.55933874278E+02  0.41249894219E+00 -0.35297851690E+02  0.66141566212E+02  0.00000000000E+00 0. -1.
<mgrwt>
<rscale>  0 0.15424598E+03</rscale>
<asrwt>0</asrwt>
<pdfrwt beam="2">  1        2 0.18975049E-01 0.17268978E+03</pdfrwt>
<pdfrwt beam="1">  1       -2 0.43317462E-01 0.17268978E+03</pdfrwt>
<totfact> 0.14835608E+03</totfact>
</mgrwt>
</event>
<event>
 7    1  0.8936138E-006  0.3617721E+03  0.7546771E-02  0.1058950E+00
          1   -1    0    0  501    0  0.00000000000E+00  0.00000000000E+00  0.90936326691E+03  0.90936326691E+03  0.00000000000E+00 0. -1.
         -1   -1    0    0    0  501 -0.00000000000E+00 -0.00000000000E+00 -0.15903952945E+03  0.15903952945E+03  0.00000000000E+00 0.  1.
         23    2    1    2    0    0 -0.31792697168E+03  0.11906431511E+03  0.19389434387E+03  0.41045593089E+03  0.12500073664E+03 0.  0.
          5    1    3    3  502    0 -0.14597139491E+03  0.16450585334E+02  0.14012212926E+03  0.20306297299E+03  0.47000000000E+01 0. -1.
         -5    1    3    3    0  502 -0.17195557677E+03  0.10261372978E+03  0.53772214608E+02  0.20739295790E+03  0.47000000000E+01 0. -1.
        -11    1    1    2    0    0  0.29257170475E+03 -0.92122471290E+02  0.53041652512E+03  0.61272052541E+03  0.00000000000E+00 0. -1.
         11    1    1    2    0    0  0.25355266933E+02 -0.26941843821E+02  0.26012868463E+02  0.45226340062E+02  0.00000000000E+00 0.  1.
<mgrwt>
<rscale>  0 0.35907739E+03</rscale>
<asrwt>0</asrwt>
<pdfrwt beam="1">  1        1 0.13990204E+00 0.36177210E+03</pdfrwt>
<pdfrwt beam="2">  1       -1 0.24467620E-01 0.36177210E+03</pdfrwt>
<totfact> 0.27035895E+02</totfact>
</mgrwt>
</event>
<event>
 7    1  0.6387485E-006  0.1374456E+03  0.7546771E-02  0.1228318E+00
         -3   -1    0    0    0  501 -0.00000000000E+00  0.00000000000E+00  0.23448485710E+03  0.23448485710E+03  0.00000000000E+00 0.  1.
          3   -1    0    0  501    0  0.00000000000E+00 -0.00000000000E+00 -0.89202897681E+02  0.89202897681E+02  0.00000000000E+00 0. -1.
         23    2    1    2    0    0 -0.13966200258E+01 -0.57132557872E+02  0.16405254460E+03  0.21401990913E+03  0.12500081759E+03 0.  0.
          5    1    3    3  502    0  0.60016918562E+02 -0.26885614640E+02  0.10229903343E+03  0.12170476174E+03  0.47000000000E+01 0. -1.
         -5    1    3    3    0  502 -0.61413538587E+02 -0.30246943232E+02  0.61753511166E+02  0.92315147392E+02  0.47000000000E+01 0. -1.
        -11    1    1    2    0    0 -0.19911977014E+02  0.20421023253E+02  0.32411538707E+02  0.43174215230E+02  0.00000000000E+00 0.  1.
         11    1    1    2    0    0  0.21308597040E+02  0.36711534619E+02 -0.51182123884E+02  0.66493630425E+02  0.00000000000E+00 0. -1.
<mgrwt>
<rscale>  0 0.12942071E+03</rscale>
<asrwt>0</asrwt>
<pdfrwt beam="2">  1        3 0.13723523E-01 0.13744557E+03</pdfrwt>
<pdfrwt beam="1">  1       -3 0.36074593E-01 0.13744557E+03</pdfrwt>
<totfact> 0.75895861E+02</totfact>
</mgrwt>
</event>
<event>
 7    1  0.6387485E-006  0.1529555E+03  0.7546771E-02  0.1204991E+00
         -2   -1    0    0    0  501 -0.00000000000E+00  0.00000000000E+00  0.72801426582E+02  0.72801426582E+02  0.00000000000E+00 0.  1.
          2   -1    0    0  501    0  0.00000000000E+00 -0.00000000000E+00 -0.33825924386E+03  0.33825924386E+03  0.00000000000E+00 0. -1.
         23    2    1    2    0    0  0.14451132966E+01 -0.88138274457E+02 -0.23298590036E+03  0.27870740510E+03  0.12499977646E+03 0.  0.
          5    1    3    3  502    0 -0.43535499010E+02 -0.97391018195E+02 -0.16419238459E+03  0.19586112237E+03  0.47000000000E+01 0.  1.
         -5    1    3    3    0  502  0.44980612307E+02  0.92527437387E+01 -0.68793515777E+02  0.82846282735E+02  0.47000000000E+01 0.  1.
        -11    1    1    2    0    0 -0.30506482369E+02  0.16114058118E+02  0.18798988535E+02  0.39290078971E+02  0.00000000000E+00 0.  1.
         11    1    1    2    0    0  0.29061369073E+02  0.72024216338E+02 -0.51270905454E+02  0.93063186371E+02  0.00000000000E+00 0. -1.
<mgrwt>
<rscale>  0 0.14638189E+03</rscale>
<asrwt>0</asrwt>
<pdfrwt beam="2">  1        2 0.52039885E-01 0.15295551E+03</pdfrwt>
<pdfrwt beam="1">  1       -2 0.11200219E-01 0.15295551E+03</pdfrwt>
<totfact> 0.51235979E+03</totfact>
</mgrwt>
</event>
<event>
 7    1  0.6387485E-006  0.1808875E+03  0.7546771E-02  0.1171300E+00
         -1   -1    0    0    0  501 -0.00000000000E+00  0.00000000000E+00  0.14205480508E+03  0.14205480508E+03  0.00000000000E+00 0.  1.
          1   -1    0    0  501    0  0.00000000000E+00 -0.00000000000E+00 -0.28661413275E+03  0.28661413275E+03  0.00000000000E+00 0. -1.
         23    2    1    2    0    0  0.75049743018E+02 -0.74472391604E+02  0.41787480873E+02  0.16896640763E+03  0.12499940924E+03 0.  0.
          5    1    3    3  502    0  0.34930447476E+02 -0.10016705900E+03  0.54608608860E+02  0.11940588776E+03  0.47000000000E+01 0. -1.
         -5    1    3    3    0  502  0.40119295542E+02  0.25694667394E+02 -0.12821127987E+02  0.49560519873E+02  0.47000000000E+01 0. -1.
        -11    1    1    2    0    0 -0.11363886628E+03  0.65672121783E+02 -0.10096028144E+03  0.16558864073E+03  0.00000000000E+00 0.  1.
         11    1    1    2    0    0  0.38589123258E+02  0.88002698207E+01 -0.85386527097E+02  0.94113889477E+02  0.00000000000E+00 0. -1.
<mgrwt>
<rscale>  0 0.17643315E+03</rscale>
<asrwt>0</asrwt>
<pdfrwt beam="2">  1        1 0.44094482E-01 0.18088745E+03</pdfrwt>
<pdfrwt beam="1">  1       -1 0.21854585E-01 0.18088745E+03</pdfrwt>
<totfact> 0.16018553E+03</totfact>
</mgrwt>
</event>
<event>
 7    1  0.6387485E-006  0.1529705E+03  0.7546771E-02  0.1205243E+00
          1   -1    0    0  501    0  0.00000000000E+00  0.00000000000E+00  0.61730688172E+03  0.61730688172E+03  0.00000000000E+00 0. -1.
         -1   -1    0    0    0  501 -0.00000000000E+00 -0.00000000000E+00 -0.49762323380E+02  0.49762323380E+02  0.00000000000E+00 0.  1.
         23    2    1    2    0    0 -0.77359040871E+02  0.42319516848E+02  0.10078147851E+03  0.18318539296E+03  0.12499847629E+03 0.  0.
          5    1    3    3  502    0 -0.88550616581E+02  0.10013573751E+02  0.11525301819E+03  0.14576292930E+03  0.47000000000E+01 0. -1.
         -5    1    3    3    0  502  0.11191575710E+02  0.32305943097E+02 -0.14471539681E+02  0.37422463668E+02  0.47000000000E+01 0. -1.
        -11    1    1    2    0    0  0.58059466240E+02  0.19954953331E+02  0.19645342370E+03  0.20582285943E+03  0.00000000000E+00 0.  1.
         11    1    1    2    0    0  0.19299574631E+02 -0.62274470179E+02  0.27030965614E+03  0.27806095271E+03  0.00000000000E+00 0. -1.
<mgrwt>
<rscale>  0 0.14618355E+03</rscale>
<asrwt>0</asrwt>
<pdfrwt beam="1">  1        1 0.94970284E-01 0.15297053E+03</pdfrwt>
<pdfrwt beam="2">  1       -1 0.76557425E-02 0.15297053E+03</pdfrwt>
<totfact> 0.30524310E+03</totfact>
</mgrwt>
</event>
<event>
 7    1  0.6522200E-006  0.1900527E+03  0.7546771E-02  0.1163177E+00
         -1   -1    0    0    0  501 -0.00000000000E+00  0.00000000000E+00  0.12815346070E+03  0.12815346070E+03  0.00000000000E+00 0.  1.
          1   -1    0    0  501    0  0.00000000000E+00 -0.00000000000E+00 -0.26005350524E+03  0.26005350524E+03  0.00000000000E+00 0. -1.
         23    2    1    2    0    0  0.16793421630E+02 -0.14217319386E+03 -0.37767477682E+02  0.19376899868E+03  0.12499922567E+03 0.  0.
          5    1    3    3  502    0  0.25347077701E+02 -0.15262791889E+03 -0.15148510578E+01  0.15479709541E+03  0.47000000000E+01 0. -1.
         -5    1    3    3    0  502 -0.85536560714E+01  0.10454725035E+02 -0.36252626624E+02  0.38971903275E+02  0.47000000000E+01 0. -1.
        -11    1    1    2    0    0  0.24637202074E+02  0.94997933148E+02 -0.25458759096E+02  0.10138908937E+03  0.00000000000E+00 0.  1.
         11    1    1    2    0    0 -0.41430623704E+02  0.47175260708E+02 -0.68673807763E+02  0.93048877887E+02  0.00000000000E+00 0. -1.
<mgrwt>
<rscale>  0 0.18486412E+03</rscale>
<asrwt>0</asrwt>
<pdfrwt beam="2">  1        1 0.40008231E-01 0.19005274E+03</pdfrwt>
<pdfrwt beam="1">  1       -1 0.19715917E-01 0.19005274E+03</pdfrwt>
<totfact> 0.21406540E+03</totfact>
</mgrwt>
</event>
<event>
 7    1  0.6387485E-006  0.2192655E+03  0.7546771E-02  0.1137863E+00
          2   -1    0    0  501    0  0.00000000000E+00  0.00000000000E+00  0.51202431939E+03  0.51202431939E+03  0.00000000000E+00 0. -1.
         -2   -1    0    0    0  501 -0.00000000000E+00 -0.00000000000E+00 -0.94938319845E+02  0.94938319845E+02  0.00000000000E+00 0.  1.
         23    2    1    2    0    0 -0.44441040297E+02 -0.17457585412E+03  0.12626074446E+03  0.25302002302E+03  0.12500248619E+03 0.  0.
          5    1    3    3  502    0  0.33943122814E+02 -0.52304535378E+02  0.32223997142E+01  0.62612888988E+02  0.47000000000E+01 0.  1.
         -5    1    3    3    0  502 -0.78384163111E+02 -0.12227131874E+03  0.12303834474E+03  0.19040713403E+03  0.47000000000E+01 0.  1.
        -11    1    1    2    0    0  0.61763537857E+02  0.65234880507E+02  0.11134361741E+03  0.14306545838E+03  0.00000000000E+00 0.  1.
         11    1    1    2    0    0 -0.17322497560E+02  0.10934097361E+03  0.17948163767E+03  0.21087715783E+03  0.00000000000E+00 0. -1.
<mgrwt>
<rscale>  0 0.21474435E+03</rscale>
<asrwt>0</asrwt>
<pdfrwt beam="1">  1        2 0.78772971E-01 0.21926549E+03</pdfrwt>
<pdfrwt beam="2">  1       -2 0.14605896E-01 0.21926549E+03</pdfrwt>
<totfact> 0.21539431E+03</totfact>
</mgrwt>
</event>
<event>
 6    1  0.6387485E-006  0.2844733E+03  0.7546771E-02  0.1093271E+00
          1   -1    0    0  501    0  0.00000000000E+00  0.00000000000E+00  0.40913139909E+02  0.40913139909E+02  0.00000000000E+00 0. -1.
         -1   -1    0    0    0  501 -0.00000000000E+00 -0.00000000000E+00 -0.49449290806E+03  0.49449290806E+03  0.00000000000E+00 0.  1.
          5    1    1    2  502    0  0.30112481137E+02 -0.41217930466E+02 -0.73307402027E+02  0.89452470643E+02  0.47000000000E+01 0. -1.
         -5    1    1    2    0  502 -0.64964809121E+02  0.48862742304E+02 -0.17598528610E+03  0.19390952770E+03  0.47000000000E+01 0.  1.
        -11    1    1    2    0    0  0.72929282248E+01  0.65840911848E+02 -0.11860023830E+03  0.13584634334E+03  0.00000000000E+00 0.  1.
         11    1    1    2    0    0  0.27559399759E+02 -0.73485723686E+02 -0.85686841730E+02  0.11619770629E+03  0.00000000000E+00 0. -1.
<mgrwt>
<rscale>  0 0.28447325E+03</rscale>
<asrwt>0</asrwt>
<pdfrwt beam="1">  1        1 0.62943288E-02 0.28447325E+03</pdfrwt>
<pdfrwt beam="2">  1       -1 0.76075837E-01 0.28447325E+03</pdfrwt>
<totfact> 0.21873483E+03</totfact>
</mgrwt>
</event>
<event>
 7    1  0.6387485E-006  0.1682810E+03  0.7546771E-02  0.1186343E+00
          1   -1    0    0  501    0  0.00000000000E+00  0.00000000000E+00  0.12566747147E+03  0.12566747147E+03  0.00000000000E+00 0. -1.
         -1   -1    0    0    0  501 -0.00000000000E+00 -0.00000000000E+00 -0.20340582845E+03  0.20340582845E+03  0.00000000000E+00 0.  1.
         23    2    1    2    0    0 -0.44942586078E+02  0.10331635144E+03 -0.85299098242E+01  0.16849700431E+03  0.12499750631E+03 0.  0.
          5    1    3    3  502    0  0.35755026471E+02  0.73612175645E+02 -0.81668101920E+01  0.82376945257E+02  0.47000000000E+01 0.  1.
         -5    1    3    3    0  502 -0.80697612549E+02  0.29704175793E+02 -0.36309963217E+00  0.86120059057E+02  0.47000000000E+01 0.  1.
        -11    1    1    2    0    0  0.58005085187E+02 -0.74874986005E+02 -0.83410790323E+02  0.12620702587E+03  0.00000000000E+00 0.  1.
         11    1    1    2    0    0 -0.13062499110E+02 -0.28441365433E+02  0.14202343170E+02  0.34369269737E+02  0.00000000000E+00 0. -1.
<mgrwt>
<rscale>  0 0.16210282E+03</rscale>
<asrwt>0</asrwt>
<pdfrwt beam="1">  1        1 0.19333457E-01 0.16828096E+03</pdfrwt>
<pdfrwt beam="2">  1       -1 0.31293204E-01 0.16828096E+03</pdfrwt>
<totfact> 0.24822775E+03</totfact>
</mgrwt>
</event>
<event>
 7    1  0.6387485E-006  0.1280063E+03  0.7546771E-02  0.1242040E+00
          2   -1    0    0  501    0  0.00000000000E+00  0.00000000000E+00  0.11200625179E+03  0.11200625179E+03  0.00000000000E+00 0. -1.
         -2   -1    0    0    0  501 -0.00000000000E+00 -0.00000000000E+00 -0.12168952429E+03  0.12168952429E+03  0.00000000000E+00 0.  1.
         23    2    1    2    0    0 -0.73640328309E+01  0.26586188146E+02 -0.28043390960E+02  0.13104210853E+03  0.12499819220E+03 0.  0.
          5    1    3    3  502    0 -0.27157394023E+02 -0.24890687836E+02 -0.57416702116E+02  0.68380099977E+02  0.47000000000E+01 0. -1.
         -5    1    3    3    0  502  0.19793361192E+02  0.51476875982E+02  0.29373311155E+02  0.62662008557E+02  0.47000000000E+01 0. -1.
        -11    1    1    2    0    0 -0.27320532397E+02  0.17291155598E+02  0.31564638994E+02  0.45185417860E+02  0.00000000000E+00 0. -1.
         11    1    1    2    0    0  0.34684565228E+02 -0.43877343745E+02 -0.13204520541E+02  0.57468249685E+02  0.00000000000E+00 0.  1.
<mgrwt>
<rscale>  0 0.12064298E+03</rscale>
<asrwt>0</asrwt>
<pdfrwt beam="1">  1        2 0.17231731E-01 0.12800626E+03</pdfrwt>
<pdfrwt beam="2">  1       -2 0.18721465E-01 0.12800626E+03</pdfrwt>
<totfact> 0.73283801E+03</totfact>
</mgrwt>
</event>
<event>
 7    1  0.6387485E-006  0.1275380E+03  0.7546771E-02  0.1246296E+00
          2   -1    0    0  501    0  0.00000000000E+00  0.00000000000E+00  0.14255317664E+03  0.14255317664E+03  0.00000000000E+00 0. -1.
         -2   -1    0    0    0  501 -0.00000000000E+00 -0.00000000000E+00 -0.85950767460E+02  0.85950767460E+02  0.00000000000E+00 0.  1.
         23    2    1    2    0    0 -0.18107162535E+01  0.25262622853E+02  0.28747886271E+02  0.13073782492E+03  0.12499783635E+03 0.  0.
          5    1    3    3  502    0  0.22564396189E+02  0.24148447139E+02 -0.43214116054E+02  0.54606311915E+02  0.47000000000E+01 0. -1.
         -5    1    3    3    0  502 -0.24375112443E+02  0.11141757143E+01  0.71962002325E+02  0.76131513007E+02  0.47000000000E+01 0. -1.
        -11    1    1    2    0    0  0.14949811775E+01  0.21937553416E+02 -0.20593507606E+02  0.30126131085E+02  0.00000000000E+00 0.  1.
         11    1    1    2    0    0  0.31573507602E+00 -0.47200176269E+02  0.48448030519E+02  0.67639988096E+02  0.00000000000E+00 0. -1.
<mgrwt>
<rscale>  0 0.11808125E+03</rscale>
<asrwt>0</asrwt>
<pdfrwt beam="1">  1        2 0.21931258E-01 0.12753799E+03</pdfrwt>
<pdfrwt beam="2">  1       -2 0.13223195E-01 0.12753799E+03</pdfrwt>
<totfact> 0.98636797E+03</totfact>
</mgrwt>
</event>
<event>
 7    1  0.6387485E-006  0.1291663E+03  0.7546771E-02  0.1246124E+00
          1   -1    0    0  501    0  0.00000000000E+00  0.00000000000E+00  0.97682633471E+02  0.97682633471E+02  0.00000000000E+00 0. -1.
         -1   -1    0    0    0  501 -0.00000000000E+00 -0.00000000000E+00 -0.13830935121E+03  0.13830935121E+03  0.00000000000E+00 0.  1.
         23    2    1    2    0    0  0.20046588071E+02  0.25611342571E+02 -0.61544098148E+02  0.14307905544E+03  0.12500453403E+03 0.  0.
          5    1    3    3  502    0  0.41668629450E+02  0.65973435658E+02 -0.19109098702E+02  0.80473700959E+02  0.47000000000E+01 0.  1.
         -5    1    3    3    0  502 -0.21622041379E+02 -0.40362093087E+02 -0.42434999446E+02  0.62605354481E+02  0.47000000000E+01 0.  1.
        -11    1    1    2    0    0 -0.18323319071E+02 -0.48528659029E+02 -0.11542024129E+02  0.53141256006E+02  0.00000000000E+00 0.  1.
         11    1    1    2    0    0 -0.17232689995E+01  0.22917316457E+02  0.32459404533E+02  0.39771673240E+02  0.00000000000E+00 0. -1.
<mgrwt>
<rscale>  0 0.11818366E+03</rscale>
<asrwt>0</asrwt>
<pdfrwt beam="1">  1        1 0.15028098E-01 0.12916633E+03</pdfrwt>
<pdfrwt beam="2">  1       -1 0.21278362E-01 0.12916633E+03</pdfrwt>
<totfact> 0.64006519E+03</totfact>
</mgrwt>
</event>
<event>
 7    1  0.6387485E-006  0.1750276E+03  0.7546771E-02  0.1178447E+00
         -1   -1    0    0    0  501 -0.00000000000E+00  0.00000000000E+00  0.14740811232E+03  0.14740811232E+03  0.00000000000E+00 0.  1.
          1   -1    0    0  501    0  0.00000000000E+00 -0.00000000000E+00 -0.18340457088E+03  0.18340457088E+03  0.00000000000E+00 0. -1.
         23    2    1    2    0    0 -0.11489509552E+03  0.42515338694E+02 -0.14295148635E+02  0.17561042045E+03  0.12500492589E+03 0.  0.
          5    1    3    3  502    0 -0.11649885992E+03  0.77297892296E+02 -0.11016248861E+02  0.14032247238E+03  0.47000000000E+01 0.  1.
         -5    1    3    3    0  502  0.16037643960E+01 -0.34782553601E+02 -0.32788997747E+01  0.35287948070E+02  0.47000000000E+01 0.  1.
        -11    1    1    2    0    0  0.31245180126E+02 -0.54220591929E+02  0.12951633801E+02  0.63905232089E+02  0.00000000000E+00 0. -1.
         11    1    1    2    0    0  0.83649915397E+02  0.11705253235E+02 -0.34652943718E+02  0.91297030661E+02  0.00000000000E+00 0.  1.
<mgrwt>
<rscale>  0 0.16942698E+03</rscale>
<asrwt>0</asrwt>
<pdfrwt beam="2">  1        1 0.28216088E-01 0.17502762E+03</pdfrwt>
<pdfrwt beam="1">  1       -1 0.22678171E-01 0.17502762E+03</pdfrwt>
<totfact> 0.26311702E+03</totfact>
</mgrwt>
</event>
<event>
 7    1  0.6387485E-006  0.1258551E+03  0.7546771E-02  0.1248847E+00
          1   -1    0    0  501    0  0.00000000000E+00  0.00000000000E+00  0.28637874186E+02  0.28637874186E+02  0.00000000000E+00 0. -1.
         -1   -1    0    0    0  501 -0.00000000000E+00 -0.00000000000E+00 -0.45453069743E+03  0.45453069743E+03  0.00000000000E+00 0.  1.
         23    2    1    2    0    0  0.10282598274E+01  0.14602893314E+02 -0.31144541186E+03  0.33591330127E+03  0.12500079837E+03 0.  0.
          5    1    3    3  502    0 -0.35611283276E+02 -0.43628624345E+02 -0.15338663154E+03  0.16346610992E+03  0.47000000000E+01 0.  1.
         -5    1    3    3    0  502  0.36639543103E+02  0.58231517659E+02 -0.15805878032E+03  0.17244719135E+03  0.47000000000E+01 0.  1.
        -11    1    1    2    0    0  0.45197894272E+02 -0.65241297337E+01 -0.53645999079E+02  0.70450742598E+02  0.00000000000E+00 0.  1.
         11    1    1    2    0    0 -0.46226154100E+02 -0.80787635802E+01 -0.60801412301E+02  0.76804527742E+02  0.00000000000E+00 0. -1.
<mgrwt>
<rscale>  0 0.11658061E+03</rscale>
<asrwt>0</asrwt>
<pdfrwt beam="1">  1        1 0.44058268E-02 0.12585508E+03</pdfrwt>
<pdfrwt beam="2">  1       -1 0.69927799E-01 0.12585508E+03</pdfrwt>
<totfact> 0.40680478E+03</totfact>
</mgrwt>
</event>
<event>
 7    1  0.6387485E-006  0.1289208E+03  0.7546771E-02  0.1241391E+00
         -1   -1    0    0    0  501 -0.00000000000E+00  0.00000000000E+00  0.67436518031E+03  0.67436518031E+03  0.00000000000E+00 0.  1.
          1   -1    0    0  501    0  0.00000000000E+00 -0.00000000000E+00 -0.19997381433E+02  0.19997381433E+02  0.00000000000E+00 0. -1.
         23    2    1    2    0    0  0.30171323512E+02 -0.91016853809E+01  0.42378247896E+03  0.44295842265E+03  0.12500970077E+03 0.  0.
          5    1    3    3  502    0 -0.59778387448E+01  0.21366216974E+02  0.73729869303E+01  0.23847446826E+02  0.47000000000E+01 0. -1.
         -5    1    3    3    0  502  0.36149162257E+02 -0.30467902355E+02  0.41640949203E+03  0.41911097583E+03  0.47000000000E+01 0. -1.
        -11    1    1    2    0    0 -0.20012439566E+01  0.42224257455E+02  0.17906808964E+03  0.18398987370E+03  0.00000000000E+00 0.  1.
         11    1    1    2    0    0 -0.28170079555E+02 -0.33122572074E+02  0.51517230266E+02  0.67414265384E+02  0.00000000000E+00 0. -1.
<mgrwt>
<rscale>  0 0.12104001E+03</rscale>
<asrwt>0</asrwt>
<pdfrwt beam="2">  1        1 0.30765207E-02 0.12892081E+03</pdfrwt>
<pdfrwt beam="1">  1       -1 0.10374847E+00 0.12892081E+03</pdfrwt>
<totfact> 0.29318951E+03</totfact>
</mgrwt>
</event>
<event>
 7    1  0.6387485E-006  0.1325108E+03  0.7546771E-02  0.1235499E+00
          2   -1    0    0  501    0  0.00000000000E+00  0.00000000000E+00  0.36493367035E+03  0.36493367035E+03  0.00000000000E+00 0. -1.
         -2   -1    0    0    0  501 -0.00000000000E+00 -0.00000000000E+00 -0.38408503310E+02  0.38408503310E+02  0.00000000000E+00 0.  1.
         23    2    1    2    0    0 -0.44170030687E+02 -0.15905949513E+02  0.17344981863E+03  0.21827495956E+03  0.12391580830E+03 0.  0.
          5    1    3    3  502    0 -0.15115259381E+02 -0.91201967776E+00  0.18316054384E+03  0.18384552664E+03  0.47000000000E+01 0. -1.
         -5    1    3    3    0  502 -0.29054771306E+02 -0.14993929835E+02 -0.97107252015E+01  0.34429432924E+02  0.47000000000E+01 0. -1.
        -11    1    1    2    0    0  0.11995009708E+02 -0.38718489970E+02  0.63237321272E+02  0.75112985063E+02  0.00000000000E+00 0. -1.
         11    1    1    2    0    0  0.32175020979E+02  0.54624439483E+02  0.89838027139E+02  0.10995422904E+03  0.00000000000E+00 0.  1.
<mgrwt>
<rscale>  0 0.12472570E+03</rscale>
<asrwt>0</asrwt>
<pdfrwt beam="1">  1        2 0.56143639E-01 0.13251082E+03</pdfrwt>
<pdfrwt beam="2">  1       -2 0.59090007E-02 0.13251082E+03</pdfrwt>
<totfact> 0.12609512E+04</totfact>
</mgrwt>
</event>
<event>
 7    1  0.6387485E-006  0.1308808E+03  0.7546771E-02  0.1228664E+00
         -3   -1    0    0    0  501 -0.00000000000E+00  0.00000000000E+00  0.36678028101E+02  0.36678028101E+02  0.00000000000E+00 0.  1.
          3   -1    0    0  501    0  0.00000000000E+00 -0.00000000000E+00 -0.45155317490E+03  0.45155317490E+03  0.00000000000E+00 0. -1.
         23    2    1    2    0    0 -0.67475527781E+01 -0.38204252052E+02 -0.18045515733E+03  0.22292114020E+03  0.12499870637E+03 0.  0.
          5    1    3    3  502    0 -0.63691599261E+02 -0.90540914852E+01 -0.11097431116E+03  0.12835881009E+03  0.47000000000E+01 0.  1.
         -5    1    3    3    0  502  0.56944046483E+02 -0.29150160567E+02 -0.69480846171E+02  0.94562330109E+02  0.47000000000E+01 0.  1.
        -11    1    1    2    0    0 -0.52915156702E+02  0.23355252366E+02 -0.15086039053E+03  0.16156837269E+03  0.00000000000E+00 0. -1.
         11    1    1    2    0    0  0.59662709480E+02  0.14848999686E+02 -0.83559598929E+02  0.10374169011E+03  0.00000000000E+00 0.  1.
<mgrwt>
<rscale>  0 0.12918918E+03</rscale>
<asrwt>0</asrwt>
<pdfrwt beam="2">  1        3 0.69469719E-01 0.13088075E+03</pdfrwt>
<pdfrwt beam="1">  1       -3 0.56427736E-02 0.13088075E+03</pdfrwt>
<totfact> 0.87338220E+02</totfact>
</mgrwt>
</event>
<event>
 6    1  0.6387485E-006  0.2540704E+03  0.7546771E-02  0.1132714E+00
         -2   -1    0    0    0  501 -0.00000000000E+00  0.00000000000E+00  0.28099245882E+02  0.28099245882E+02  0.00000000000E+00 0.  1.
          2   -1    0    0  501    0  0.00000000000E+00 -0.00000000000E+00 -0.14316201363E+04  0.14316201363E+04  0.00000000000E+00 0. -1.
          5    1    1    2  502    0 -0.68722165587E+02 -0.80543064194E+02 -0.87921356829E+03  0.88557806539E+03  0.47000000000E+01 0. -1.
         -5    1    1    2    0  502  0.12384932719E+02 -0.19539702300E+02  0.55740533391E+01  0.24255856923E+02  0.47000000000E+01 0.  1.
        -11    1    1    2    0    0  0.77802467057E+02  0.53268569623E+02 -0.30823954831E+03  0.32233892650E+03  0.00000000000E+00 0. -1.
         11    1    1    2    0    0 -0.21465234189E+02  0.46814196871E+02 -0.22164182719E+03  0.22754653341E+03  0.00000000000E+00 0.  1.
<mgrwt>
<rscale>  0 0.22157544E+03</rscale>
<asrwt>0</asrwt>
<pdfrwt beam="2">  1        2 0.22024921E+00 0.25407039E+03</pdfrwt>
<pdfrwt beam="1">  1       -2 0.43229617E-02 0.25407039E+03</pdfrwt>
<totfact> 0.36260723E+03</totfact>
</mgrwt>
</event>
<event>
 7    1  0.6387485E-006  0.1308714E+03  0.7546771E-02  0.1240775E+00
          2   -1    0    0  501    0  0.00000000000E+00  0.00000000000E+00  0.75130297143E+02  0.75130297143E+02  0.00000000000E+00 0. -1.
         -2   -1    0    0    0  501 -0.00000000000E+00 -0.00000000000E+00 -0.17573736015E+03  0.17573736015E+03  0.00000000000E+00 0.  1.
         23    2    1    2    0    0  0.38677292983E+02  0.22661029975E+01 -0.41427881460E+02  0.13727196826E+03  0.12500502267E+03 0.  0.
          5    1    3    3  502    0  0.20830547915E+02  0.61129784198E+02 -0.34800620569E+01  0.64845686630E+02  0.47000000000E+01 0. -1.
         -5    1    3    3    0  502  0.17846745068E+02 -0.58863681201E+02 -0.37947819403E+02  0.72426281635E+02  0.47000000000E+01 0. -1.
        -11    1    1    2    0    0  0.82551181680E+01 -0.24783602989E+02 -0.55584918491E+02  0.61417075124E+02  0.00000000000E+00 0.  1.
         11    1    1    2    0    0 -0.46932411151E+02  0.22517499992E+02 -0.35942630579E+01  0.52178613907E+02  0.00000000000E+00 0. -1.
<mgrwt>
<rscale>  0 0.12141853E+03</rscale>
<asrwt>0</asrwt>
<pdfrwt beam="1">  1        2 0.11558507E-01 0.13087140E+03</pdfrwt>
<pdfrwt beam="2">  1       -2 0.27036517E-01 0.13087140E+03</pdfrwt>
<totfact> 0.62465780E+03</totfact>
</mgrwt>
</event>
<event>
 7    1  0.6387485E-006  0.1451738E+03  0.7546771E-02  0.1215343E+00
          3   -1    0    0  501    0  0.00000000000E+00  0.00000000000E+00  0.11823475121E+03  0.11823475121E+03  0.00000000000E+00 0. -1.
         -3   -1    0    0    0  501 -0.00000000000E+00 -0.00000000000E+00 -0.15438477978E+03  0.15438477978E+03  0.00000000000E+00 0.  1.
         23    2    1    2    0    0  0.73195087325E+02 -0.96712741336E+01 -0.44988079157E+02  0.15198473131E+03  0.12499750770E+03 0.  0.
          5    1    3    3  502    0  0.22123184483E+02  0.26443460596E+02 -0.74827119698E+02  0.82521995506E+02  0.47000000000E+01 0.  1.
         -5    1    3    3    0  502  0.51071902842E+02 -0.36114734730E+02  0.29839040541E+02  0.69462735801E+02  0.47000000000E+01 0.  1.
        -11    1    1    2    0    0  0.13751158812E+02 -0.23465294403E+02  0.32659257268E+00  0.27199652072E+02  0.00000000000E+00 0.  1.
         11    1    1    2    0    0 -0.86946246138E+02  0.33136568537E+02  0.85114580172E+01  0.93435147613E+02  0.00000000000E+00 0. -1.
<mgrwt>
<rscale>  0 0.13851352E+03</rscale>
<asrwt>0</asrwt>
<pdfrwt beam="1">  1        3 0.18189962E-01 0.14517380E+03</pdfrwt>
<pdfrwt beam="2">  1       -3 0.23751504E-01 0.14517380E+03</pdfrwt>
<totfact> 0.10193752E+03</totfact>
</mgrwt>
</event>
<event>
 7    1  0.6387485E-006  0.1261054E+03  0.7546771E-02  0.1247671E+00
         -1   -1    0    0    0  501 -0.00000000000E+00  0.00000000000E+00  0.14083680570E+03  0.14083680570E+03  0.00000000000E+00 0.  1.
          1   -1    0    0  501    0  0.00000000000E+00 -0.00000000000E+00 -0.88664647093E+02  0.88664647093E+02  0.00000000000E+00 0. -1.
         23    2    1    2    0    0  0.60598732847E+01  0.15552569942E+02  0.48542884319E+02  0.13512584153E+03  0.12499590767E+03 0.  0.
          5    1    3    3  502    0 -0.42419021209E+02 -0.23488722011E+02  0.53683951479E+02  0.72492413868E+02  0.47000000000E+01 0. -1.
         -5    1    3    3    0  502  0.48478894493E+02  0.39041291953E+02 -0.51410671601E+01  0.62633427658E+02  0.47000000000E+01 0. -1.
        -11    1    1    2    0    0  0.84925393647E+01  0.10923723301E+02  0.42757723517E+02  0.44940781880E+02  0.00000000000E+00 0.  1.
         11    1    1    2    0    0 -0.14552412649E+02 -0.26476293242E+02 -0.39128449228E+02  0.49434829389E+02  0.00000000000E+00 0. -1.
<mgrwt>
<rscale>  0 0.11726947E+03</rscale>
<asrwt>0</asrwt>
<pdfrwt beam="2">  1        1 0.13640715E-01 0.12610544E+03</pdfrwt>
<pdfrwt beam="1">  1       -1 0.21667201E-01 0.12610544E+03</pdfrwt>
<totfact> 0.70349380E+03</totfact>
</mgrwt>
</event>
<event>
 7    1  0.6387485E-006  0.1486661E+03  0.7546771E-02  0.1209660E+00
         -3   -1    0    0    0  501 -0.00000000000E+00  0.00000000000E+00  0.97600799120E+02  0.97600799120E+02  0.00000000000E+00 0.  1.
          3   -1    0    0  501    0  0.00000000000E+00 -0.00000000000E+00 -0.19466193074E+03  0.19466193074E+03  0.00000000000E+00 0. -1.
         23    2    1    2    0    0  0.76548661820E+02 -0.24838733650E+02 -0.42933017439E+02  0.15474123575E+03  0.12499978296E+03 0.  0.
          5    1    3    3  502    0  0.72146960973E+02  0.36266579326E+02 -0.46309873230E+02  0.93204844897E+02  0.47000000000E+01 0.  1.
         -5    1    3    3    0  502  0.44017008468E+01 -0.61105312975E+02  0.33768557908E+01  0.61536390853E+02  0.47000000000E+01 0.  1.
        -11    1    1    2    0    0 -0.42220119022E+02 -0.51721529506E+01  0.22675540597E+02  0.48202383320E+02  0.00000000000E+00 0.  1.
         11    1    1    2    0    0 -0.34328542798E+02  0.30010886600E+02 -0.76803654779E+02  0.89319110791E+02  0.00000000000E+00 0. -1.
<mgrwt>
<rscale>  0 0.14276241E+03</rscale>
<asrwt>0</asrwt>
<pdfrwt beam="2">  1        3 0.29947989E-01 0.14866609E+03</pdfrwt>
<pdfrwt beam="1">  1       -3 0.15015508E-01 0.14866609E+03</pdfrwt>
<totfact> 0.93389590E+02</totfact>
</mgrwt>
</event>
<event>
 7    1  0.6387485E-006  0.1286763E+03  0.7546771E-02  0.1242237E+00
          1   -1    0    0  501    0  0.00000000000E+00  0.00000000000E+00  0.12112601151E+03  0.12112601151E+03  0.00000000000E+00 0. -1.
         -1   -1    0    0    0  501 -0.00000000000E+00 -0.00000000000E+00 -0.11738708371E+03  0.11738708371E+03  0.00000000000E+00 0.  1.
         23    2    1    2    0    0  0.26695192915E+02  0.14759159930E+02 -0.33073911407E+02  0.13285882107E+03  0.12500846609E+03 0.  0.
          5    1    3    3  502    0 -0.19133132033E+02  0.58253966174E+02 -0.23272930959E+00  0.61495898069E+02  0.47000000000E+01 0. -1.
         -5    1    3    3    0  502  0.45828324948E+02 -0.43494806244E+02 -0.32841182097E+02  0.71362923002E+02  0.47000000000E+01 0. -1.
        -11    1    1    2    0    0 -0.18238932853E+02  0.19186079969E+02  0.58697142239E+02  0.64390362968E+02  0.00000000000E+00 0. -1.
         11    1    1    2    0    0 -0.84562600619E+01 -0.33945239899E+02 -0.21884303032E+02  0.41263911172E+02  0.00000000000E+00 0.  1.
<mgrwt>
<rscale>  0 0.12052286E+03</rscale>
<asrwt>0</asrwt>
<pdfrwt beam="1">  1        1 0.18634771E-01 0.12867627E+03</pdfrwt>
<pdfrwt beam="2">  1       -1 0.18059551E-01 0.12867627E+03</pdfrwt>
<totfact> 0.63124320E+03</totfact>
</mgrwt>
</event>
<event>
 7    1  0.6387485E-006  0.1489905E+03  0.7546771E-02  0.1211736E+00
         -1   -1    0    0    0  501 -0.00000000000E+00  0.00000000000E+00  0.15675455970E+03  0.15675455970E+03  0.00000000000E+00 0.  1.
          1   -1    0    0  501    0  0.00000000000E+00 -0.00000000000E+00 -0.13549384630E+03  0.13549384630E+03  0.00000000000E+00 0. -1.
         23    2    1    2    0    0 -0.20276826201E+02 -0.78497805413E+02  0.67414682214E+02  0.16353262021E+03  0.12500049344E+03 0.  0.
          5    1    3    3  502    0 -0.67988777401E+02 -0.70451490292E+02  0.31041849666E+02  0.10281815388E+03  0.47000000000E+01 0.  1.
         -5    1    3    3    0  502  0.47711951200E+02 -0.80463151205E+01  0.36372832547E+02  0.60714466331E+02  0.47000000000E+01 0.  1.
        -11    1    1    2    0    0  0.44436675783E+01  0.93124798837E+02 -0.20957848026E+02  0.95557342648E+02  0.00000000000E+00 0.  1.
         11    1    1    2    0    0  0.15833158623E+02 -0.14626993425E+02 -0.25196120790E+02  0.33158443140E+02  0.00000000000E+00 0. -1.
<mgrwt>
<rscale>  0 0.14119059E+03</rscale>
<asrwt>0</asrwt>
<pdfrwt beam="2">  1        1 0.20845207E-01 0.14899053E+03</pdfrwt>
<pdfrwt beam="1">  1       -1 0.24116086E-01 0.14899053E+03</pdfrwt>
<totfact> 0.34627710E+03</totfact>
</mgrwt>
</event>
<event>
 7    1  0.6387485E-006  0.1283166E+03  0.7546771E-02  0.1245046E+00
          2   -1    0    0  501    0  0.00000000000E+00  0.00000000000E+00  0.19744751944E+02  0.19744751944E+02  0.00000000000E+00 0. -1.
         -2   -1    0    0    0  501 -0.00000000000E+00 -0.00000000000E+00 -0.73033578445E+03  0.73033578445E+03  0.00000000000E+00 0.  1.
         23    2    1    2    0    0 -0.89693000389E+01 -0.27563162271E+02 -0.54095665934E+03  0.55596695884E+03  0.12499990315E+03 0.  0.
          5    1    3    3  502    0 -0.15160082045E+02  0.48693846028E+02 -0.19426992308E+03  0.20090747060E+03  0.47000000000E+01 0.  1.
         -5    1    3    3    0  502  0.61907820059E+01 -0.76257008299E+02 -0.34668673625E+03  0.35505948824E+03  0.47000000000E+01 0.  1.
        -11    1    1    2    0    0  0.34946490163E+02 -0.88164251922E+01 -0.28140052595E+02  0.45725803306E+02  0.00000000000E+00 0. -1.
         11    1    1    2    0    0 -0.25977190124E+02  0.36379587463E+02 -0.14149432057E+03  0.14838777424E+03  0.00000000000E+00 0.  1.
<mgrwt>
<rscale>  0 0.11882611E+03</rscale>
<asrwt>0</asrwt>
<pdfrwt beam="1">  1        2 0.30376538E-02 0.12831661E+03</pdfrwt>
<pdfrwt beam="2">  1       -2 0.11235936E+00 0.12831661E+03</pdfrwt>
<totfact> 0.19152210E+03</totfact>
</mgrwt>
</event>
<event>
 7    1  0.6387485E-006  0.1499215E+03  0.7546771E-02  0.1208433E+00
         -1   -1    0    0    0  501 -0.00000000000E+00  0.00000000000E+00  0.20774543174E+03  0.20774543174E+03  0.00000000000E+00 0.  1.
          1   -1    0    0  501    0  0.00000000000E+00 -0.00000000000E+00 -0.92935438372E+02  0.92935438372E+02  0.00000000000E+00 0. -1.
         23    2    1    2    0    0 -0.55304773005E+02  0.61575871621E+02  0.77378401106E+02  0.16871243619E+03  0.12500505304E+03 0.  0.
          5    1    3    3  502    0 -0.74665809453E+02  0.60158836505E+02  0.99940513564E+02  0.13857945361E+03  0.47000000000E+01 0.  1.
         -5    1    3    3    0  502  0.19361036449E+02  0.14170351164E+01 -0.22562112459E+02  0.30132982585E+02  0.47000000000E+01 0.  1.
        -11    1    1    2    0    0  0.68911743896E+02 -0.29095873724E+02  0.54776183943E+02  0.92713691771E+02  0.00000000000E+00 0.  1.
         11    1    1    2    0    0 -0.13606970891E+02 -0.32479997897E+02 -0.17344591682E+02  0.39254742145E+02  0.00000000000E+00 0. -1.
<mgrwt>
<rscale>  0 0.14370185E+03</rscale>
<asrwt>0</asrwt>
<pdfrwt beam="2">  1        1 0.14297760E-01 0.14992154E+03</pdfrwt>
<pdfrwt beam="1">  1       -1 0.31960836E-01 0.14992154E+03</pdfrwt>
<totfact> 0.35174053E+03</totfact>
</mgrwt>
</event>
<event>
 7    1  0.6387485E-006  0.1472554E+03  0.7546771E-02  0.1213306E+00
         -1   -1    0    0    0  501 -0.00000000000E+00  0.00000000000E+00  0.70497600931E+02  0.70497600931E+02  0.00000000000E+00 0.  1.
          1   -1    0    0  501    0  0.00000000000E+00 -0.00000000000E+00 -0.32868217053E+03  0.32868217053E+03  0.00000000000E+00 0. -1.
         23    2    1    2    0    0 -0.56535013334E+02  0.53497077218E+02 -0.44340255275E+02  0.15378626292E+03  0.12500404563E+03 0.  0.
          5    1    3    3  502    0 -0.67597987330E+02  0.74306477324E+02 -0.66933453278E+02  0.12080197693E+03  0.47000000000E+01 0. -1.
         -5    1    3    3    0  502  0.11062973996E+02 -0.20809400106E+02  0.22593198002E+02  0.32984285992E+02  0.47000000000E+01 0. -1.
        -11    1    1    2    0    0  0.47990801422E+01  0.11720020722E+02  0.30893071216E+01  0.13035868764E+02  0.00000000000E+00 0.  1.
         11    1    1    2    0    0  0.51735933192E+02 -0.65217097940E+02 -0.21693362145E+03  0.23235763977E+03  0.00000000000E+00 0. -1.
<mgrwt>
<rscale>  0 0.14001730E+03</rscale>
<asrwt>0</asrwt>
<pdfrwt beam="2">  1        1 0.50566488E-01 0.14725541E+03</pdfrwt>
<pdfrwt beam="1">  1       -1 0.10845785E-01 0.14725541E+03</pdfrwt>
<totfact> 0.40535235E+03</totfact>
</mgrwt>
</event>
<event>
 7    1  0.6387485E-006  0.1303574E+03  0.7546771E-02  0.1240794E+00
         -1   -1    0    0    0  501 -0.00000000000E+00  0.00000000000E+00  0.90076296987E+02  0.90076296987E+02  0.00000000000E+00 0.  1.
          1   -1    0    0  501    0  0.00000000000E+00 -0.00000000000E+00 -0.14800437794E+03  0.14800437794E+03  0.00000000000E+00 0. -1.
         23    2    1    2    0    0  0.10530292133E+02  0.35440289213E+02 -0.15702894348E+02  0.13129973698E+03  0.12500455547E+03 0.  0.
          5    1    3    3  502    0  0.38286800218E+02  0.26569605148E+02 -0.61199880867E+02  0.77067103273E+02  0.47000000000E+01 0.  1.
         -5    1    3    3    0  502 -0.27756508086E+02  0.88706840651E+01  0.45496986519E+02  0.54232633711E+02  0.47000000000E+01 0.  1.
        -11    1    1    2    0    0 -0.40059935206E+02 -0.50289307021E+02 -0.21624874233E+02  0.67833973752E+02  0.00000000000E+00 0. -1.
         11    1    1    2    0    0  0.29529643073E+02  0.14849017808E+02 -0.20600312373E+02  0.38946964192E+02  0.00000000000E+00 0.  1.
<mgrwt>
<rscale>  0 0.12140709E+03</rscale>
<asrwt>0</asrwt>
<pdfrwt beam="2">  1        1 0.22769904E-01 0.13035736E+03</pdfrwt>
<pdfrwt beam="1">  1       -1 0.13857892E-01 0.13035736E+03</pdfrwt>
<totfact> 0.74318830E+03</totfact>
</mgrwt>
</event>
<event>
 7    1  0.6387485E-006  0.1760947E+03  0.7546771E-02  0.1177619E+00
         -2   -1    0    0    0  501 -0.00000000000E+00  0.00000000000E+00  0.17682787889E+03  0.17682787889E+03  0.00000000000E+00 0.  1.
          2   -1    0    0  501    0  0.00000000000E+00 -0.00000000000E+00 -0.15865366838E+03  0.15865366838E+03  0.00000000000E+00 0. -1.
         23    2    1    2    0    0 -0.33635947312E+02 -0.11938374797E+03  0.38915954538E+02  0.18034358253E+03  0.12500200003E+03 0.  0.
          5    1    3    3  502    0 -0.38971550959E+02 -0.12022002068E+03  0.72656634917E+02  0.14585167724E+03  0.47000000000E+01 0. -1.
         -5    1    3    3    0  502  0.53356036468E+01  0.83627270548E+00 -0.33740680379E+02  0.34491905293E+02  0.47000000000E+01 0. -1.
        -11    1    1    2    0    0 -0.32051529289E+01  0.18379063774E+02 -0.41625064628E+02  0.45614789222E+02  0.00000000000E+00 0. -1.
         11    1    1    2    0    0  0.36841100241E+02  0.10100468420E+03  0.20883320596E+02  0.10952317552E+03  0.00000000000E+00 0.  1.
<mgrwt>
<rscale>  0 0.17021982E+03</rscale>
<asrwt>0</asrwt>
<pdfrwt beam="2">  1        2 0.24408257E-01 0.17609474E+03</pdfrwt>
<pdfrwt beam="1">  1       -2 0.27204289E-01 0.17609474E+03</pdfrwt>
<totfact> 0.26433763E+03</totfact>
</mgrwt>
</event>
<event>
 7    1  0.6387485E-006  0.1298258E+03  0.7546771E-02  0.1241537E+00
         -4   -1    0    0    0  501 -0.00000000000E+00  0.00000000000E+00  0.40500212588E+02  0.40500212588E+02  0.00000000000E+00 0.  1.
          4   -1    0    0  501    0  0.00000000000E+00 -0.00000000000E+00 -0.33263827302E+03  0.33263827302E+03  0.00000000000E+00 0. -1.
         23    2    1    2    0    0  0.14530821225E+01  0.35052378872E+02 -0.12958093646E+03  0.18342836154E+03  0.12499585598E+03 0.  0.
          5    1    3    3  502    0 -0.32797703855E+02  0.20308369951E+02  0.89590445648E+01  0.39880744072E+02  0.47000000000E+01 0.  1.
         -5    1    3    3    0  502  0.34250785977E+02  0.14744008922E+02 -0.13853998103E+03  0.14354761747E+03  0.47000000000E+01 0.  1.
        -11    1    1    2    0    0  0.44787449085E+02 -0.21026987081E+02 -0.81517573172E+02  0.95358085746E+02  0.00000000000E+00 0. -1.
         11    1    1    2    0    0 -0.46240531207E+02 -0.14025391791E+02 -0.81039550794E+02  0.94352038315E+02  0.00000000000E+00 0.  1.
<mgrwt>
<rscale>  0 0.12095034E+03</rscale>
<asrwt>0</asrwt>
<pdfrwt beam="2">  1        4 0.51175118E-01 0.12982582E+03</pdfrwt>
<pdfrwt beam="1">  1       -4 0.62308021E-02 0.12982582E+03</pdfrwt>
<totfact> 0.10101545E+03</totfact>
</mgrwt>
</event>
<event>
 7    1  0.6387485E-006  0.1461731E+03  0.7546771E-02  0.1214946E+00
          1   -1    0    0  501    0  0.00000000000E+00  0.00000000000E+00  0.38381103577E+03  0.38381103577E+03  0.00000000000E+00 0. -1.
         -1   -1    0    0    0  501 -0.00000000000E+00 -0.00000000000E+00 -0.51507669791E+02  0.51507669791E+02  0.00000000000E+00 0.  1.
         23    2    1    2    0    0  0.73018819894E+02  0.20244754174E+02  0.10894736728E+03  0.18230769579E+03  0.12499987591E+03 0.  0.
          5    1    3    3  502    0  0.64569146694E+02 -0.31595711095E+01 -0.55398931193E+01  0.65053347417E+02  0.47000000000E+01 0. -1.
         -5    1    3    3    0  502  0.84496732003E+01  0.23404325284E+02  0.11448726040E+03  0.11725434838E+03  0.47000000000E+01 0. -1.
        -11    1    1    2    0    0 -0.21768573598E+02 -0.38128097819E+02  0.32605551409E+02  0.54687700834E+02  0.00000000000E+00 0.  1.
         11    1    1    2    0    0 -0.51250246297E+02  0.17883343645E+02  0.19075044729E+03  0.19832330894E+03  0.00000000000E+00 0. -1.
<mgrwt>
<rscale>  0 0.13880513E+03</rscale>
<asrwt>0</asrwt>
<pdfrwt beam="1">  1        1 0.59047850E-01 0.14617307E+03</pdfrwt>
<pdfrwt beam="2">  1       -1 0.79242572E-02 0.14617307E+03</pdfrwt>
<totfact> 0.53822266E+03</totfact>
</mgrwt>
</event>
<event>
 7    1  0.6387485E-006  0.1473258E+03  0.7546771E-02  0.1213217E+00
          1   -1    0    0  501    0  0.00000000000E+00  0.00000000000E+00  0.81284121320E+02  0.81284121320E+02  0.00000000000E+00 0. -1.
         -1   -1    0    0    0  501 -0.00000000000E+00 -0.00000000000E+00 -0.23167197701E+03  0.23167197701E+03  0.00000000000E+00 0.  1.
         23    2    1    2    0    0 -0.43123894530E+02 -0.64967970290E+02 -0.11659430963E+03  0.18788059880E+03  0.12499751568E+03 0.  0.
          5    1    3    3  502    0 -0.70337211892E+02 -0.85109626853E+02 -0.10308213500E+03  0.15112573743E+03  0.47000000000E+01 0. -1.
         -5    1    3    3    0  502  0.27213317362E+02  0.20141656563E+02 -0.13512174632E+02  0.36754861369E+02  0.47000000000E+01 0. -1.
        -11    1    1    2    0    0  0.46267517320E+02  0.10330245298E+02 -0.49096138544E+02  0.68248281640E+02  0.00000000000E+00 0.  1.
         11    1    1    2    0    0 -0.31436227905E+01  0.54637724992E+02  0.15302592479E+02  0.56827217890E+02  0.00000000000E+00 0. -1.
<mgrwt>
<rscale>  0 0.14008354E+03</rscale>
<asrwt>0</asrwt>
<pdfrwt beam="1">  1        1 0.12505250E-01 0.14732578E+03</pdfrwt>
<pdfrwt beam="2">  1       -1 0.35641842E-01 0.14732578E+03</pdfrwt>
<totfact> 0.34741377E+03</totfact>
</mgrwt>
</event>
<event>
 7    1  0.6387485E-006  0.1440836E+03  0.7546771E-02  0.1218590E+00
         -3   -1    0    0    0  501 -0.00000000000E+00  0.00000000000E+00  0.81170573564E+02  0.81170573564E+02  0.00000000000E+00 0.  1.
          3   -1    0    0  501    0  0.00000000000E+00 -0.00000000000E+00 -0.23876702540E+03  0.23876702540E+03  0.00000000000E+00 0. -1.
         23    2    1    2    0    0 -0.43148048112E+02  0.57214533023E+02 -0.28083820349E+02  0.14679506745E+03  0.12499933607E+03 0.  0.
          5    1    3    3  502    0 -0.49823953246E+02  0.53292619978E+02 -0.71610407715E+02  0.10233606478E+03  0.47000000000E+01 0.  1.
         -5    1    3    3    0  502  0.66759051339E+01  0.39219130443E+01  0.43526587365E+02  0.44459002676E+02  0.47000000000E+01 0.  1.
        -11    1    1    2    0    0 -0.26485101772E+02 -0.13734932129E+02 -0.18614112748E+02  0.35165240933E+02  0.00000000000E+00 0. -1.
         11    1    1    2    0    0  0.69633149884E+02 -0.43479600894E+02 -0.11089851874E+03  0.13797729058E+03  0.00000000000E+00 0.  1.
<mgrwt>
<rscale>  0 0.13616093E+03</rscale>
<asrwt>0</asrwt>
<pdfrwt beam="2">  1        3 0.36733388E-01 0.14408362E+03</pdfrwt>
<pdfrwt beam="1">  1       -3 0.12487781E-01 0.14408362E+03</pdfrwt>
<totfact> 0.86643194E+02</totfact>
</mgrwt>
</event>
<event>
 7    1  0.6387485E-006  0.1365154E+03  0.7546771E-02  0.1223998E+00
         -1   -1    0    0    0  501 -0.00000000000E+00  0.00000000000E+00  0.11357370485E+04  0.11357370485E+04  0.00000000000E+00 0.  1.
          1   -1    0    0  501    0  0.00000000000E+00 -0.00000000000E+00 -0.18304615420E+02  0.18304615420E+02  0.00000000000E+00 0. -1.
         23    2    1    2    0    0 -0.49263939837E+02  0.24174110019E+02  0.84691712527E+03  0.85784909614E+03  0.12500052520E+03 0.  0.
          5    1    3    3  502    0 -0.46117594599E+01  0.62935080187E+02  0.62312309257E+03  0.62632784637E+03  0.47000000000E+01 0. -1.
         -5    1    3    3    0  502 -0.44652180377E+02 -0.38760970168E+02  0.22379403270E+03  0.23152124976E+03  0.47000000000E+01 0. -1.
        -11    1    1    2    0    0  0.37633825917E+02  0.20421181595E+02  0.32495732670E+02  0.53752229281E+02  0.00000000000E+00 0. -1.
         11    1    1    2    0    0  0.11630113920E+02 -0.44595291614E+02  0.23801957509E+03  0.24244033845E+03  0.00000000000E+00 0.  1.
<mgrwt>
<rscale>  0 0.13235786E+03</rscale>
<asrwt>0</asrwt>
<pdfrwt beam="2">  1        1 0.28160956E-02 0.13651540E+03</pdfrwt>
<pdfrwt beam="1">  1       -1 0.17472872E+00 0.13651540E+03</pdfrwt>
<totfact> 0.91248477E+02</totfact>
</mgrwt>
</event>
<event>
 6    1  0.1048956E-005  0.7592965E+03  0.7546771E-02  0.9685370E-01
         -2   -1    0    0    0  501 -0.00000000000E+00  0.00000000000E+00  0.58289236375E+03  0.58289236375E+03  0.00000000000E+00 0.  1.
          2   -1    0    0  501    0  0.00000000000E+00 -0.00000000000E+00 -0.90614407044E+03  0.90614407044E+03  0.00000000000E+00 0. -1.
          5    1    1    2  502    0  0.26872073458E+03  0.24712575689E+03 -0.18820276723E+03  0.41076069007E+03  0.47000000000E+01 0. -1.
         -5    1    1    2    0  502  0.17473803221E+03  0.16174346324E+03  0.25896989270E+03  0.35182641050E+03  0.47000000000E+01 0.  1.
        -11    1    1    2    0    0 -0.38205396692E+02 -0.79027996053E+02 -0.55040608037E+02  0.10360764947E+03  0.00000000000E+00 0.  1.
         11    1    1    2    0    0 -0.40525337010E+03 -0.32984122408E+03 -0.33897822412E+03  0.62284168415E+03  0.00000000000E+00 0. -1.
<mgrwt>
<rscale>  0 0.71894568E+03</rscale>
<asrwt>0</asrwt>
<pdfrwt beam="2">  1        2 0.13940678E+00 0.75929645E+03</pdfrwt>
<pdfrwt beam="1">  1       -2 0.89675748E-01 0.75929645E+03</pdfrwt>
<totfact> 0.31389488E+01</totfact>
</mgrwt>
</event>
<event>
 7    1  0.6387485E-006  0.1354901E+03  0.7546771E-02  0.1232199E+00
          2   -1    0    0  501    0  0.00000000000E+00  0.00000000000E+00  0.60764232889E+03  0.60764232889E+03  0.00000000000E+00 0.  1.
         -2   -1    0    0    0  501 -0.00000000000E+00 -0.00000000000E+00 -0.24608359014E+02  0.24608359014E+02  0.00000000000E+00 0. -1.
         23    2    1    2    0    0  0.87552268229E+01  0.51541482969E+02  0.26532124484E+03  0.29791428217E+03  0.12499751234E+03 0.  0.
          5    1    3    3  502    0 -0.43887717403E+02  0.36167659507E+02  0.21794081886E+03  0.22528764249E+03  0.47000000000E+01 0.  1.
         -5    1    3    3    0  502  0.52642944225E+02  0.15373823462E+02  0.47380425981E+02  0.72626639676E+02  0.47000000000E+01 0.  1.
        -11    1    1    2    0    0  0.33168295598E+02 -0.27999928980E+02  0.72878765826E+02  0.84825976941E+02  0.00000000000E+00 0. -1.
         11    1    1    2    0    0 -0.41923522421E+02 -0.23541553989E+02  0.24483395920E+03  0.24951042879E+03  0.00000000000E+00 0.  1.
<mgrwt>
<rscale>  0 0.12685469E+03</rscale>
<asrwt>0</asrwt>
<pdfrwt beam="1">  1        2 0.93483424E-01 0.13549006E+03</pdfrwt>
<pdfrwt beam="2">  1       -2 0.37859018E-02 0.13549006E+03</pdfrwt>
<totfact> 0.14095512E+04</totfact>
</mgrwt>
</event>
<event>
 6    1  0.6387485E-006  0.2529487E+03  0.7546771E-02  0.1149017E+00
          1   -1    0    0  501    0  0.00000000000E+00  0.00000000000E+00  0.23461876215E+03  0.23461876215E+03  0.00000000000E+00 0. -1.
         -1   -1    0    0    0  501 -0.00000000000E+00 -0.00000000000E+00 -0.13525253297E+03  0.13525253297E+03  0.00000000000E+00 0.  1.
          5    1    1    2  502    0 -0.87876998176E+02  0.82246589705E+02  0.33186336447E+02  0.12494115116E+03  0.47000000000E+01 0. -1.
         -5    1    1    2    0  502  0.12169161193E+03 -0.50492843202E+02  0.16828073456E+02  0.13290466389E+03  0.47000000000E+01 0.  1.
        -11    1    1    2    0    0 -0.31861620675E+02 -0.60934205389E+02  0.22573205027E+02  0.72371885726E+02  0.00000000000E+00 0. -1.
         11    1    1    2    0    0 -0.19529930777E+01  0.29180458886E+02  0.26778614249E+02  0.39653594337E+02  0.00000000000E+00 0.  1.
<mgrwt>
<rscale>  0 0.20085850E+03</rscale>
<asrwt>0</asrwt>
<pdfrwt beam="1">  1        1 0.36095194E-01 0.25294866E+03</pdfrwt>
<pdfrwt beam="2">  1       -1 0.20808082E-01 0.25294866E+03</pdfrwt>
<totfact> 0.22499514E+03</totfact>
</mgrwt>
</event>
<event>
 7    1  0.6387485E-006  0.1349758E+03  0.7546771E-02  0.1233501E+00
         -1   -1    0    0    0  501 -0.00000000000E+00  0.00000000000E+00  0.19645626597E+03  0.19645626597E+03  0.00000000000E+00 0.  1.
          1   -1    0    0  501    0  0.00000000000E+00 -0.00000000000E+00 -0.24967000751E+03  0.24967000751E+03  0.00000000000E+00 0. -1.
         23    2    1    2    0    0  0.33143301461E+02  0.35291243464E+02  0.16012849847E+03  0.20942682324E+03  0.12599407912E+03 0.  0.
          5    1    3    3  502    0  0.33080668569E+02  0.14851127648E+02 -0.10081843912E+02  0.37929147131E+02  0.47000000000E+01 0. -1.
         -5    1    3    3    0  502  0.62632891863E-01  0.20440115816E+02  0.17021034239E+03  0.17149767611E+03  0.47000000000E+01 0.  1.
        -11    1    1    2    0    0  0.31044099604E+02 -0.16717694997E+02 -0.84477185044E+02  0.91540221974E+02  0.00000000000E+00 0.  1.
         11    1    1    2    0    0 -0.64187401065E+02 -0.18573548467E+02 -0.12886505497E+03  0.14515922826E+03  0.00000000000E+00 0. -1.
<mgrwt>
<rscale>  0 0.12600886E+03</rscale>
<asrwt>0</asrwt>
<pdfrwt beam="2">  1        1 0.38410770E-01 0.13497577E+03</pdfrwt>
<pdfrwt beam="1">  1       -1 0.30224041E-01 0.13497577E+03</pdfrwt>
<totfact> 0.11046539E+03</totfact>
</mgrwt>
</event>
<event>
 7    1  0.6387485E-006  0.1643070E+03  0.7546771E-02  0.1193444E+00
         -1   -1    0    0    0  501 -0.00000000000E+00  0.00000000000E+00  0.74468817608E+02  0.74468817608E+02  0.00000000000E+00 0.  1.
          1   -1    0    0  501    0  0.00000000000E+00 -0.00000000000E+00 -0.30099351728E+03  0.30099351728E+03  0.00000000000E+00 0. -1.
         23    2    1    2    0    0  0.10323103898E+03 -0.26707765673E+02 -0.14688479870E+03  0.22039040321E+03  0.12500733411E+03 0.  0.
          5    1    3    3  502    0  0.31348184059E+02 -0.70990083401E+02 -0.53296407331E+02  0.94259734879E+02  0.47000000000E+01 0.  1.
         -5    1    3    3    0  502  0.71882854923E+02  0.44282317727E+02 -0.93588391368E+02  0.12613066833E+03  0.47000000000E+01 0.  1.
        -11    1    1    2    0    0 -0.32101839622E+02  0.31771587155E+02  0.37840990509E+01  0.45324179674E+02  0.00000000000E+00 0.  1.
         11    1    1    2    0    0 -0.71129199361E+02 -0.50638214816E+01 -0.83424000028E+02  0.10974775201E+03  0.00000000000E+00 0. -1.
<mgrwt>
<rscale>  0 0.15586671E+03</rscale>
<asrwt>0</asrwt>
<pdfrwt beam="2">  1        1 0.46306694E-01 0.16430699E+03</pdfrwt>
<pdfrwt beam="1">  1       -1 0.11456741E-01 0.16430699E+03</pdfrwt>
<totfact> 0.41793442E+03</totfact>
</mgrwt>
</event>
<event>
 7    1  0.6387485E-006  0.1711858E+03  0.7546771E-02  0.1182939E+00
         -2   -1    0    0    0  501 -0.00000000000E+00  0.00000000000E+00  0.50624084136E+02  0.50624084136E+02  0.00000000000E+00 0.  1.
          2   -1    0    0  501    0  0.00000000000E+00 -0.00000000000E+00 -0.53826440484E+03  0.53826440484E+03  0.00000000000E+00 0. -1.
         23    2    1    2    0    0 -0.11693823296E+03  0.22812680189E+01 -0.18668249700E+03  0.25328824014E+03  0.12499929358E+03 0.  0.
          5    1    3    3  502    0 -0.12594707048E+03  0.38660859244E+02 -0.12979806554E+03  0.18500528214E+03  0.47000000000E+01 0. -1.
         -5    1    3    3    0  502  0.90088375189E+01 -0.36379591226E+02 -0.56884431459E+02  0.68282958003E+02  0.47000000000E+01 0. -1.
        -11    1    1    2    0    0  0.13122825213E+03  0.30519654447E+01 -0.24940899438E+03  0.28184218124E+03  0.00000000000E+00 0.  1.
         11    1    1    2    0    0 -0.14290019168E+02 -0.53332334636E+01 -0.51548829319E+02  0.53758067592E+02  0.00000000000E+00 0. -1.
<mgrwt>
<rscale>  0 0.16520820E+03</rscale>
<asrwt>0</asrwt>
<pdfrwt beam="2">  1        2 0.82809906E-01 0.17118580E+03</pdfrwt>
<pdfrwt beam="1">  1       -2 0.77883209E-02 0.17118580E+03</pdfrwt>
<totfact> 0.55034494E+03</totfact>
</mgrwt>
</event>
<event>
 7    1  0.6387485E-006  0.1396557E+03  0.7546771E-02  0.1224375E+00
          3   -1    0    0  501    0  0.00000000000E+00  0.00000000000E+00  0.14026189602E+03  0.14026189602E+03  0.00000000000E+00 0. -1.
         -3   -1    0    0    0  501 -0.00000000000E+00 -0.00000000000E+00 -0.11397498227E+03  0.11397498227E+03  0.00000000000E+00 0.  1.
         23    2    1    2    0    0 -0.28196685678E+02  0.55537973638E+02  0.27981768421E+02  0.14243140410E+03  0.12499682361E+03 0.  0.
          5    1    3    3  502    0 -0.36818516715E+02 -0.33244635667E+02  0.42558981725E+01  0.50010115407E+02  0.47000000000E+01 0. -1.
         -5    1    3    3    0  502  0.86218310364E+01  0.88782609305E+02  0.23725870248E+02  0.92421288697E+02  0.47000000000E+01 0. -1.
        -11    1    1    2    0    0 -0.16630311846E+01 -0.21016463272E+02 -0.44493234599E+02  0.49235204136E+02  0.00000000000E+00 0.  1.
         11    1    1    2    0    0  0.29859716863E+02 -0.34521510365E+02  0.42798379934E+02  0.62570270049E+02  0.00000000000E+00 0. -1.
<mgrwt>
<rscale>  0 0.13209835E+03</rscale>
<asrwt>0</asrwt>
<pdfrwt beam="1">  1        3 0.21578753E-01 0.13965574E+03</pdfrwt>
<pdfrwt beam="2">  1       -3 0.17534613E-01 0.13965574E+03</pdfrwt>
<totfact> 0.12821247E+03</totfact>
</mgrwt>
</event>
<event>
 7    1  0.6387485E-006  0.1281283E+03  0.7546771E-02  0.1244703E+00
          3   -1    0    0  501    0  0.00000000000E+00  0.00000000000E+00  0.61560134405E+02  0.61560134405E+02  0.00000000000E+00 0. -1.
         -3   -1    0    0    0  501 -0.00000000000E+00 -0.00000000000E+00 -0.21536238994E+03  0.21536238994E+03  0.00000000000E+00 0.  1.
         23    2    1    2    0    0  0.22599039501E+01 -0.28069635014E+02 -0.12036576556E+03  0.17579753374E+03  0.12499537501E+03 0.  0.
          5    1    3    3  502    0 -0.58702552370E+02  0.39987630911E+01 -0.52808190988E+02  0.79200850983E+02  0.47000000000E+01 0. -1.
         -5    1    3    3    0  502  0.60962456320E+02 -0.32068398106E+02 -0.67557574570E+02  0.96596682756E+02  0.47000000000E+01 0. -1.
        -11    1    1    2    0    0 -0.12143422324E+02  0.12219330482E+02  0.30219497943E+02  0.34784950756E+02  0.00000000000E+00 0. -1.
         11    1    1    2    0    0  0.98835183739E+01  0.15850304533E+02 -0.63655987917E+02  0.66340039847E+02  0.00000000000E+00 0.  1.
<mgrwt>
<rscale>  0 0.11903185E+03</rscale>
<asrwt>0</asrwt>
<pdfrwt beam="1">  1        3 0.94707897E-02 0.12812828E+03</pdfrwt>
<pdfrwt beam="2">  1       -3 0.33132676E-01 0.12812828E+03</pdfrwt>
<totfact> 0.16360526E+03</totfact>
</mgrwt>
</event>
<event>
 7    1  0.6387485E-006  0.1573650E+03  0.7546771E-02  0.1197737E+00
         -1   -1    0    0    0  501 -0.00000000000E+00  0.00000000000E+00  0.96201131529E+02  0.96201131529E+02  0.00000000000E+00 0.  1.
          1   -1    0    0  501    0  0.00000000000E+00 -0.00000000000E+00 -0.28594778388E+03  0.28594778388E+03  0.00000000000E+00 0. -1.
         23    2    1    2    0    0 -0.10013560282E+03 -0.17351841928E+02 -0.12879428112E+02  0.15789112846E+03  0.12014783980E+03 0.  0.
          5    1    3    3  502    0 -0.48263333877E+02  0.42515374159E+02  0.25989165682E+02  0.69530088232E+02  0.47000000000E+01 0. -1.
         -5    1    3    3    0  502 -0.51872268942E+02 -0.59867216087E+02 -0.38868593794E+02  0.88361040232E+02  0.47000000000E+01 0.  1.
        -11    1    1    2    0    0  0.98001727356E+02  0.45870465321E+02 -0.15048721787E+03  0.18535058914E+03  0.00000000000E+00 0.  1.
         11    1    1    2    0    0  0.21338754628E+01 -0.28518623392E+02 -0.26380006365E+02  0.38907197798E+02  0.00000000000E+00 0. -1.
<mgrwt>
<rscale>  0 0.15224830E+03</rscale>
<asrwt>0</asrwt>
<pdfrwt beam="2">  1        1 0.43991967E-01 0.15736495E+03</pdfrwt>
<pdfrwt beam="1">  1       -1 0.14800174E-01 0.15736495E+03</pdfrwt>
<totfact> 0.29832742E+03</totfact>
</mgrwt>
</event>
<event>
 7    1  0.6387485E-006  0.1426338E+03  0.7546771E-02  0.1219736E+00
         -1   -1    0    0    0  501 -0.00000000000E+00  0.00000000000E+00  0.57420473450E+02  0.57420473450E+02  0.00000000000E+00 0.  1.
          1   -1    0    0  501    0  0.00000000000E+00 -0.00000000000E+00 -0.29202907993E+03  0.29202907993E+03  0.00000000000E+00 0. -1.
         23    2    1    2    0    0 -0.23784568065E+02  0.64425317747E+02 -0.11655670295E+03  0.18420060112E+03  0.12501227621E+03 0.  0.
          5    1    3    3  502    0 -0.13832293505E+02  0.28659730588E+02  0.23109156194E+02  0.39608529397E+02  0.47000000000E+01 0.  1.
         -5    1    3    3    0  502 -0.99522745596E+01  0.35765587159E+02 -0.13966585915E+03  0.14459207172E+03  0.47000000000E+01 0.  1.
        -11    1    1    2    0    0  0.13625787762E+02 -0.76118538568E+02 -0.42726324404E+02  0.88347228609E+02  0.00000000000E+00 0.  1.
         11    1    1    2    0    0  0.10158780303E+02  0.11693220821E+02 -0.75325579123E+02  0.76901723652E+02  0.00000000000E+00 0. -1.
<mgrwt>
<rscale>  0 0.13534342E+03</rscale>
<asrwt>0</asrwt>
<pdfrwt beam="2">  1        1 0.44927551E-01 0.14263378E+03</pdfrwt>
<pdfrwt beam="1">  1       -1 0.88339190E-02 0.14263378E+03</pdfrwt>
<totfact> 0.64107191E+03</totfact>
</mgrwt>
</event>
<event>
 6    1  0.6387485E-006  0.1814220E+03  0.7546771E-02  0.1196612E+00
          2   -1    0    0  501    0  0.00000000000E+00  0.00000000000E+00  0.45046103301E+03  0.45046103301E+03  0.00000000000E+00 0. -1.
         -2   -1    0    0    0  501 -0.00000000000E+00 -0.00000000000E+00 -0.50166591851E+02  0.50166591851E+02  0.00000000000E+00 0.  1.
          5    1    1    2  502    0 -0.68418594811E+02 -0.77179542263E+01  0.15013899668E+03  0.16524067071E+03  0.47000000000E+01 0. -1.
         -5    1    1    2    0  502  0.72988929982E+02  0.50138841608E+01  0.50233274555E+01  0.73483649563E+02  0.47000000000E+01 0.  1.
        -11    1    1    2    0    0 -0.13194099881E+02  0.41934970865E+02  0.18074405288E+03  0.18601354441E+03  0.00000000000E+00 0.  1.
         11    1    1    2    0    0  0.86237647092E+01 -0.39230900800E+02  0.64388064140E+02  0.75889760173E+02  0.00000000000E+00 0. -1.
<mgrwt>
<rscale>  0 0.15318555E+03</rscale>
<asrwt>0</asrwt>
<pdfrwt beam="1">  1        2 0.69301695E-01 0.18142203E+03</pdfrwt>
<pdfrwt beam="2">  1       -2 0.77179375E-02 0.18142203E+03</pdfrwt>
<totfact> 0.68173947E+03</totfact>
</mgrwt>
</event>
<event>
 7    1  0.6387485E-006  0.2312499E+03  0.7546771E-02  0.1128890E+00
          1   -1    0    0  501    0  0.00000000000E+00  0.00000000000E+00  0.89127046076E+03  0.89127046076E+03  0.00000000000E+00 0. -1.
         -1   -1    0    0    0  501 -0.00000000000E+00 -0.00000000000E+00 -0.86290699808E+02  0.86290699808E+02  0.00000000000E+00 0.  1.
         23    2    1    2    0    0  0.32038769021E+02  0.19189599134E+03  0.12126764436E+03  0.26111755998E+03  0.12500393733E+03 0.  0.
          5    1    3    3  502    0 -0.42844793149E+02  0.72218637433E+02  0.74412284427E+02  0.11229642010E+03  0.47000000000E+01 0.  1.
         -5    1    3    3    0  502  0.74883562170E+02  0.11967735391E+03  0.46855359929E+02  0.14882113988E+03  0.47000000000E+01 0.  1.
        -11    1    1    2    0    0 -0.55882300309E+01 -0.12341154550E+03  0.55197908702E+03  0.56563464391E+03  0.00000000000E+00 0. -1.
         11    1    1    2    0    0 -0.26450538990E+02 -0.68484445838E+02  0.13173302957E+03  0.15080895668E+03  0.00000000000E+00 0.  1.
<mgrwt>
<rscale>  0 0.22683183E+03</rscale>
<asrwt>0</asrwt>
<pdfrwt beam="1">  1        1 0.13711853E+00 0.23124995E+03</pdfrwt>
<pdfrwt beam="2">  1       -1 0.13275493E-01 0.23124995E+03</pdfrwt>
<totfact> 0.76141451E+02</totfact>
</mgrwt>
</event>
<event>
 7    1  0.6387485E-006  0.1365716E+03  0.7546771E-02  0.1221829E+00
          1   -1    0    0  501    0  0.00000000000E+00  0.00000000000E+00  0.57387737938E+02  0.57387737938E+02  0.00000000000E+00 0. -1.
         -1   -1    0    0    0  501 -0.00000000000E+00 -0.00000000000E+00 -0.98470557851E+03  0.98470557851E+03  0.00000000000E+00 0.  1.
         23    2    1    2    0    0  0.35552217597E+02  0.56025886675E+02 -0.90354015976E+03  0.91380338405E+03  0.11936894171E+03 0.  0.
          5    1    3    3  502    0  0.75866884387E+01  0.39886007850E+01 -0.15844776177E+01  0.99028958901E+01  0.47000000000E+01 0. -1.
         -5    1    3    3    0  502  0.27965529158E+02  0.52037285890E+02 -0.90195568214E+03  0.90390048816E+03  0.47000000000E+01 0.  1.
        -11    1    1    2    0    0  0.32287936826E+02 -0.43067564601E+02 -0.24685274332E+02  0.59217301138E+02  0.00000000000E+00 0.  1.
         11    1    1    2    0    0 -0.67840154423E+02 -0.12958322074E+02  0.90759352200E+00  0.69072631260E+02  0.00000000000E+00 0. -1.
<mgrwt>
<rscale>  0 0.13386616E+03</rscale>
<asrwt>0</asrwt>
<pdfrwt beam="1">  1        1 0.88288825E-02 0.13657161E+03</pdfrwt>
<pdfrwt beam="2">  1       -1 0.15149317E+00 0.13657161E+03</pdfrwt>
<totfact> 0.28178893E+02</totfact>
</mgrwt>
</event>
<event>
 7    1  0.6387485E-006  0.1439205E+03  0.7546771E-02  0.1218677E+00
         -1   -1    0    0    0  501 -0.00000000000E+00  0.00000000000E+00  0.12744885139E+03  0.12744885139E+03  0.00000000000E+00 0.  1.
          1   -1    0    0  501    0  0.00000000000E+00 -0.00000000000E+00 -0.15121957550E+03  0.15121957550E+03  0.00000000000E+00 0. -1.
         23    2    1    2    0    0  0.69608020539E+02 -0.15612974297E+02  0.36884147928E+02  0.14857168707E+03  0.12499625731E+03 0.  0.
          5    1    3    3  502    0 -0.87201603922E+01  0.43551719826E+02  0.19658844959E+02  0.48799115588E+02  0.47000000000E+01 0. -1.
         -5    1    3    3    0  502  0.78328180931E+02 -0.59164694123E+02  0.17225302969E+02  0.99772571487E+02  0.47000000000E+01 0. -1.
        -11    1    1    2    0    0  0.17549861720E+02  0.19126899681E+02 -0.44726776319E+01  0.26340857674E+02  0.00000000000E+00 0.  1.
         11    1    1    2    0    0 -0.87157882259E+02 -0.35139253840E+01 -0.56182194407E+02  0.10375588215E+03  0.00000000000E+00 0. -1.
<mgrwt>
<rscale>  0 0.13609844E+03</rscale>
<asrwt>0</asrwt>
<pdfrwt beam="2">  1        1 0.23264550E-01 0.14392048E+03</pdfrwt>
<pdfrwt beam="1">  1       -1 0.19607516E-01 0.14392048E+03</pdfrwt>
<totfact> 0.42073445E+03</totfact>
</mgrwt>
</event>
<event>
 7    1  0.6387485E-006  0.1324426E+03  0.7546771E-02  0.1236557E+00
          2   -1    0    0  501    0  0.00000000000E+00  0.00000000000E+00  0.58037357044E+03  0.58037357044E+03  0.00000000000E+00 0. -1.
         -2   -1    0    0    0  501 -0.00000000000E+00 -0.00000000000E+00 -0.23885505549E+02  0.23885505549E+02  0.00000000000E+00 0.  1.
         23    2    1    2    0    0 -0.35007403968E+02 -0.26295864269E+02  0.28524381780E+03  0.31449177344E+03  0.12499619659E+03 0.  0.
          5    1    3    3  502    0  0.32275007370E+02 -0.18051933188E+02  0.20927448295E+03  0.21256868915E+03  0.47000000000E+01 0.  1.
         -5    1    3    3    0  502 -0.67282411339E+02 -0.82439310802E+01  0.75969334849E+02  0.10192308430E+03  0.47000000000E+01 0.  1.
        -11    1    1    2    0    0  0.63194170128E+02  0.21729183857E+02  0.13587029828E+03  0.15141465756E+03  0.00000000000E+00 0.  1.
         11    1    1    2    0    0 -0.28186766160E+02  0.45666804114E+01  0.13537394882E+03  0.13835264499E+03  0.00000000000E+00 0. -1.
<mgrwt>
<rscale>  0 0.12405272E+03</rscale>
<asrwt>0</asrwt>
<pdfrwt beam="1">  1        2 0.89288231E-01 0.13244259E+03</pdfrwt>
<pdfrwt beam="2">  1       -2 0.36746936E-02 0.13244259E+03</pdfrwt>
<totfact> 0.15493125E+04</totfact>
</mgrwt>
</event>
<event>
 7    1  0.6387485E-006  0.1256410E+03  0.7546771E-02  0.1249218E+00
         -1   -1    0    0    0  501 -0.00000000000E+00  0.00000000000E+00  0.21319995838E+02  0.21319995838E+02  0.00000000000E+00 0.  1.
          1   -1    0    0  501    0  0.00000000000E+00 -0.00000000000E+00 -0.56242149451E+03  0.56242149451E+03  0.00000000000E+00 0. -1.
         23    2    1    2    0    0 -0.42153368954E+01  0.11854608519E+02 -0.28499744018E+03  0.31146299473E+03  0.12500942111E+03 0.  0.
          5    1    3    3  502    0 -0.64299014593E+02  0.75465262306E+01 -0.15849097189E+03  0.17126818592E+03  0.47000000000E+01 0. -1.
         -5    1    3    3    0  502  0.60083677697E+02  0.43080822887E+01 -0.12650646829E+03  0.14019480881E+03  0.47000000000E+01 0. -1.
        -11    1    1    2    0    0  0.45016071577E+02 -0.18498853349E+02 -0.16890655076E+03  0.17577848892E+03  0.00000000000E+00 0. -1.
         11    1    1    2    0    0 -0.40800734681E+02  0.66442448301E+01 -0.87197507727E+02  0.96500006703E+02  0.00000000000E+00 0.  1.
<mgrwt>
<rscale>  0 0.11636455E+03</rscale>
<asrwt>0</asrwt>
<pdfrwt beam="2">  1        1 0.86526373E-01 0.12564098E+03</pdfrwt>
<pdfrwt beam="1">  1       -1 0.32799998E-02 0.12564098E+03</pdfrwt>
<totfact> 0.12025215E+04</totfact>
</mgrwt>
</event>
<event>
 7    1  0.6387485E-006  0.1269888E+03  0.7546771E-02  0.1247090E+00
         -2   -1    0    0    0  501 -0.00000000000E+00  0.00000000000E+00  0.49584972234E+02  0.49584972234E+02  0.00000000000E+00 0.  1.
          2   -1    0    0  501    0  0.00000000000E+00 -0.00000000000E+00 -0.25064306916E+03  0.25064306916E+03  0.00000000000E+00 0. -1.
         23    2    1    2    0    0  0.13718669730E+02 -0.17697236186E+02 -0.93145951482E+02  0.15748750237E+03  0.12499900423E+03 0.  0.
          5    1    3    3  502    0 -0.26676667777E+02 -0.61156841575E+02 -0.56778579803E+02  0.87736543126E+02  0.47000000000E+01 0.  1.
         -5    1    3    3    0  502  0.40395337507E+02  0.43459605390E+02 -0.36367371679E+02  0.69750959246E+02  0.47000000000E+01 0.  1.
        -11    1    1    2    0    0 -0.42512303861E+02 -0.80584141090E+01 -0.90609594827E+02  0.10041081960E+03  0.00000000000E+00 0. -1.
         11    1    1    2    0    0  0.28793634131E+02  0.25755650295E+02 -0.17302550615E+02  0.42329719422E+02  0.00000000000E+00 0.  1.
<mgrwt>
<rscale>  0 0.11761147E+03</rscale>
<asrwt>0</asrwt>
<pdfrwt beam="2">  1        2 0.38560472E-01 0.12698876E+03</pdfrwt>
<pdfrwt beam="1">  1       -2 0.76284572E-02 0.12698876E+03</pdfrwt>
<totfact> 0.12672729E+04</totfact>
</mgrwt>
</event>
<event>
 7    1  0.6387485E-006  0.1547371E+03  0.7546771E-02  0.1203468E+00
         -2   -1    0    0    0  501 -0.00000000000E+00  0.00000000000E+00  0.35075649413E+02  0.35075649413E+02  0.00000000000E+00 0.  1.
          2   -1    0    0  501    0  0.00000000000E+00 -0.00000000000E+00 -0.57066076313E+03  0.57066076313E+03  0.00000000000E+00 0. -1.
         23    2    1    2    0    0  0.41985496882E+02  0.80907335966E+02 -0.30310364681E+03  0.34031658249E+03  0.12503910048E+03 0.  0.
          5    1    3    3  502    0  0.40802214121E+02  0.42316296476E+02 -0.29467735678E+03  0.30052008955E+03  0.47000000000E+01 0. -1.
         -5    1    3    3    0  502  0.11832827604E+01  0.38591039490E+02 -0.84262900304E+01  0.39796492945E+02  0.47000000000E+01 0. -1.
        -11    1    1    2    0    0 -0.42970287550E+02 -0.95378352118E+01 -0.15008954226E+03  0.15641063457E+03  0.00000000000E+00 0. -1.
         11    1    1    2    0    0  0.98479066830E+00 -0.71369500755E+02 -0.82391924647E+02  0.10900919547E+03  0.00000000000E+00 0.  1.
<mgrwt>
<rscale>  0 0.14758812E+03</rscale>
<asrwt>0</asrwt>
<pdfrwt beam="2">  1        2 0.87793965E-01 0.15473705E+03</pdfrwt>
<pdfrwt beam="1">  1       -2 0.53962537E-02 0.15473705E+03</pdfrwt>
<totfact> 0.89857250E+03</totfact>
</mgrwt>
</event>
<event>
 7    1  0.6387485E-006  0.1374894E+03  0.7546771E-02  0.1228739E+00
         -3   -1    0    0    0  501 -0.00000000000E+00  0.00000000000E+00  0.55676617777E+02  0.55676617777E+02  0.00000000000E+00 0.  1.
          3   -1    0    0  501    0  0.00000000000E+00 -0.00000000000E+00 -0.26842887455E+03  0.26842887455E+03  0.00000000000E+00 0. -1.
         23    2    1    2    0    0  0.56511693797E+02 -0.90753302306E+01 -0.12050925321E+03  0.18282726868E+03  0.12500958726E+03 0.  0.
          5    1    3    3  502    0 -0.17050197778E+02 -0.22925716970E+01 -0.10588097808E+03  0.10737242033E+03  0.47000000000E+01 0.  1.
         -5    1    3    3    0  502  0.73561891575E+02 -0.67827585336E+01 -0.14628275131E+02  0.75454848345E+02  0.47000000000E+01 0.  1.
        -11    1    1    2    0    0 -0.58273782374E+02  0.40175947956E+02 -0.42421195948E+02  0.82519684754E+02  0.00000000000E+00 0. -1.
         11    1    1    2    0    0  0.17620885768E+01 -0.31100617725E+02 -0.49821807619E+02  0.58758538899E+02  0.00000000000E+00 0.  1.
<mgrwt>
<rscale>  0 0.12913863E+03</rscale>
<asrwt>0</asrwt>
<pdfrwt beam="2">  1        3 0.41296750E-01 0.13748938E+03</pdfrwt>
<pdfrwt beam="1">  1       -3 0.85656335E-02 0.13748938E+03</pdfrwt>
<totfact> 0.12838424E+03</totfact>
</mgrwt>
</event>
<event>
 7    1  0.6387485E-006  0.1636070E+03  0.7546771E-02  0.1191539E+00
          1   -1    0    0  501    0  0.00000000000E+00  0.00000000000E+00  0.76177603458E+02  0.76177603458E+02  0.00000000000E+00 0. -1.
         -1   -1    0    0    0  501 -0.00000000000E+00 -0.00000000000E+00 -0.47748853448E+03  0.47748853448E+03  0.00000000000E+00 0.  1.
         23    2    1    2    0    0  0.15800600394E+02 -0.10436717748E+03 -0.37708728848E+03  0.41104995637E+03  0.12500030716E+03 0.  0.
          5    1    3    3  502    0  0.66455886956E+02 -0.57246998482E+02 -0.15235459048E+03  0.17586248885E+03  0.47000000000E+01 0. -1.
         -5    1    3    3    0  502 -0.50655286562E+02 -0.47120178995E+02 -0.22473269800E+03  0.23518746751E+03  0.47000000000E+01 0. -1.
        -11    1    1    2    0    0  0.96506993977E+00  0.10860300589E+03  0.49307381906E+01  0.10871916312E+03  0.00000000000E+00 0.  1.
         11    1    1    2    0    0 -0.16765670334E+02 -0.42358284180E+01 -0.29154380733E+02  0.33897018454E+02  0.00000000000E+00 0. -1.
<mgrwt>
<rscale>  0 0.15750864E+03</rscale>
<asrwt>0</asrwt>
<pdfrwt beam="1">  1        1 0.11719631E-01 0.16360698E+03</pdfrwt>
<pdfrwt beam="2">  1       -1 0.73459774E-01 0.16360698E+03</pdfrwt>
<totfact> 0.99765079E+02</totfact>
</mgrwt>
</event>
<event>
 7    1  0.6387485E-006  0.1319358E+03  0.7546771E-02  0.1238536E+00
         -1   -1    0    0    0  501 -0.00000000000E+00  0.00000000000E+00  0.41363708551E+03  0.41363708551E+03  0.00000000000E+00 0.  1.
          1   -1    0    0  501    0  0.00000000000E+00 -0.00000000000E+00 -0.37061448519E+02  0.37061448519E+02  0.00000000000E+00 0. -1.
         23    2    1    2    0    0 -0.16161264636E+02 -0.38952920886E+02  0.29213787225E+03  0.32054889245E+03  0.12501415732E+03 0.  0.
          5    1    3    3  502    0 -0.64151127166E+02  0.63123105787E+01  0.16568745791E+03  0.17784722683E+03  0.47000000000E+01 0. -1.
         -5    1    3    3    0  502  0.47989862531E+02 -0.45265231465E+02  0.12645041434E+03  0.14270166562E+03  0.47000000000E+01 0. -1.
        -11    1    1    2    0    0  0.48753632387E+02  0.44437588290E+02  0.57596889089E+02  0.87572927076E+02  0.00000000000E+00 0.  1.
         11    1    1    2    0    0 -0.32592367751E+02 -0.54846674043E+01  0.26840875658E+02  0.42576714507E+02  0.00000000000E+00 0. -1.
<mgrwt>
<rscale>  0 0.12280786E+03</rscale>
<asrwt>0</asrwt>
<pdfrwt beam="2">  1        1 0.57017616E-02 0.13193580E+03</pdfrwt>
<pdfrwt beam="1">  1       -1 0.63636471E-01 0.13193580E+03</pdfrwt>
<totfact> 0.34482215E+03</totfact>
</mgrwt>
</event>
<event>
 7    1  0.6387485E-006  0.1463461E+03  0.7546771E-02  0.1212158E+00
         -2   -1    0    0    0  501 -0.00000000000E+00  0.00000000000E+00  0.11854031912E+03  0.11854031912E+03  0.00000000000E+00 0. -1.
          2   -1    0    0  501    0  0.00000000000E+00 -0.00000000000E+00 -0.17132773990E+03  0.17132773990E+03  0.00000000000E+00 0.  1.
         23    2    1    2    0    0 -0.67933516591E+02  0.34293349455E+02  0.14968398347E+02  0.14710958224E+03  0.12500471888E+03 0.  0.
          5    1    3    3  502    0 -0.34832506491E+02  0.76233485672E+02  0.33470653244E+02  0.90372686553E+02  0.47000000000E+01 0.  1.
         -5    1    3    3    0  502 -0.33101010100E+02 -0.41940136217E+02 -0.18502254897E+02  0.56736895684E+02  0.47000000000E+01 0.  1.
        -11    1    1    2    0    0  0.46693101558E+01  0.28554259196E+02  0.27696958485E+01  0.29065776967E+02  0.00000000000E+00 0.  1.
         11    1    1    2    0    0  0.63264206435E+02 -0.62847608651E+02 -0.70525514981E+02  0.11369269982E+03  0.00000000000E+00 0. -1.
<mgrwt>
<rscale>  0 0.14087392E+03</rscale>
<asrwt>0</asrwt>
<pdfrwt beam="2">  1        2 0.26358114E-01 0.14634608E+03</pdfrwt>
<pdfrwt beam="1">  1       -2 0.18236972E-01 0.14634608E+03</pdfrwt>
<totfact> 0.47933981E+03</totfact>
</mgrwt>
</event>
<event>
 7    1  0.6387485E-006  0.1666468E+03  0.7546771E-02  0.1188380E+00
          1   -1    0    0  501    0  0.00000000000E+00  0.00000000000E+00  0.22634862757E+03  0.22634862757E+03  0.00000000000E+00 0. -1.
         -1   -1    0    0    0  501 -0.00000000000E+00 -0.00000000000E+00 -0.13418022496E+03  0.13418022496E+03  0.00000000000E+00 0.  1.
         23    2    1    2    0    0  0.31712842344E+02 -0.10554764354E+03  0.13185839689E+03  0.21250362463E+03  0.12500057689E+03 0.  0.
          5    1    3    3  502    0  0.19703287464E+02 -0.84235742407E+01  0.10993726281E+03  0.11210471843E+03  0.47000000000E+01 0. -1.
         -5    1    3    3    0  502  0.12009554880E+02 -0.97124069299E+02  0.21921134079E+02  0.10039890619E+03  0.47000000000E+01 0. -1.
        -11    1    1    2    0    0  0.18409298407E+02  0.28066166906E+02 -0.44359478265E+02  0.55627109439E+02  0.00000000000E+00 0.  1.
         11    1    1    2    0    0 -0.50122140751E+02  0.77481476634E+02  0.46694839856E+01  0.92398118463E+02  0.00000000000E+00 0. -1.
<mgrwt>
<rscale>  0 0.16028075E+03</rscale>
<asrwt>0</asrwt>
<pdfrwt beam="1">  1        1 0.34822866E-01 0.16664679E+03</pdfrwt>
<pdfrwt beam="2">  1       -1 0.20643112E-01 0.16664679E+03</pdfrwt>
<totfact> 0.23524849E+03</totfact>
</mgrwt>
</event>
<event>
 7    1  0.6387485E-006  0.1610969E+03  0.7546771E-02  0.1195181E+00
         -1   -1    0    0    0  501 -0.00000000000E+00  0.00000000000E+00  0.10428522204E+04  0.10428522204E+04  0.00000000000E+00 0.  1.
          1   -1    0    0  501    0  0.00000000000E+00 -0.00000000000E+00 -0.36756492756E+02  0.36756492756E+02  0.00000000000E+00 0. -1.
         23    2    1    2    0    0 -0.78168626089E+02 -0.64948888196E+02  0.87866734707E+03  0.89331323179E+03  0.12499412431E+03 0.  0.
          5    1    3    3  502    0 -0.55714008616E+02 -0.90563942744E+02  0.41704818226E+03  0.43041509594E+03  0.47000000000E+01 0.  1.
         -5    1    3    3    0  502 -0.22454617473E+02  0.25615054548E+02  0.46161916480E+03  0.46289813586E+03  0.47000000000E+01 0.  1.
        -11    1    1    2    0    0  0.45086456153E+02  0.47114665700E+02  0.13857946118E+02  0.66668005243E+02  0.00000000000E+00 0. -1.
         11    1    1    2    0    0  0.33082169936E+02  0.17834222497E+02  0.11357043447E+03  0.11962747613E+03  0.00000000000E+00 0.  1.
<mgrwt>
<rscale>  0 0.15438958E+03</rscale>
<asrwt>0</asrwt>
<pdfrwt beam="2">  1        1 0.56548458E-02 0.16109694E+03</pdfrwt>
<pdfrwt beam="1">  1       -1 0.16043878E+00 0.16109694E+03</pdfrwt>
<totfact> 0.44227589E+02</totfact>
</mgrwt>
</event>
<event>
 7    1  0.6387485E-006  0.1287830E+03  0.7546771E-02  0.1243275E+00
          2   -1    0    0  501    0  0.00000000000E+00  0.00000000000E+00  0.10884784996E+03  0.10884784996E+03  0.00000000000E+00 0. -1.
         -2   -1    0    0    0  501 -0.00000000000E+00 -0.00000000000E+00 -0.11752054170E+03  0.11752054170E+03  0.00000000000E+00 0.  1.
         23    2    1    2    0    0 -0.27569545160E+02  0.14123994134E+02 -0.13656351984E+02  0.12950503234E+03  0.12500196167E+03 0.  0.
          5    1    3    3  502    0 -0.65976132811E+02  0.30032483781E+02  0.20519206681E+02  0.75484621120E+02  0.47000000000E+01 0.  1.
         -5    1    3    3    0  502  0.38406587651E+02 -0.15908489647E+02 -0.34175558665E+02  0.54020411216E+02  0.47000000000E+01 0.  1.
        -11    1    1    2    0    0  0.57094991201E+02  0.96537383864E+01 -0.35182796140E+01  0.58012162316E+02  0.00000000000E+00 0.  1.
         11    1    1    2    0    0 -0.29525446041E+02 -0.23777732521E+02  0.85019398514E+01  0.38851197008E+02  0.00000000000E+00 0. -1.
<mgrwt>
<rscale>  0 0.11989190E+03</rscale>
<asrwt>0</asrwt>
<pdfrwt beam="1">  1        2 0.16745823E-01 0.12878299E+03</pdfrwt>
<pdfrwt beam="2">  1       -2 0.18080083E-01 0.12878299E+03</pdfrwt>
<totfact> 0.80318977E+03</totfact>
</mgrwt>
</event>
<event>
 7    1  0.6387485E-006  0.1840438E+03  0.7546771E-02  0.1169230E+00
         -1   -1    0    0    0  501 -0.00000000000E+00  0.00000000000E+00  0.38553853581E+02  0.38553853581E+02  0.00000000000E+00 0.  1.
          1   -1    0    0  501    0  0.00000000000E+00 -0.00000000000E+00 -0.78098994905E+03  0.78098994905E+03  0.00000000000E+00 0. -1.
         23    2    1    2    0    0 -0.88090316308E+02 -0.10235460476E+03 -0.39912250827E+03  0.43951211876E+03  0.12504302057E+03 0.  0.
          5    1    3    3  502    0 -0.70325284785E+02 -0.12769418865E+03 -0.27250974160E+03  0.30908752929E+03  0.47000000000E+01 0.  1.
         -5    1    3    3    0  502 -0.17765031523E+02  0.25339583889E+02 -0.12661276667E+03  0.13042458948E+03  0.47000000000E+01 0.  1.
        -11    1    1    2    0    0  0.45642269962E+02  0.10968859046E+03 -0.27030896213E+03  0.29526553929E+03  0.00000000000E+00 0. -1.
         11    1    1    2    0    0  0.42448046346E+02 -0.73339856949E+01 -0.73004625069E+02  0.84766144576E+02  0.00000000000E+00 0.  1.
<mgrwt>
<rscale>  0 0.17853326E+03</rscale>
<asrwt>0</asrwt>
<pdfrwt beam="2">  1        1 0.12015230E+00 0.18404382E+03</pdfrwt>
<pdfrwt beam="1">  1       -1 0.59313619E-02 0.18404382E+03</pdfrwt>
<totfact> 0.32135222E+03</totfact>
</mgrwt>
</event>
<event>
 6    1  0.6387485E-006  0.1878804E+03  0.7546771E-02  0.1192370E+00
          1   -1    0    0  501    0  0.00000000000E+00  0.00000000000E+00  0.28355423405E+03  0.28355423405E+03  0.00000000000E+00 0. -1.
         -1   -1    0    0    0  501 -0.00000000000E+00 -0.00000000000E+00 -0.10832810540E+04  0.10832810540E+04  0.00000000000E+00 0.  1.
          5    1    1    2  502    0  0.45818375068E+02  0.76112938241E+02 -0.34310927732E+03  0.35445531319E+03  0.47000000000E+01 0. -1.
         -5    1    1    2    0  502 -0.38712172534E+02 -0.76402052635E+02 -0.72442949554E+03  0.72949029463E+03  0.47000000000E+01 0.  1.
        -11    1    1    2    0    0 -0.25698864694E+02  0.36210012475E+02  0.19084018304E+03  0.19593767405E+03  0.00000000000E+00 0. -1.
         11    1    1    2    0    0  0.18592662160E+02 -0.35920898081E+02  0.76971769930E+02  0.86952006137E+02  0.00000000000E+00 0.  1.
<mgrwt>
<rscale>  0 0.15678975E+03</rscale>
<asrwt>0</asrwt>
<pdfrwt beam="1">  1        1 0.43623728E-01 0.18788041E+03</pdfrwt>
<pdfrwt beam="2">  1       -1 0.16665863E+00 0.18788041E+03</pdfrwt>
<totfact> 0.27792814E+01</totfact>
</mgrwt>
</event>
<event>
 7    1  0.6387485E-006  0.1634795E+03  0.7546771E-02  0.1191330E+00
          2   -1    0    0  501    0  0.00000000000E+00  0.00000000000E+00  0.73856952643E+02  0.73856952643E+02  0.00000000000E+00 0. -1.
         -2   -1    0    0    0  501 -0.00000000000E+00 -0.00000000000E+00 -0.31912625601E+03  0.31912625601E+03  0.00000000000E+00 0.  1.
         23    2    1    2    0    0 -0.71136622816E+02  0.77567314791E+02 -0.15394457976E+03  0.22455394410E+03  0.12509369586E+03 0.  0.
          5    1    3    3  502    0 -0.97760343600E+02  0.20385172518E+02 -0.10034015775E+03  0.14164348660E+03  0.47000000000E+01 0. -1.
         -5    1    3    3    0  502  0.26623720784E+02  0.57182142273E+02 -0.53604422013E+02  0.82910457499E+02  0.47000000000E+01 0. -1.
        -11    1    1    2    0    0  0.59222103920E+02 -0.47319849928E+02 -0.10795605803E+03  0.13191260840E+03  0.00000000000E+00 0.  1.
         11    1    1    2    0    0  0.11914518896E+02 -0.30247464863E+02  0.16631334431E+02  0.36516656146E+02  0.00000000000E+00 0. -1.
<mgrwt>
<rscale>  0 0.15768947E+03</rscale>
<asrwt>0</asrwt>
<pdfrwt beam="1">  1        2 0.11362608E-01 0.16347948E+03</pdfrwt>
<pdfrwt beam="2">  1       -2 0.49096348E-01 0.16347948E+03</pdfrwt>
<totfact> 0.21236791E+03</totfact>
</mgrwt>
</event>
<event>
 7    1  0.6387485E-006  0.2575950E+03  0.7546771E-02  0.1109819E+00
          1   -1    0    0  501    0  0.00000000000E+00  0.00000000000E+00  0.10830424567E+04  0.10830424567E+04  0.00000000000E+00 0. -1.
         -1   -1    0    0    0  501 -0.00000000000E+00 -0.00000000000E+00 -0.59413461661E+02  0.59413461661E+02  0.00000000000E+00 0.  1.
         23    2    1    2    0    0 -0.61389996304E+02  0.22429042867E+03  0.51158592874E+03  0.57277863350E+03  0.11081639077E+03 0.  0.
          5    1    3    3  502    0  0.71803087066E+00 -0.91283449307E+01  0.48020284598E+01  0.11357452480E+02  0.47000000000E+01 0. -1.
         -5    1    3    3    0  502 -0.62108027175E+02  0.23341877360E+03  0.50678390028E+03  0.56142118102E+03  0.47000000000E+01 0.  1.
        -11    1    1    2    0    0  0.19697654666E+02  0.15549005319E+01  0.33884521958E+02  0.39224687931E+02  0.00000000000E+00 0.  1.
         11    1    1    2    0    0  0.41692341638E+02 -0.22584532920E+03  0.47815854437E+03  0.53045259696E+03  0.00000000000E+00 0. -1.
<mgrwt>
<rscale>  0 0.25559511E+03</rscale>
<asrwt>0</asrwt>
<pdfrwt beam="1">  1        1 0.16662190E+00 0.25759503E+03</pdfrwt>
<pdfrwt beam="2">  1       -1 0.91405333E-02 0.25759503E+03</pdfrwt>
<totfact> 0.97483586E+02</totfact>
</mgrwt>
</event>
<event>
 7    1  0.6387485E-006  0.1436338E+03  0.7546771E-02  0.1218764E+00
          1   -1    0    0  501    0  0.00000000000E+00  0.00000000000E+00  0.52094967995E+03  0.52094967995E+03  0.00000000000E+00 0. -1.
         -1   -1    0    0    0  501 -0.00000000000E+00 -0.00000000000E+00 -0.33909289232E+02  0.33909289232E+02  0.00000000000E+00 0.  1.
         23    2    1    2    0    0 -0.55670843560E+02  0.43750269389E+02  0.20742464518E+03  0.25230069133E+03  0.12496930234E+03 0.  0.
          5    1    3    3  502    0 -0.53659449180E+02 -0.13929172153E+02  0.17967016803E+03  0.18808726061E+03  0.47000000000E+01 0.  1.
         -5    1    3    3    0  502 -0.20113943801E+01  0.57679441543E+02  0.27754477149E+02  0.64213430728E+02  0.47000000000E+01 0.  1.
        -11    1    1    2    0    0  0.42775160036E+02 -0.74609837289E+01  0.25061255952E+03  0.25434629068E+03  0.00000000000E+00 0.  1.
         11    1    1    2    0    0  0.12895683523E+02 -0.36289285660E+02  0.29003186024E+02  0.48211987169E+02  0.00000000000E+00 0. -1.
<mgrwt>
<rscale>  0 0.13603609E+03</rscale>
<asrwt>0</asrwt>
<pdfrwt beam="1">  1        1 0.80146099E-01 0.14363375E+03</pdfrwt>
<pdfrwt beam="2">  1       -1 0.52168141E-02 0.14363375E+03</pdfrwt>
<totfact> 0.67901402E+03</totfact>
</mgrwt>
</event>
<event>
 7    1  0.6387485E-006  0.1410921E+03  0.7546771E-02  0.1222950E+00
          2   -1    0    0  501    0  0.00000000000E+00  0.00000000000E+00  0.38063834666E+02  0.38063834666E+02  0.00000000000E+00 0. -1.
         -2   -1    0    0    0  501 -0.00000000000E+00 -0.00000000000E+00 -0.41983721382E+03  0.41983721382E+03  0.00000000000E+00 0.  1.
         23    2    1    2    0    0  0.18904333528E+02 -0.62663262430E+02 -0.20849697409E+03  0.25174981006E+03  0.12499168124E+03 0.  0.
          5    1    3    3  502    0  0.27848608822E+02 -0.36679350691E+02 -0.21756298119E+03  0.22243349695E+03  0.47000000000E+01 0.  1.
         -5    1    3    3    0  502 -0.89442752939E+01 -0.25983911739E+02  0.90660071021E+01  0.29316313114E+02  0.47000000000E+01 0.  1.
        -11    1    1    2    0    0 -0.19592499613E+02 -0.20323680861E+02 -0.52532558077E+02  0.59637133591E+02  0.00000000000E+00 0.  1.
         11    1    1    2    0    0  0.68816608538E+00  0.82986943291E+02 -0.12074384699E+03  0.14651410483E+03  0.00000000000E+00 0. -1.
<mgrwt>
<rscale>  0 0.13308407E+03</rscale>
<asrwt>0</asrwt>
<pdfrwt beam="1">  1        2 0.58559746E-02 0.14109209E+03</pdfrwt>
<pdfrwt beam="2">  1       -2 0.64590340E-01 0.14109209E+03</pdfrwt>
<totfact> 0.27736434E+03</totfact>
</mgrwt>
</event>
<event>
 7    1  0.6387485E-006  0.1253675E+03  0.7546771E-02  0.1249652E+00
          1   -1    0    0  501    0  0.00000000000E+00  0.00000000000E+00  0.25238808451E+03  0.25238808451E+03  0.00000000000E+00 0. -1.
         -1   -1    0    0    0  501 -0.00000000000E+00 -0.00000000000E+00 -0.55076824766E+02  0.55076824766E+02  0.00000000000E+00 0.  1.
         23    2    1    2    0    0  0.93059933812E+01  0.27287755807E+01  0.52825920634E+02  0.13604256926E+03  0.12499181985E+03 0.  0.
          5    1    3    3  502    0 -0.43088813127E+02  0.70553484248E+01 -0.18212165155E+02  0.47541526246E+02  0.47000000000E+01 0. -1.
         -5    1    3    3    0  502  0.52394806509E+02 -0.43265728441E+01  0.71038085790E+02  0.88501043013E+02  0.47000000000E+01 0. -1.
        -11    1    1    2    0    0 -0.36540334668E+02 -0.17446689557E+02  0.13195118321E+03  0.13802426520E+03  0.00000000000E+00 0. -1.
         11    1    1    2    0    0  0.27234341287E+02  0.14717913977E+02  0.12534155898E+02  0.33398074814E+02  0.00000000000E+00 0.  1.
<mgrwt>
<rscale>  0 0.11611206E+03</rscale>
<asrwt>0</asrwt>
<pdfrwt beam="1">  1        1 0.38828936E-01 0.12536747E+03</pdfrwt>
<pdfrwt beam="2">  1       -1 0.84733578E-02 0.12536747E+03</pdfrwt>
<totfact> 0.81049460E+03</totfact>
</mgrwt>
</event>
<event>
 7    1  0.6387485E-006  0.1442629E+03  0.7546771E-02  0.1216780E+00
         -4   -1    0    0    0  501 -0.00000000000E+00  0.00000000000E+00  0.13816907647E+03  0.13816907647E+03  0.00000000000E+00 0.  1.
          4   -1    0    0  501    0  0.00000000000E+00 -0.00000000000E+00 -0.17794754963E+03  0.17794754963E+03  0.00000000000E+00 0. -1.
         23    2    1    2    0    0 -0.71607774597E+02 -0.77016167337E+01  0.64419096643E+02  0.15799243509E+03  0.12499920500E+03 0.  0.
          5    1    3    3  502    0 -0.93797413400E+02  0.16356899129E+02  0.12090109847E+02  0.96092474553E+02  0.47000000000E+01 0.  1.
         -5    1    3    3    0  502  0.22189638803E+02 -0.24058515863E+02  0.52328986796E+02  0.61899960540E+02  0.47000000000E+01 0.  1.
        -11    1    1    2    0    0  0.74767528349E+02 -0.78424535935E+01 -0.27888351428E+02  0.80183835772E+02  0.00000000000E+00 0.  1.
         11    1    1    2    0    0 -0.31597537515E+01  0.15544070327E+02 -0.76309218374E+02  0.77940355241E+02  0.00000000000E+00 0. -1.
<mgrwt>
<rscale>  0 0.13746614E+03</rscale>
<asrwt>0</asrwt>
<pdfrwt beam="2">  1        4 0.27376546E-01 0.14426292E+03</pdfrwt>
<pdfrwt beam="1">  1       -4 0.21256781E-01 0.14426292E+03</pdfrwt>
<totfact> 0.42887592E+02</totfact>
</mgrwt>
</event>
<event>
 7    1  0.6387485E-006  0.1177313E+03  0.7546771E-02  0.1257386E+00
         -2   -1    0    0    0  501 -0.00000000000E+00  0.00000000000E+00  0.92089322134E+02  0.92089322134E+02  0.00000000000E+00 0.  1.
          2   -1    0    0  501    0  0.00000000000E+00 -0.00000000000E+00 -0.12553043639E+03  0.12553043639E+03  0.00000000000E+00 0. -1.
         23    2    1    2    0    0 -0.20522957306E+02 -0.22812661041E+02 -0.45428820105E+01  0.11781886960E+03  0.11366195044E+03 0.  0.
          5    1    3    3  502    0  0.28679377672E+02  0.10097586668E+02 -0.38603054416E+02  0.49363486206E+02  0.47000000000E+01 0. -1.
         -5    1    3    3    0  502 -0.49202334978E+02 -0.32910247709E+02  0.34060172405E+02  0.68455383395E+02  0.47000000000E+01 0.  1.
        -11    1    1    2    0    0  0.39630227555E+02 -0.22071445311E+02 -0.22390230752E+02  0.50586817129E+02  0.00000000000E+00 0.  1.
         11    1    1    2    0    0 -0.19107270249E+02  0.44884106352E+02 -0.65080014967E+01  0.49214071797E+02  0.00000000000E+00 0. -1.
<mgrwt>
<rscale>  0 0.11173741E+03</rscale>
<asrwt>0</asrwt>
<pdfrwt beam="2">  1        2 0.19312375E-01 0.11773125E+03</pdfrwt>
<pdfrwt beam="1">  1       -2 0.14167588E-01 0.11773125E+03</pdfrwt>
<totfact> 0.10111657E+04</totfact>
</mgrwt>
</event>
<event>
 7    1  0.6387485E-006  0.1282714E+03  0.7546771E-02  0.1241953E+00
         -2   -1    0    0    0  501 -0.00000000000E+00  0.00000000000E+00  0.30891947152E+02  0.30891947152E+02  0.00000000000E+00 0.  1.
          2   -1    0    0  501    0  0.00000000000E+00 -0.00000000000E+00 -0.43975060922E+03  0.43975060922E+03  0.00000000000E+00 0. -1.
         23    2    1    2    0    0 -0.22983198586E+01 -0.28935272583E+02 -0.18369383835E+03  0.22404684970E+03  0.12494411686E+03 0.  0.
          5    1    3    3  502    0 -0.16336872680E+02  0.16388526045E+02 -0.17374166435E+03  0.17533890934E+03  0.47000000000E+01 0. -1.
         -5    1    3    3    0  502  0.14038552821E+02 -0.45323798628E+02 -0.99521740015E+01  0.48707940366E+02  0.47000000000E+01 0. -1.
        -11    1    1    2    0    0 -0.44440469242E+02  0.12509622942E+02 -0.14676299835E+03  0.15385325364E+03  0.00000000000E+00 0.  1.
         11    1    1    2    0    0  0.46738789101E+02  0.16425649641E+02 -0.78401825368E+02  0.92742453029E+02  0.00000000000E+00 0. -1.
<mgrwt>
<rscale>  0 0.12069595E+03</rscale>
<asrwt>0</asrwt>
<pdfrwt beam="2">  1        2 0.67653936E-01 0.12827145E+03</pdfrwt>
<pdfrwt beam="1">  1       -2 0.47526075E-02 0.12827145E+03</pdfrwt>
<totfact> 0.14299901E+04</totfact>
</mgrwt>
</event>
<event>
 7    1  0.6387485E-006  0.1384003E+03  0.7546771E-02  0.1227424E+00
         -1   -1    0    0    0  501 -0.00000000000E+00  0.00000000000E+00  0.47706816016E+02  0.47706816016E+02  0.00000000000E+00 0. -1.
          1   -1    0    0  501    0  0.00000000000E+00 -0.00000000000E+00 -0.32498396639E+03  0.32498396639E+03  0.00000000000E+00 0.  1.
         23    2    1    2    0    0  0.29407023770E+02 -0.51681024681E+02 -0.12771815228E+03  0.18832567386E+03  0.12497572426E+03 0.  0.
          5    1    3    3  502    0  0.64987161027E+02 -0.19961549697E+02 -0.20930036084E+02  0.71287803832E+02  0.47000000000E+01 0. -1.
         -5    1    3    3    0  502 -0.35580137257E+02 -0.31719474984E+02 -0.10678811620E+03  0.11703787003E+03  0.47000000000E+01 0. -1.
        -11    1    1    2    0    0 -0.14956299555E+02 -0.25348199990E+02 -0.40169251964E+02  0.49797499359E+02  0.00000000000E+00 0. -1.
         11    1    1    2    0    0 -0.14450724216E+02  0.77029224671E+02 -0.10938974613E+03  0.13456760919E+03  0.00000000000E+00 0.  1.
<mgrwt>
<rscale>  0 0.13002163E+03</rscale>
<asrwt>0</asrwt>
<pdfrwt beam="2">  1        1 0.49997534E-01 0.13840026E+03</pdfrwt>
<pdfrwt beam="1">  1       -1 0.73395101E-02 0.13840026E+03</pdfrwt>
<totfact> 0.74136421E+03</totfact>
</mgrwt>
</event>
<event>
 7    1  0.7840741E-006  0.1992980E+03  0.7546771E-02  0.1154735E+00
          1   -1    0    0  501    0  0.00000000000E+00  0.00000000000E+00  0.18417917648E+03  0.18417917648E+03  0.00000000000E+00 0. -1.
         -1   -1    0    0    0  501 -0.00000000000E+00 -0.00000000000E+00 -0.21460415069E+03  0.21460415069E+03  0.00000000000E+00 0.  1.
         23    2    1    2    0    0 -0.15335832522E+03  0.24007840754E+02 -0.76256673708E+02  0.21338877631E+03  0.12499814893E+03 0.  0.
          5    1    3    3  502    0 -0.30470968472E+02 -0.26960328907E+02 -0.68789291320E+02  0.80058702554E+02  0.47000000000E+01 0.  1.
         -5    1    3    3    0  502 -0.12288735675E+03  0.50968169661E+02 -0.74673823879E+01  0.13333007376E+03  0.47000000000E+01 0.  1.
        -11    1    1    2    0    0  0.46054411961E+02  0.17127654726E+02  0.50395909268E+02  0.70385460774E+02  0.00000000000E+00 0. -1.
         11    1    1    2    0    0  0.10730391326E+03 -0.41135495480E+02 -0.45642097701E+01  0.11500909008E+03  0.00000000000E+00 0.  1.
<mgrwt>
<rscale>  0 0.19419054E+03</rscale>
<asrwt>0</asrwt>
<pdfrwt beam="1">  1        1 0.28335258E-01 0.19929799E+03</pdfrwt>
<pdfrwt beam="2">  1       -1 0.33016023E-01 0.19929799E+03</pdfrwt>
<totfact> 0.14010172E+03</totfact>
</mgrwt>
</event>
<event>
 7    1  0.6387485E-006  0.1502600E+03  0.7546771E-02  0.1209036E+00
          3   -1    0    0  501    0  0.00000000000E+00  0.00000000000E+00  0.18509861891E+03  0.18509861891E+03  0.00000000000E+00 0. -1.
         -3   -1    0    0    0  501 -0.00000000000E+00 -0.00000000000E+00 -0.10492699636E+03  0.10492699636E+03  0.00000000000E+00 0.  1.
         23    2    1    2    0    0  0.48492317904E+02 -0.67879123823E+02  0.18297918148E+02  0.15136999162E+03  0.12497591851E+03 0.  0.
          5    1    3    3  502    0 -0.29375796734E+02 -0.14355044647E+02 -0.30465374325E+02  0.44935885141E+02  0.47000000000E+01 0. -1.
         -5    1    3    3    0  502  0.77868114638E+02 -0.53524079176E+02  0.48763292473E+02  0.10643410648E+03  0.47000000000E+01 0. -1.
        -11    1    1    2    0    0 -0.24855887152E+02  0.12189508091E+02 -0.21915460442E+02  0.35308449981E+02  0.00000000000E+00 0.  1.
         11    1    1    2    0    0 -0.23636430751E+02  0.55689615732E+02  0.83789164850E+02  0.10334717367E+03  0.00000000000E+00 0. -1.
<mgrwt>
<rscale>  0 0.14323927E+03</rscale>
<asrwt>0</asrwt>
<pdfrwt beam="1">  1        3 0.28476710E-01 0.15025998E+03</pdfrwt>
<pdfrwt beam="2">  1       -3 0.16142615E-01 0.15025998E+03</pdfrwt>
<totfact> 0.90642027E+02</totfact>
</mgrwt>
</event>
<event>
 7    1  0.6387485E-006  0.1107108E+03  0.7546771E-02  0.1270148E+00
         -1   -1    0    0    0  501 -0.00000000000E+00  0.00000000000E+00  0.17973809942E+03  0.17973809942E+03  0.00000000000E+00 0.  1.
          1   -1    0    0  501    0  0.00000000000E+00 -0.00000000000E+00 -0.57791658278E+02  0.57791658278E+02  0.00000000000E+00 0. -1.
         23    2    1    2    0    0 -0.90073756949E+01 -0.65689797143E+01  0.89297682767E+02  0.14223556424E+03  0.11014806070E+03 0.  0.
          5    1    3    3  502    0 -0.14299648394E+02  0.40794970591E+02  0.30574936415E+01  0.43590685211E+02  0.47000000000E+01 0. -1.
         -5    1    3    3    0  502  0.52922726991E+01 -0.47363950306E+02  0.86240189126E+02  0.98644879033E+02  0.47000000000E+01 0.  1.
        -11    1    1    2    0    0  0.19810884009E+01 -0.41145421038E+02  0.17339699961E+02  0.44693797986E+02  0.00000000000E+00 0.  1.
         11    1    1    2    0    0  0.70262872939E+01  0.47714400753E+02  0.15309058416E+02  0.50600395472E+02  0.00000000000E+00 0. -1.
<mgrwt>
<rscale>  0 0.10498583E+03</rscale>
<asrwt>0</asrwt>
<pdfrwt beam="2">  1        1 0.88910244E-02 0.11071079E+03</pdfrwt>
<pdfrwt beam="1">  1       -1 0.27652015E-01 0.11071079E+03</pdfrwt>
<totfact> 0.82003698E+03</totfact>
</mgrwt>
</event>
<event>
 7    1  0.6387485E-006  0.1792688E+03  0.7546771E-02  0.1174314E+00
          2   -1    0    0  501    0  0.00000000000E+00  0.00000000000E+00  0.32509044286E+03  0.32509044286E+03  0.00000000000E+00 0. -1.
         -2   -1    0    0    0  501 -0.00000000000E+00 -0.00000000000E+00 -0.89766950128E+02  0.89766950128E+02  0.00000000000E+00 0.  1.
         23    2    1    2    0    0  0.11224809727E+03 -0.62548044753E+02  0.88722070242E+02  0.20002226683E+03  0.12500163293E+03 0.  0.
          5    1    3    3  502    0  0.89323126510E+02  0.91738249275E+01  0.86164289950E+02  0.12453575734E+03  0.47000000000E+01 0.  1.
         -5    1    3    3    0  502  0.22924970764E+02 -0.71721869681E+02  0.25577802919E+01  0.75486509491E+02  0.47000000000E+01 0.  1.
        -11    1    1    2    0    0 -0.48518081692E+02  0.56906366366E+02  0.27576366339E+02  0.79704421235E+02  0.00000000000E+00 0.  1.
         11    1    1    2    0    0 -0.63730015583E+02  0.56416783874E+01  0.11902505615E+03  0.13513070492E+03  0.00000000000E+00 0. -1.
<mgrwt>
<rscale>  0 0.17343327E+03</rscale>
<asrwt>0</asrwt>
<pdfrwt beam="1">  1        2 0.50013914E-01 0.17926880E+03</pdfrwt>
<pdfrwt beam="2">  1       -2 0.13810300E-01 0.17926880E+03</pdfrwt>
<totfact> 0.38451816E+03</totfact>
</mgrwt>
</event>
<event>
 6    1  0.6387485E-006  0.1328970E+03  0.7546771E-02  0.1282861E+00
          2   -1    0    0  501    0  0.00000000000E+00  0.00000000000E+00  0.16101510441E+02  0.16101510441E+02  0.00000000000E+00 0. -1.
         -2   -1    0    0    0  501 -0.00000000000E+00 -0.00000000000E+00 -0.47579650410E+03  0.47579650410E+03  0.00000000000E+00 0.  1.
          5    1    1    2  502    0 -0.25799090102E+02 -0.44017626815E+02 -0.74688141278E+02  0.90573467241E+02  0.47000000000E+01 0. -1.
         -5    1    1    2    0  502  0.56313796746E+02  0.31245435623E+02 -0.30327730225E+03  0.31007536666E+03  0.47000000000E+01 0.  1.
        -11    1    1    2    0    0 -0.16919425866E+02  0.15637739854E+02 -0.30831276976E+02  0.38488615451E+02  0.00000000000E+00 0.  1.
         11    1    1    2    0    0 -0.13595280779E+02 -0.28655486626E+01 -0.50898273151E+02  0.52760565182E+02  0.00000000000E+00 0. -1.
<mgrwt>
<rscale>  0 0.98789997E+02</rscale>
<asrwt>0</asrwt>
<pdfrwt beam="1">  1        2 0.24771553E-02 0.13289700E+03</pdfrwt>
<pdfrwt beam="2">  1       -2 0.73199467E-01 0.13289700E+03</pdfrwt>
<totfact> 0.66323073E+03</totfact>
</mgrwt>
</event>
<event>
 7    1  0.6387485E-006  0.1287882E+03  0.7546771E-02  0.1243601E+00
          3   -1    0    0  501    0  0.00000000000E+00  0.00000000000E+00  0.67865789643E+02  0.67865789643E+02  0.00000000000E+00 0. -1.
         -3   -1    0    0    0  501 -0.00000000000E+00 -0.00000000000E+00 -0.18631709009E+03  0.18631709009E+03  0.00000000000E+00 0.  1.
         23    2    1    2    0    0 -0.28452360762E+02 -0.12250167904E+02 -0.69452910354E+02  0.14632194627E+03  0.12500720682E+03 0.  0.
          5    1    3    3  502    0 -0.29529132840E+02 -0.13391808383E+02 -0.10522539499E+03  0.11020791246E+03  0.47000000000E+01 0. -1.
         -5    1    3    3    0  502  0.10767720776E+01  0.11416404794E+01  0.35772484633E+02  0.36114033809E+02  0.47000000000E+01 0. -1.
        -11    1    1    2    0    0  0.44298150712E+02 -0.44478353590E+01  0.90352341611E+01  0.45428458616E+02  0.00000000000E+00 0. -1.
         11    1    1    2    0    0 -0.15845789949E+02  0.16698003263E+02 -0.58033624258E+02  0.62432474855E+02  0.00000000000E+00 0.  1.
<mgrwt>
<rscale>  0 0.11969493E+03</rscale>
<asrwt>0</asrwt>
<pdfrwt beam="1">  1        3 0.10440891E-01 0.12878822E+03</pdfrwt>
<pdfrwt beam="2">  1       -3 0.28664167E-01 0.12878822E+03</pdfrwt>
<totfact> 0.18236968E+03</totfact>
</mgrwt>
</event>
<event>
 7    1  0.6387485E-006  0.1279601E+03  0.7546771E-02  0.1245705E+00
          1   -1    0    0  501    0  0.00000000000E+00  0.00000000000E+00  0.72485165663E+03  0.72485165663E+03  0.00000000000E+00 0. -1.
         -1   -1    0    0    0  501 -0.00000000000E+00 -0.00000000000E+00 -0.20168011482E+02  0.20168011482E+02  0.00000000000E+00 0.  1.
         23    2    1    2    0    0  0.80052277379E+00 -0.27361540189E+02  0.25116630286E+03  0.28188350308E+03  0.12499801158E+03 0.  0.
          5    1    3    3  502    0  0.16951435400E+00 -0.82474682247E+01 -0.13489696140E+02  0.16495798532E+02  0.47000000000E+01 0.  1.
         -5    1    3    3    0  502  0.63100841980E+00 -0.19114071965E+02  0.26465599900E+03  0.26538770455E+03  0.47000000000E+01 0.  1.
        -11    1    1    2    0    0 -0.29875350761E+02 -0.21661126319E+02  0.17954593356E+03  0.18329889043E+03  0.00000000000E+00 0.  1.
         11    1    1    2    0    0  0.29074827988E+02  0.49022666508E+02  0.27397140873E+03  0.27983727460E+03  0.00000000000E+00 0. -1.
<mgrwt>
<rscale>  0 0.11843278E+03</rscale>
<asrwt>0</asrwt>
<pdfrwt beam="1">  1        1 0.11151562E+00 0.12796014E+03</pdfrwt>
<pdfrwt beam="2">  1       -1 0.31027716E-02 0.12796014E+03</pdfrwt>
<totfact> 0.91870274E+03</totfact>
</mgrwt>
</event>
<event>
 7    1  0.6387485E-006  0.1619374E+03  0.7546771E-02  0.1193922E+00
         -1   -1    0    0    0  501 -0.00000000000E+00  0.00000000000E+00  0.33061569268E+02  0.33061569268E+02  0.00000000000E+00 0.  1.
          1   -1    0    0  501    0  0.00000000000E+00 -0.00000000000E+00 -0.67821387778E+03  0.67821387778E+03  0.00000000000E+00 0. -1.
         23    2    1    2    0    0 -0.30755886156E+02 -0.98247614686E+02 -0.35201200623E+03  0.38747410850E+03  0.12500085563E+03 0.  0.
          5    1    3    3  502    0 -0.31369589340E+02 -0.12301736361E+03 -0.22876314594E+03  0.26167153041E+03  0.47000000000E+01 0. -1.
         -5    1    3    3    0  502  0.61370318370E+00  0.24769748927E+02 -0.12324886029E+03  0.12580257810E+03  0.47000000000E+01 0. -1.
        -11    1    1    2    0    0 -0.61301400298E+01  0.66112336176E+02 -0.74667301239E+02  0.99918093886E+02  0.00000000000E+00 0.  1.
         11    1    1    2    0    0  0.36886026186E+02  0.32135278509E+02 -0.21847300105E+03  0.22388324466E+03  0.00000000000E+00 0. -1.
<mgrwt>
<rscale>  0 0.15545844E+03</rscale>
<asrwt>0</asrwt>
<pdfrwt beam="2">  1        1 0.10434059E+00 0.16193743E+03</pdfrwt>
<pdfrwt beam="1">  1       -1 0.50863956E-02 0.16193743E+03</pdfrwt>
<totfact> 0.49474583E+03</totfact>
</mgrwt>
</event>
<event>
 7    1  0.6387485E-006  0.1452988E+03  0.7546771E-02  0.1215542E+00
          2   -1    0    0  501    0  0.00000000000E+00  0.00000000000E+00  0.13846554492E+03  0.13846554492E+03  0.00000000000E+00 0. -1.
         -2   -1    0    0    0  501 -0.00000000000E+00 -0.00000000000E+00 -0.18098527972E+03  0.18098527972E+03  0.00000000000E+00 0.  1.
         23    2    1    2    0    0  0.54252044778E+02  0.50431478284E+02 -0.10997775809E+03  0.18222742691E+03  0.12500043792E+03 0.  0.
          5    1    3    3  502    0 -0.65775000349E+00  0.75076002891E+02 -0.27669742571E+02  0.80153250084E+02  0.47000000000E+01 0.  1.
         -5    1    3    3    0  502  0.54909794781E+02 -0.24644524606E+02 -0.82308015523E+02  0.10207417683E+03  0.47000000000E+01 0.  1.
        -11    1    1    2    0    0 -0.36888800568E+02 -0.14864463731E+02  0.85066308258E+02  0.93904274078E+02  0.00000000000E+00 0. -1.
         11    1    1    2    0    0 -0.17363244210E+02 -0.35567014553E+02 -0.17608284968E+02  0.43319123643E+02  0.00000000000E+00 0.  1.
<mgrwt>
<rscale>  0 0.13836817E+03</rscale>
<asrwt>0</asrwt>
<pdfrwt beam="1">  1        2 0.21302391E-01 0.14529875E+03</pdfrwt>
<pdfrwt beam="2">  1       -2 0.27843889E-01 0.14529875E+03</pdfrwt>
<totfact> 0.29272236E+03</totfact>
</mgrwt>
</event>
<event>
 7    1  0.6387485E-006  0.1470765E+03  0.7546771E-02  0.1213253E+00
          2   -1    0    0  501    0  0.00000000000E+00  0.00000000000E+00  0.74562742412E+02  0.74562742412E+02  0.00000000000E+00 0. -1.
         -2   -1    0    0    0  501 -0.00000000000E+00 -0.00000000000E+00 -0.26647390228E+03  0.26647390228E+03  0.00000000000E+00 0.  1.
         23    2    1    2    0    0  0.15725866076E+02 -0.75906105785E+02 -0.15706004108E+03  0.21517282456E+03  0.12498979226E+03 0.  0.
          5    1    3    3  502    0  0.40596549104E+02 -0.31902473647E+02 -0.15600904490E+03  0.16439817431E+03  0.47000000000E+01 0. -1.
         -5    1    3    3    0  502 -0.24870683028E+02 -0.44003632138E+02 -0.10509961728E+01  0.50774650256E+02  0.47000000000E+01 0. -1.
        -11    1    1    2    0    0  0.34814177370E+02  0.40889969765E+02  0.27833689184E+01  0.53775121719E+02  0.00000000000E+00 0. -1.
         11    1    1    2    0    0 -0.50540043446E+02  0.35016136020E+02 -0.37634487709E+02  0.72088698409E+02  0.00000000000E+00 0.  1.
<mgrwt>
<rscale>  0 0.14005615E+03</rscale>
<asrwt>0</asrwt>
<pdfrwt beam="1">  1        2 0.11471191E-01 0.14707647E+03</pdfrwt>
<pdfrwt beam="2">  1       -2 0.40995985E-01 0.14707647E+03</pdfrwt>
<totfact> 0.29621284E+03</totfact>
</mgrwt>
</event>
<event>
 7    1  0.6387485E-006  0.1879246E+03  0.7546771E-02  0.1169833E+00
         -3   -1    0    0    0  501 -0.00000000000E+00  0.00000000000E+00  0.14888713415E+03  0.14888713415E+03  0.00000000000E+00 0.  1.
          3   -1    0    0  501    0  0.00000000000E+00 -0.00000000000E+00 -0.19291099805E+03  0.19291099805E+03  0.00000000000E+00 0. -1.
         23    2    1    2    0    0 -0.12356144189E+03 -0.66452758048E+02 -0.27069270827E+02  0.18986418120E+03  0.12502904824E+03 0.  0.
          5    1    3    3  502    0 -0.10236979963E+03 -0.10278824166E+03 -0.15401125398E+02  0.14595986833E+03  0.47000000000E+01 0.  1.
         -5    1    3    3    0  502 -0.21191642257E+02  0.36335483607E+02 -0.11668145429E+02  0.43904312866E+02  0.47000000000E+01 0.  1.
        -11    1    1    2    0    0  0.37488410780E+02  0.34296246129E+02 -0.30189853754E+02  0.59101951838E+02  0.00000000000E+00 0. -1.
         11    1    1    2    0    0  0.86073031110E+02  0.32156511920E+02  0.13235260679E+02  0.92831999163E+02  0.00000000000E+00 0.  1.
<mgrwt>
<rscale>  0 0.17791854E+03</rscale>
<asrwt>0</asrwt>
<pdfrwt beam="2">  1        3 0.29678615E-01 0.18792462E+03</pdfrwt>
<pdfrwt beam="1">  1       -3 0.22905713E-01 0.18792462E+03</pdfrwt>
<totfact> 0.46731479E+02</totfact>
</mgrwt>
</event>
<event>
 7    1  0.6387485E-006  0.1259007E+03  0.7546771E-02  0.1234668E+00
         -1   -1    0    0    0  501 -0.00000000000E+00  0.00000000000E+00  0.24093892871E+03  0.24093892871E+03  0.00000000000E+00 0.  1.
          1   -1    0    0  501    0  0.00000000000E+00 -0.00000000000E+00 -0.64596200692E+02  0.64596200692E+02  0.00000000000E+00 0. -1.
         23    2    1    2    0    0 -0.13412990341E+02 -0.68199055098E+01  0.96068870511E+02  0.15836733233E+03  0.12499825858E+03 0.  0.
          5    1    3    3  502    0 -0.29116264418E+02 -0.51401292820E+02  0.93626218739E+02  0.11080527331E+03  0.47000000000E+01 0.  1.
         -5    1    3    3    0  502  0.15703274077E+02  0.44581387310E+02  0.24426517719E+01  0.47562059027E+02  0.47000000000E+01 0.  1.
        -11    1    1    2    0    0  0.34581812005E+02  0.55312528057E+02  0.22938944186E+02  0.69148916420E+02  0.00000000000E+00 0. -1.
         11    1    1    2    0    0 -0.21168821664E+02 -0.48492622547E+02  0.57334913320E+02  0.78018880648E+02  0.00000000000E+00 0.  1.
<mgrwt>
<rscale>  0 0.12525734E+03</rscale>
<asrwt>0</asrwt>
<pdfrwt beam="2">  1        1 0.99378771E-02 0.12590069E+03</pdfrwt>
<pdfrwt beam="1">  1       -1 0.37067527E-01 0.12590069E+03</pdfrwt>
<totfact> 0.43546989E+03</totfact>
</mgrwt>
</event>
<event>
 7    1  0.6387485E-006  0.2120699E+03  0.7546771E-02  0.1143776E+00
         -2   -1    0    0    0  501 -0.00000000000E+00  0.00000000000E+00  0.59253443117E+02  0.59253443117E+02  0.00000000000E+00 0.  1.
          2   -1    0    0  501    0  0.00000000000E+00 -0.00000000000E+00 -0.69693473142E+03  0.69693473142E+03  0.00000000000E+00 0. -1.
         23    2    1    2    0    0  0.15453920230E+03  0.73826529550E+02 -0.30721194533E+03  0.37329988681E+03  0.12506360231E+03 0.  0.
          5    1    3    3  502    0  0.74994253733E+02  0.69397941225E+02 -0.26271949874E+03  0.28192878065E+03  0.47000000000E+01 0.  1.
         -5    1    3    3    0  502  0.79544948567E+02  0.44285883251E+01 -0.44492446591E+02  0.91371106159E+02  0.47000000000E+01 0.  1.
        -11    1    1    2    0    0 -0.94423130858E+02 -0.83702782032E+02 -0.26470836998E+03  0.29324461547E+03  0.00000000000E+00 0. -1.
         11    1    1    2    0    0 -0.60116071441E+02  0.98762524824E+01 -0.65760972988E+02  0.89643672264E+02  0.00000000000E+00 0.  1.
<mgrwt>
<rscale>  0 0.20723288E+03</rscale>
<asrwt>0</asrwt>
<pdfrwt beam="2">  1        2 0.10722072E+00 0.21206986E+03</pdfrwt>
<pdfrwt beam="1">  1       -2 0.91159150E-02 0.21206986E+03</pdfrwt>
<totfact> 0.32141951E+03</totfact>
</mgrwt>
</event>
<event>
 7    1  0.6387485E-006  0.1322127E+03  0.7546771E-02  0.1237217E+00
          1   -1    0    0  501    0  0.00000000000E+00  0.00000000000E+00  0.14555154971E+03  0.14555154971E+03  0.00000000000E+00 0. -1.
         -1   -1    0    0    0  501 -0.00000000000E+00 -0.00000000000E+00 -0.96784425744E+02  0.96784425744E+02  0.00000000000E+00 0.  1.
         23    2    1    2    0    0 -0.24785531548E+02 -0.35207046127E+02  0.53882470977E+01  0.13232244031E+03  0.12500534522E+03 0.  0.
          5    1    3    3  502    0 -0.40601984835E+02  0.35300858639E+02 -0.16845337349E+02  0.56573201992E+02  0.47000000000E+01 0.  1.
         -5    1    3    3    0  502  0.15816453288E+02 -0.70507904766E+02  0.22233584447E+02  0.75749238323E+02  0.47000000000E+01 0.  1.
        -11    1    1    2    0    0  0.11824678504E+02 -0.92363971763E+01 -0.23975414373E+02  0.28283467766E+02  0.00000000000E+00 0.  1.
         11    1    1    2    0    0  0.12960853043E+02  0.44443443304E+02  0.67354291242E+02  0.81730067375E+02  0.00000000000E+00 0. -1.
<mgrwt>
<rscale>  0 0.12363541E+03</rscale>
<asrwt>0</asrwt>
<pdfrwt beam="1">  1        1 0.22392546E-01 0.13221269E+03</pdfrwt>
<pdfrwt beam="2">  1       -1 0.14889912E-01 0.13221269E+03</pdfrwt>
<totfact> 0.67922611E+03</totfact>
</mgrwt>
</event>
<event>
 7    1  0.6387485E-006  0.1724542E+03  0.7546771E-02  0.1181658E+00
          2   -1    0    0  501    0  0.00000000000E+00  0.00000000000E+00  0.27734919977E+03  0.27734919977E+03  0.00000000000E+00 0. -1.
         -2   -1    0    0    0  501 -0.00000000000E+00 -0.00000000000E+00 -0.95910147172E+02  0.95910147172E+02  0.00000000000E+00 0.  1.
         23    2    1    2    0    0 -0.27576759963E+02 -0.11556262709E+03  0.67013350191E+02  0.18501685654E+03  0.12500099852E+03 0.  0.
          5    1    3    3  502    0 -0.71124148712E+02 -0.79947741577E+02  0.14812549990E+02  0.10812856954E+03  0.47000000000E+01 0. -1.
         -5    1    3    3    0  502  0.43547388749E+02 -0.35614885511E+02  0.52200800201E+02  0.76888287004E+02  0.47000000000E+01 0. -1.
        -11    1    1    2    0    0  0.47383686615E+02  0.62116772261E+02  0.10435796363E+03  0.13036215604E+03  0.00000000000E+00 0.  1.
         11    1    1    2    0    0 -0.19806926652E+02  0.53445854827E+02  0.10067738771E+02  0.57880334359E+02  0.00000000000E+00 0. -1.
<mgrwt>
<rscale>  0 0.16639702E+03</rscale>
<asrwt>0</asrwt>
<pdfrwt beam="1">  1        2 0.42669107E-01 0.17245419E+03</pdfrwt>
<pdfrwt beam="2">  1       -2 0.14755407E-01 0.17245419E+03</pdfrwt>
<totfact> 0.40816263E+03</totfact>
</mgrwt>
</event>
<event>
 6    1  0.6387485E-006  0.1633922E+03  0.7546771E-02  0.1203554E+00
         -2   -1    0    0    0  501 -0.00000000000E+00  0.00000000000E+00  0.19715228834E+03  0.19715228834E+03  0.00000000000E+00 0.  1.
          2   -1    0    0  501    0  0.00000000000E+00 -0.00000000000E+00 -0.93875195901E+02  0.93875195901E+02  0.00000000000E+00 0. -1.
          5    1    1    2  502    0 -0.47342439241E+02  0.22342615039E+02 -0.18076726137E+01  0.52591412610E+02  0.47000000000E+01 0. -1.
         -5    1    1    2    0  502  0.75974965314E+02 -0.72312800182E+02  0.59543390561E+02  0.12070145726E+03  0.47000000000E+01 0.  1.
        -11    1    1    2    0    0  0.27914686556E+02 -0.53581553264E+01  0.19404764376E+02  0.34416339644E+02  0.00000000000E+00 0.  1.
         11    1    1    2    0    0 -0.56547212629E+02  0.55328340469E+02  0.26136610115E+02  0.83318274727E+02  0.00000000000E+00 0. -1.
<mgrwt>
<rscale>  0 0.14751997E+03</rscale>
<asrwt>0</asrwt>
<pdfrwt beam="2">  1        2 0.14442338E-01 0.16339218E+03</pdfrwt>
<pdfrwt beam="1">  1       -2 0.30331121E-01 0.16339218E+03</pdfrwt>
<totfact> 0.39555853E+03</totfact>
</mgrwt>
</event>
<event>
 7    1  0.6387485E-006  0.1418030E+03  0.7546771E-02  0.1222312E+00
         -3   -1    0    0    0  501 -0.00000000000E+00  0.00000000000E+00  0.12999208005E+04  0.12999208005E+04  0.00000000000E+00 0.  1.
          3   -1    0    0  501    0  0.00000000000E+00 -0.00000000000E+00 -0.12638674487E+02  0.12638674487E+02  0.00000000000E+00 0. -1.
         23    2    1    2    0    0  0.37038492901E+02 -0.55759285364E+02  0.81923281336E+03  0.83141476135E+03  0.12500861986E+03 0.  0.
          5    1    3    3  502    0  0.34707412115E+02 -0.93390171116E+02  0.67184267897E+03  0.67920615707E+03  0.47000000000E+01 0.  1.
         -5    1    3    3    0  502  0.23310807866E+01  0.37630885752E+02  0.14739013439E+03  0.15220860428E+03  0.47000000000E+01 0.  1.
        -11    1    1    2    0    0  0.27290862501E+02  0.31746079955E+02  0.20884698038E+03  0.21300156333E+03  0.00000000000E+00 0. -1.
         11    1    1    2    0    0 -0.64329355402E+02  0.24013205409E+02  0.25920233226E+03  0.26814315029E+03  0.00000000000E+00 0.  1.
<mgrwt>
<rscale>  0 0.13352832E+03</rscale>
<asrwt>0</asrwt>
<pdfrwt beam="2">  1        3 0.19444125E-02 0.14180304E+03</pdfrwt>
<pdfrwt beam="1">  1       -3 0.19998771E+00 0.14180304E+03</pdfrwt>
<totfact> 0.37478083E+02</totfact>
</mgrwt>
</event>
<event>
 7    1  0.6387485E-006  0.2141608E+03  0.7546771E-02  0.1141091E+00
          2   -1    0    0  501    0  0.00000000000E+00  0.00000000000E+00  0.87879786302E+03  0.87879786302E+03  0.00000000000E+00 0. -1.
         -2   -1    0    0    0  501 -0.00000000000E+00 -0.00000000000E+00 -0.51916269255E+02  0.51916269255E+02  0.00000000000E+00 0.  1.
         23    2    1    2    0    0  0.14920678173E+03  0.89283346188E+02  0.31364900821E+03  0.37979010993E+03  0.12502258848E+03 0.  0.
          5    1    3    3  502    0  0.10970405341E+03 -0.36980410310E+01  0.13065242385E+03  0.17070676818E+03  0.47000000000E+01 0.  1.
         -5    1    3    3    0  502  0.39502728315E+02  0.92981387219E+02  0.18299658436E+03  0.20908334176E+03  0.47000000000E+01 0.  1.
        -11    1    1    2    0    0 -0.52273535481E+01 -0.39922437189E+02  0.18191565949E+03  0.18631809730E+03  0.00000000000E+00 0. -1.
         11    1    1    2    0    0 -0.14397942818E+03 -0.49360908999E+02  0.33131692607E+03  0.36460592504E+03  0.00000000000E+00 0.  1.
<mgrwt>
<rscale>  0 0.21060125E+03</rscale>
<asrwt>0</asrwt>
<pdfrwt beam="1">  1        2 0.13519966E+00 0.21416075E+03</pdfrwt>
<pdfrwt beam="2">  1       -2 0.79871190E-02 0.21416075E+03</pdfrwt>
<totfact> 0.29545865E+03</totfact>
</mgrwt>
</event>
<event>
 7    1  0.6387485E-006  0.1257652E+03  0.7546771E-02  0.1251603E+00
          1   -1    0    0  501    0  0.00000000000E+00  0.00000000000E+00  0.10017169678E+03  0.10017169678E+03  0.00000000000E+00 0. -1.
         -1   -1    0    0    0  501 -0.00000000000E+00 -0.00000000000E+00 -0.17546863869E+03  0.17546863869E+03  0.00000000000E+00 0.  1.
         23    2    1    2    0    0 -0.45721443828E+01 -0.13049938200E+02 -0.12276910702E+03  0.17575305090E+03  0.12500270345E+03 0.  0.
          5    1    3    3  502    0 -0.38655203985E+01  0.55972105516E+02 -0.60916498605E+02  0.82950157602E+02  0.47000000000E+01 0.  1.
         -5    1    3    3    0  502 -0.70662398429E+00 -0.69022043717E+02 -0.61852608415E+02  0.92802893296E+02  0.47000000000E+01 0.  1.
        -11    1    1    2    0    0 -0.20805001150E+02  0.23201717151E+02 -0.12813488227E+02  0.33695003074E+02  0.00000000000E+00 0.  1.
         11    1    1    2    0    0  0.25377145533E+02 -0.10151778951E+02  0.60285653338E+02  0.66192281496E+02  0.00000000000E+00 0. -1.
<mgrwt>
<rscale>  0 0.11498724E+03</rscale>
<asrwt>0</asrwt>
<pdfrwt beam="1">  1        1 0.15411030E-01 0.12576518E+03</pdfrwt>
<pdfrwt beam="2">  1       -1 0.26995175E-01 0.12576518E+03</pdfrwt>
<totfact> 0.41936264E+03</totfact>
</mgrwt>
</event>
<event>
 6    1  0.6387485E-006  0.3771822E+03  0.7546771E-02  0.1058687E+00
          1   -1    0    0  501    0  0.00000000000E+00  0.00000000000E+00  0.49094556714E+03  0.49094556714E+03  0.00000000000E+00 0. -1.
         -1   -1    0    0    0  501 -0.00000000000E+00 -0.00000000000E+00 -0.25091686852E+03  0.25091686852E+03  0.00000000000E+00 0.  1.
          5    1    1    2  502    0  0.69137637073E+01  0.53011321688E+02  0.10434059984E+03  0.11733307773E+03  0.47000000000E+01 0. -1.
         -5    1    1    2    0  502  0.22126660153E+03  0.13873410776E+03 -0.43258574995E+02  0.26476301842E+03  0.47000000000E+01 0.  1.
        -11    1    1    2    0    0 -0.11111651026E+03 -0.52900020428E+02  0.34766020796E+02  0.12788263063E+03  0.00000000000E+00 0. -1.
         11    1    1    2    0    0 -0.11706385498E+03 -0.13884540902E+03  0.14418065298E+03  0.23188370888E+03  0.00000000000E+00 0.  1.
<mgrwt>
<rscale>  0 0.35974004E+03</rscale>
<asrwt>0</asrwt>
<pdfrwt beam="1">  1        1 0.75530087E-01 0.37718220E+03</pdfrwt>
<pdfrwt beam="2">  1       -1 0.38602595E-01 0.37718220E+03</pdfrwt>
<totfact> 0.30430180E+02</totfact>
</mgrwt>
</event>
<event>
 7    1  0.6387485E-006  0.1455815E+03  0.7546771E-02  0.1215591E+00
          1   -1    0    0  501    0  0.00000000000E+00  0.00000000000E+00  0.58046352251E+03  0.58046352251E+03  0.00000000000E+00 0. -1.
         -1   -1    0    0    0  501 -0.00000000000E+00 -0.00000000000E+00 -0.39922579450E+02  0.39922579450E+02  0.00000000000E+00 0.  1.
         23    2    1    2    0    0  0.21643701483E+02  0.71416620810E+02  0.13755564473E+03  0.20028864741E+03  0.12500081336E+03 0.  0.
          5    1    3    3  502    0 -0.28746058064E+02  0.75988041029E+02  0.12290361213E+03  0.14740388770E+03  0.47000000000E+01 0.  1.
         -5    1    3    3    0  502  0.50389759547E+02 -0.45714202193E+01  0.14652032601E+02  0.52884759708E+02  0.47000000000E+01 0.  1.
        -11    1    1    2    0    0 -0.57674748934E+02 -0.42967249817E+02  0.26982219105E+03  0.27924286205E+03  0.00000000000E+00 0.  1.
         11    1    1    2    0    0  0.36031047451E+02 -0.28449370993E+02  0.13316310728E+03  0.14085459251E+03  0.00000000000E+00 0. -1.
<mgrwt>
<rscale>  0 0.13833220E+03</rscale>
<asrwt>0</asrwt>
<pdfrwt beam="1">  1        1 0.89302074E-01 0.14558155E+03</pdfrwt>
<pdfrwt beam="2">  1       -1 0.61419357E-02 0.14558155E+03</pdfrwt>
<totfact> 0.46126458E+03</totfact>
</mgrwt>
</event>
<event>
 7    1  0.6387485E-006  0.1342214E+03  0.7546771E-02  0.1234203E+00
         -2   -1    0    0    0  501 -0.00000000000E+00  0.00000000000E+00  0.11543960288E+03  0.11543960288E+03  0.00000000000E+00 0.  1.
          2   -1    0    0  501    0  0.00000000000E+00 -0.00000000000E+00 -0.15196780361E+03  0.15196780361E+03  0.00000000000E+00 0. -1.
         23    2    1    2    0    0 -0.95859897013E+01 -0.47953628464E+02  0.39105376264E+02  0.13980206439E+03  0.12499578023E+03 0.  0.
          5    1    3    3  502    0  0.29838700356E+02 -0.72065312980E+02  0.49101974224E+02  0.92286788038E+02  0.47000000000E+01 0.  1.
         -5    1    3    3    0  502 -0.39424690057E+02  0.24111684515E+02 -0.99965979602E+01  0.47515276354E+02  0.47000000000E+01 0.  1.
        -11    1    1    2    0    0 -0.30520034272E+02  0.35944488582E+02 -0.71346819921E+02  0.85521035215E+02  0.00000000000E+00 0. -1.
         11    1    1    2    0    0  0.40106023974E+02  0.12009139882E+02 -0.42867570748E+01  0.42084306884E+02  0.00000000000E+00 0.  1.
<mgrwt>
<rscale>  0 0.12555619E+03</rscale>
<asrwt>0</asrwt>
<pdfrwt beam="2">  1        2 0.23379662E-01 0.13422141E+03</pdfrwt>
<pdfrwt beam="1">  1       -2 0.17759939E-01 0.13422141E+03</pdfrwt>
<totfact> 0.56895883E+03</totfact>
</mgrwt>
</event>
<event>
 6    1  0.6387485E-006  0.1660646E+03  0.7546771E-02  0.1198831E+00
          1   -1    0    0  501    0  0.00000000000E+00  0.00000000000E+00  0.83396103349E+02  0.83396103349E+02  0.00000000000E+00 0. -1.
         -1   -1    0    0    0  501 -0.00000000000E+00 -0.00000000000E+00 -0.30463318759E+03  0.30463318759E+03  0.00000000000E+00 0.  1.
          5    1    1    2  502    0 -0.90536491608E+01  0.13745720671E+02  0.17307828679E+02  0.24342644340E+02  0.47000000000E+01 0. -1.
         -5    1    1    2    0  502  0.15473933858E+01 -0.83769979293E+02 -0.23449383433E+03  0.24905672486E+03  0.47000000000E+01 0.  1.
        -11    1    1    2    0    0  0.21473955330E+02 -0.13843465287E+02 -0.13820053907E+02  0.29047653583E+02  0.00000000000E+00 0.  1.
         11    1    1    2    0    0 -0.13967699554E+02  0.83867723908E+02  0.97689753188E+01  0.85582268159E+02  0.00000000000E+00 0. -1.
<mgrwt>
<rscale>  0 0.15134374E+03</rscale>
<asrwt>0</asrwt>
<pdfrwt beam="1">  1        1 0.12830170E-01 0.16606461E+03</pdfrwt>
<pdfrwt beam="2">  1       -1 0.46866643E-01 0.16606461E+03</pdfrwt>
<totfact> 0.20826317E+03</totfact>
</mgrwt>
</event>
<event>
 7    1  0.6387485E-006  0.1469131E+03  0.7546771E-02  0.1213963E+00
         -1   -1    0    0    0  501 -0.00000000000E+00  0.00000000000E+00  0.77339798460E+02  0.77339798460E+02  0.00000000000E+00 0. -1.
          1   -1    0    0  501    0  0.00000000000E+00 -0.00000000000E+00 -0.22969547600E+03  0.22969547600E+03  0.00000000000E+00 0.  1.
         23    2    1    2    0    0  0.77684932507E+01  0.76746665962E+02 -0.79401903951E+02  0.16699732650E+03  0.12503217380E+03 0.  0.
          5    1    3    3  502    0 -0.15271979116E+02  0.10601160034E+03 -0.70816152581E+02  0.12848622580E+03  0.47000000000E+01 0. -1.
         -5    1    3    3    0  502  0.23040472366E+02 -0.29264934378E+02 -0.85857513695E+01  0.38511100706E+02  0.47000000000E+01 0. -1.
        -11    1    1    2    0    0  0.38104977109E+02 -0.57275917805E+02 -0.50714460012E+02  0.85466230144E+02  0.00000000000E+00 0.  1.
         11    1    1    2    0    0 -0.45873470359E+02 -0.19470748157E+02 -0.22239313576E+02  0.54571717812E+02  0.00000000000E+00 0. -1.
<mgrwt>
<rscale>  0 0.13953017E+03</rscale>
<asrwt>0</asrwt>
<pdfrwt beam="2">  1        1 0.35337765E-01 0.14691305E+03</pdfrwt>
<pdfrwt beam="1">  1       -1 0.11898431E-01 0.14691305E+03</pdfrwt>
<totfact> 0.54808595E+03</totfact>
</mgrwt>
</event>
<event>
 7    1  0.6387485E-006  0.1424151E+03  0.7546771E-02  0.1220797E+00
          1   -1    0    0  501    0  0.00000000000E+00  0.00000000000E+00  0.88744113733E+02  0.88744113733E+02  0.00000000000E+00 0. -1.
         -1   -1    0    0    0  501 -0.00000000000E+00 -0.00000000000E+00 -0.18887086612E+03  0.18887086612E+03  0.00000000000E+00 0.  1.
         23    2    1    2    0    0 -0.68231547791E+02  0.12728890280E+01 -0.76186371467E+02  0.16151293325E+03  0.12499960019E+03 0.  0.
          5    1    3    3  502    0 -0.23978456172E+02  0.20228864130E+02  0.30728784768E+02  0.44164708962E+02  0.47000000000E+01 0.  1.
         -5    1    3    3    0  502 -0.44253091619E+02 -0.18955975102E+02 -0.10691515624E+03  0.11734822428E+03  0.47000000000E+01 0.  1.
        -11    1    1    2    0    0 -0.18466391810E+02  0.82118630346E+01 -0.20547502719E+02  0.28820863779E+02  0.00000000000E+00 0.  1.
         11    1    1    2    0    0  0.86697939602E+02 -0.94847520626E+01 -0.33928781981E+01  0.87281182825E+02  0.00000000000E+00 0. -1.
<mgrwt>
<rscale>  0 0.13459171E+03</rscale>
<asrwt>0</asrwt>
<pdfrwt beam="1">  1        1 0.13652941E-01 0.14241511E+03</pdfrwt>
<pdfrwt beam="2">  1       -1 0.29057056E-01 0.14241511E+03</pdfrwt>
<totfact> 0.43735874E+03</totfact>
</mgrwt>
</event>
<event>
 7    1  0.6387485E-006  0.1504187E+03  0.7546771E-02  0.1208453E+00
         -1   -1    0    0    0  501 -0.00000000000E+00  0.00000000000E+00  0.71228720209E+03  0.71228720209E+03  0.00000000000E+00 0.  1.
          1   -1    0    0  501    0  0.00000000000E+00 -0.00000000000E+00 -0.26755128444E+02  0.26755128444E+02  0.00000000000E+00 0. -1.
         23    2    1    2    0    0 -0.12220178871E+02 -0.82768942856E+02  0.39459856218E+03  0.42229589146E+03  0.12500305597E+03 0.  0.
          5    1    3    3  502    0 -0.58506009176E+02 -0.59804535923E+01  0.12694561186E+03  0.13998570394E+03  0.47000000000E+01 0. -1.
         -5    1    3    3    0  502  0.46285830304E+02 -0.76788489263E+02  0.26765295031E+03  0.28231018753E+03  0.47000000000E+01 0. -1.
        -11    1    1    2    0    0  0.35674397989E+02  0.35759123065E+02  0.53528831159E+02  0.73598324163E+02  0.00000000000E+00 0. -1.
         11    1    1    2    0    0 -0.23454219118E+02  0.47009819791E+02  0.23740468030E+03  0.24314811490E+03  0.00000000000E+00 0.  1.
<mgrwt>
<rscale>  0 0.14368633E+03</rscale>
<asrwt>0</asrwt>
<pdfrwt beam="2">  1        1 0.41161742E-02 0.15041873E+03</pdfrwt>
<pdfrwt beam="1">  1       -1 0.10958263E+00 0.15041873E+03</pdfrwt>
<totfact> 0.17476355E+03</totfact>
</mgrwt>
</event>
<event>
 7    1  0.6387485E-006  0.1512279E+03  0.7546771E-02  0.1207685E+00
          1   -1    0    0  501    0  0.00000000000E+00  0.00000000000E+00  0.14180809965E+03  0.14180809965E+03  0.00000000000E+00 0.  1.
         -1   -1    0    0    0  501 -0.00000000000E+00 -0.00000000000E+00 -0.19814122435E+03  0.19814122435E+03  0.00000000000E+00 0. -1.
         23    2    1    2    0    0 -0.66803993145E+02 -0.52743966065E+02 -0.12578212654E+03  0.19670030002E+03  0.12500066086E+03 0.  0.
          5    1    3    3  502    0  0.34882511636E+02 -0.24713339990E+02 -0.53967543521E+02  0.69008148397E+02  0.47000000000E+01 0. -1.
         -5    1    3    3    0  502 -0.10168650478E+03 -0.28030626075E+02 -0.71814583016E+02  0.12769215163E+03  0.47000000000E+01 0. -1.
        -11    1    1    2    0    0  0.37999065824E+02  0.67192259307E+02  0.13043490130E+02  0.78287044580E+02  0.00000000000E+00 0. -1.
         11    1    1    2    0    0  0.28804927321E+02 -0.14448293242E+02  0.56405511713E+02  0.64961979398E+02  0.00000000000E+00 0.  1.
<mgrwt>
<rscale>  0 0.14427841E+03</rscale>
<asrwt>0</asrwt>
<pdfrwt beam="1">  1        1 0.21816631E-01 0.15122786E+03</pdfrwt>
<pdfrwt beam="2">  1       -1 0.30483265E-01 0.15122786E+03</pdfrwt>
<totfact> 0.22149916E+03</totfact>
</mgrwt>
</event>
<event>
 7    1  0.7605861E-006  0.2119224E+03  0.7546771E-02  0.1143808E+00
          1   -1    0    0  501    0  0.00000000000E+00  0.00000000000E+00  0.74823786863E+03  0.74823786863E+03  0.00000000000E+00 0. -1.
         -1   -1    0    0    0  501 -0.00000000000E+00 -0.00000000000E+00 -0.54993173097E+02  0.54993173097E+02  0.00000000000E+00 0.  1.
         23    2    1    2    0    0 -0.16095761187E+03  0.58131692173E+02  0.37310203877E+03  0.42908768715E+03  0.12499786190E+03 0.  0.
          5    1    3    3  502    0 -0.13935458344E+03 -0.10435810722E+02  0.25083172935E+03  0.28717112062E+03  0.47000000000E+01 0.  1.
         -5    1    3    3    0  502 -0.21603028431E+02  0.68567502894E+02  0.12227030942E+03  0.14191656653E+03  0.47000000000E+01 0.  1.
        -11    1    1    2    0    0  0.11284222300E+03 -0.68825057274E+02  0.28326615787E+03  0.31258594337E+03  0.00000000000E+00 0. -1.
         11    1    1    2    0    0  0.48115388871E+02  0.10693365101E+02  0.36876498893E+02  0.61557411203E+02  0.00000000000E+00 0.  1.
<mgrwt>
<rscale>  0 0.20719292E+03</rscale>
<asrwt>0</asrwt>
<pdfrwt beam="1">  1        1 0.11511351E+00 0.21192242E+03</pdfrwt>
<pdfrwt beam="2">  1       -1 0.84604887E-02 0.21192242E+03</pdfrwt>
<totfact> 0.20072472E+03</totfact>
</mgrwt>
</event>
<event>
 7    1  0.6387485E-006  0.1961354E+03  0.7546771E-02  0.1158685E+00
          2   -1    0    0  501    0  0.00000000000E+00  0.00000000000E+00  0.25348214056E+03  0.25348214056E+03  0.00000000000E+00 0. -1.
         -2   -1    0    0    0  501 -0.00000000000E+00 -0.00000000000E+00 -0.14303784481E+03  0.14303784481E+03  0.00000000000E+00 0.  1.
         23    2    1    2    0    0  0.13965940745E+03 -0.57820614552E+02  0.76280775296E+01  0.19628370903E+03  0.12498453227E+03 0.  0.
          5    1    3    3  502    0  0.12938155045E+03 -0.63018279934E+02 -0.38058172710E+02  0.14893422613E+03  0.47000000000E+01 0. -1.
         -5    1    3    3    0  502  0.10277857001E+02  0.51976653814E+01  0.45686250240E+02  0.47349482900E+02  0.47000000000E+01 0. -1.
        -11    1    1    2    0    0 -0.48470853514E+02  0.11567117569E+02 -0.68473369677E+01  0.50300177661E+02  0.00000000000E+00 0.  1.
         11    1    1    2    0    0 -0.91188553935E+02  0.46253496983E+02  0.10966355519E+03  0.14993609869E+03  0.00000000000E+00 0. -1.
<mgrwt>
<rscale>  0 0.18975264E+03</rscale>
<asrwt>0</asrwt>
<pdfrwt beam="1">  1        2 0.38997252E-01 0.19613543E+03</pdfrwt>
<pdfrwt beam="2">  1       -2 0.22005822E-01 0.19613543E+03</pdfrwt>
<totfact> 0.23072972E+03</totfact>
</mgrwt>
</event>
<event>
 7    1  0.6387485E-006  0.1399395E+03  0.7546771E-02  0.1224750E+00
          1   -1    0    0  501    0  0.00000000000E+00  0.00000000000E+00  0.30481728473E+02  0.30481728473E+02  0.00000000000E+00 0. -1.
         -1   -1    0    0    0  501 -0.00000000000E+00 -0.00000000000E+00 -0.54101755880E+03  0.54101755880E+03  0.00000000000E+00 0.  1.
         23    2    1    2    0    0 -0.47371882682E+02  0.41410609873E+02 -0.34816598196E+03  0.37523673234E+03  0.12499648165E+03 0.  0.
          5    1    3    3  502    0 -0.10036167271E+02  0.57669487587E+02 -0.59229875442E+02  0.83407209502E+02  0.47000000000E+01 0. -1.
         -5    1    3    3    0  502 -0.37335715411E+02 -0.16258877714E+02 -0.28893610652E+03  0.29182952284E+03  0.47000000000E+01 0. -1.
        -11    1    1    2    0    0  0.46404369339E+02  0.32387751289E+01 -0.13747712391E+03  0.14513378227E+03  0.00000000000E+00 0.  1.
         11    1    1    2    0    0  0.96751334303E+00 -0.44649385002E+02 -0.24892724460E+02  0.51128772664E+02  0.00000000000E+00 0. -1.
<mgrwt>
<rscale>  0 0.13184074E+03</rscale>
<asrwt>0</asrwt>
<pdfrwt beam="1">  1        1 0.46894968E-02 0.13993947E+03</pdfrwt>
<pdfrwt beam="2">  1       -1 0.83233468E-01 0.13993947E+03</pdfrwt>
<totfact> 0.26442038E+03</totfact>
</mgrwt>
</event>
<event>
 7    1  0.6387485E-006  0.1793499E+03  0.7546771E-02  0.1174121E+00
          1   -1    0    0  501    0  0.00000000000E+00  0.00000000000E+00  0.24459929840E+03  0.24459929840E+03  0.00000000000E+00 0. -1.
         -1   -1    0    0    0  501 -0.00000000000E+00 -0.00000000000E+00 -0.15598175058E+03  0.15598175058E+03  0.00000000000E+00 0.  1.
         23    2    1    2    0    0  0.75764897654E+02  0.10392199291E+03 -0.54818657323E+02  0.18754059937E+03  0.12500516347E+03 0.  0.
          5    1    3    3  502    0  0.55957551862E+02  0.76198173040E+02 -0.95368805005E+02  0.13436780921E+03  0.47000000000E+01 0.  1.
         -5    1    3    3    0  502  0.19807345791E+02  0.27723819871E+02  0.40550147682E+02  0.53172790152E+02  0.47000000000E+01 0.  1.
        -11    1    1    2    0    0 -0.41469312109E+02 -0.92184672211E+02  0.14500250471E+03  0.17675815118E+03  0.00000000000E+00 0. -1.
         11    1    1    2    0    0 -0.34295585545E+02 -0.11737320700E+02 -0.15662995652E+01  0.36282298430E+02  0.00000000000E+00 0.  1.
<mgrwt>
<rscale>  0 0.17362379E+03</rscale>
<asrwt>0</asrwt>
<pdfrwt beam="1">  1        1 0.37630661E-01 0.17934991E+03</pdfrwt>
<pdfrwt beam="2">  1       -1 0.23997192E-01 0.17934991E+03</pdfrwt>
<totfact> 0.16741470E+03</totfact>
</mgrwt>
</event>
<event>
 7    1  0.6387485E-006  0.1522502E+03  0.7546771E-02  0.1205318E+00
          2   -1    0    0  501    0  0.00000000000E+00  0.00000000000E+00  0.48991952965E+03  0.48991952965E+03  0.00000000000E+00 0. -1.
         -2   -1    0    0    0  501 -0.00000000000E+00 -0.00000000000E+00 -0.40422617543E+02  0.40422617543E+02  0.00000000000E+00 0.  1.
         23    2    1    2    0    0 -0.79251359944E+02  0.35679058158E+02  0.24038295883E+03  0.28454188905E+03  0.12500538581E+03 0.  0.
          5    1    3    3  502    0  0.14573458999E+02 -0.13391563371E+02  0.12974506993E+03  0.13133009118E+03  0.47000000000E+01 0.  1.
         -5    1    3    3    0  502 -0.93824818943E+02  0.49070621528E+02  0.11063788890E+03  0.15321179787E+03  0.47000000000E+01 0.  1.
        -11    1    1    2    0    0  0.39541375578E+02 -0.52955768105E+02  0.18451936654E+03  0.19599803669E+03  0.00000000000E+00 0. -1.
         11    1    1    2    0    0  0.39709984367E+02  0.17276709947E+02  0.24594586734E+02  0.49802221453E+02  0.00000000000E+00 0.  1.
<mgrwt>
<rscale>  0 0.14612434E+03</rscale>
<asrwt>0</asrwt>
<pdfrwt beam="1">  1        2 0.75372231E-01 0.15225019E+03</pdfrwt>
<pdfrwt beam="2">  1       -2 0.62188646E-02 0.15225019E+03</pdfrwt>
<totfact> 0.85782508E+03</totfact>
</mgrwt>
</event>
<event>
 7    1  0.6387485E-006  0.1554762E+03  0.7546771E-02  0.1202212E+00
          2   -1    0    0  501    0  0.00000000000E+00  0.00000000000E+00  0.40195548905E+03  0.40195548905E+03  0.00000000000E+00 0. -1.
         -2   -1    0    0    0  501 -0.00000000000E+00 -0.00000000000E+00 -0.52610843857E+02  0.52610843857E+02  0.00000000000E+00 0.  1.
         23    2    1    2    0    0  0.16276256450E+02 -0.90999495566E+02  0.14545283223E+03  0.21290695126E+03  0.12500807483E+03 0.  0.
          5    1    3    3  502    0 -0.12802871262E+02 -0.30208590900E+02 -0.16796044894E+02  0.37157362673E+02  0.47000000000E+01 0. -1.
         -5    1    3    3    0  502  0.29079127712E+02 -0.60790904666E+02  0.16224887713E+03  0.17574958858E+03  0.47000000000E+01 0. -1.
        -11    1    1    2    0    0  0.18143217554E+02  0.50291330383E+02  0.33427581311E+02  0.63053924915E+02  0.00000000000E+00 0.  1.
         11    1    1    2    0    0 -0.34419474005E+02  0.40708165183E+02  0.17046423165E+03  0.17860545673E+03  0.00000000000E+00 0. -1.
<mgrwt>
<rscale>  0 0.14859356E+03</rscale>
<asrwt>0</asrwt>
<pdfrwt beam="1">  1        2 0.61839304E-01 0.15547618E+03</pdfrwt>
<pdfrwt beam="2">  1       -2 0.80939762E-02 0.15547618E+03</pdfrwt>
<totfact> 0.71017650E+03</totfact>
</mgrwt>
</event>
<event>
 7    1  0.6387485E-006  0.1431105E+03  0.7546771E-02  0.1219857E+00
         -1   -1    0    0    0  501 -0.00000000000E+00  0.00000000000E+00  0.14949634022E+04  0.14949634022E+04  0.00000000000E+00 0.  1.
          1   -1    0    0  501    0  0.00000000000E+00 -0.00000000000E+00 -0.13009236764E+02  0.13009236764E+02  0.00000000000E+00 0. -1.
         23    2    1    2    0    0 -0.23733061311E+02 -0.65332772933E+02  0.11013136832E+04  0.11105730228E+04  0.12509588562E+03 0.  0.
          5    1    3    3  502    0  0.29575802757E+02  0.19982389942E+02  0.16636448902E+03  0.17021532605E+03  0.47000000000E+01 0. -1.
         -5    1    3    3    0  502 -0.53308864069E+02 -0.85315162875E+02  0.93494919420E+03  0.94035769670E+03  0.47000000000E+01 0. -1.
        -11    1    1    2    0    0 -0.33849723172E+02  0.25373954418E+02  0.11068832495E+03  0.11849703204E+03  0.00000000000E+00 0. -1.
         11    1    1    2    0    0  0.57582784483E+02  0.39958818515E+02  0.26995215721E+03  0.27890258412E+03  0.00000000000E+00 0.  1.
<mgrwt>
<rscale>  0 0.13525716E+03</rscale>
<asrwt>0</asrwt>
<pdfrwt beam="2">  1        1 0.20014222E-02 0.14311048E+03</pdfrwt>
<pdfrwt beam="1">  1       -1 0.22999423E+00 0.14311048E+03</pdfrwt>
<totfact> 0.63596815E+02</totfact>
</mgrwt>
</event>
<event>
 7    1  0.6387485E-006  0.1294673E+03  0.7546771E-02  0.1243330E+00
          2   -1    0    0  501    0  0.00000000000E+00  0.00000000000E+00  0.30097158635E+03  0.30097158635E+03  0.00000000000E+00 0. -1.
         -2   -1    0    0    0  501 -0.00000000000E+00 -0.00000000000E+00 -0.41963112420E+02  0.41963112420E+02  0.00000000000E+00 0.  1.
         23    2    1    2    0    0 -0.33594799163E+02  0.30676260968E+01  0.14227500477E+03  0.19236415981E+03  0.12499508845E+03 0.  0.
          5    1    3    3  502    0 -0.41055036334E+02  0.58977583020E+02  0.90493204851E+02  0.11565025478E+03  0.47000000000E+01 0. -1.
         -5    1    3    3    0  502  0.74602371706E+01 -0.55909956924E+02  0.51781799914E+02  0.76713905025E+02  0.47000000000E+01 0. -1.
        -11    1    1    2    0    0  0.37417767154E+02  0.14472161988E+02  0.86944722451E+01  0.41050293775E+02  0.00000000000E+00 0.  1.
         11    1    1    2    0    0 -0.38229679905E+01 -0.17539788085E+02  0.10803899692E+03  0.10952024518E+03  0.00000000000E+00 0. -1.
<mgrwt>
<rscale>  0 0.11985881E+03</rscale>
<asrwt>0</asrwt>
<pdfrwt beam="1">  1        2 0.46303320E-01 0.12946734E+03</pdfrwt>
<pdfrwt beam="2">  1       -2 0.64558636E-02 0.12946734E+03</pdfrwt>
<totfact> 0.13496453E+04</totfact>
</mgrwt>
</event>
<event>
 7    1  0.6387485E-006  0.1425169E+03  0.7546771E-02  0.1221338E+00
         -1   -1    0    0    0  501 -0.00000000000E+00  0.00000000000E+00  0.60862467900E+02  0.60862467900E+02  0.00000000000E+00 0.  1.
          1   -1    0    0  501    0  0.00000000000E+00 -0.00000000000E+00 -0.26999582084E+03  0.26999582084E+03  0.00000000000E+00 0. -1.
         23    2    1    2    0    0 -0.30765001999E+02  0.61153152688E+02 -0.97586095869E+02  0.17272557648E+03  0.12499954092E+03 0.  0.
          5    1    3    3  502    0  0.54272871951E+01  0.33614268595E+02  0.24598106497E+02  0.42267379180E+02  0.47000000000E+01 0.  1.
         -5    1    3    3    0  502 -0.36192289194E+02  0.27538884092E+02 -0.12218420237E+03  0.13045819730E+03  0.47000000000E+01 0.  1.
        -11    1    1    2    0    0  0.46253537008E+02 -0.48031067516E+02 -0.28285989602E+02  0.72432522669E+02  0.00000000000E+00 0.  1.
         11    1    1    2    0    0 -0.15488535008E+02 -0.13122085171E+02 -0.83261267470E+02  0.85700189595E+02  0.00000000000E+00 0. -1.
<mgrwt>
<rscale>  0 0.13421073E+03</rscale>
<asrwt>0</asrwt>
<pdfrwt beam="2">  1        1 0.41537819E-01 0.14251694E+03</pdfrwt>
<pdfrwt beam="1">  1       -1 0.93634564E-02 0.14251694E+03</pdfrwt>
<totfact> 0.64657731E+03</totfact>
</mgrwt>
</event>
<event>
 7    1  0.6387485E-006  0.1510341E+03  0.7546771E-02  0.1208363E+00
          4   -1    0    0  501    0  0.00000000000E+00  0.00000000000E+00  0.34767735691E+03  0.34767735691E+03  0.00000000000E+00 0. -1.
         -4   -1    0    0    0  501 -0.00000000000E+00 -0.00000000000E+00 -0.57242408563E+02  0.57242408563E+02  0.00000000000E+00 0.  1.
         23    2    1    2    0    0 -0.52568939183E+02 -0.66512783649E+02  0.11370316341E+03  0.18904947728E+03  0.12499540686E+03 0.  0.
          5    1    3    3  502    0  0.15861078282E+02 -0.79516423672E+02  0.61643388656E+02  0.10196289915E+03  0.47000000000E+01 0. -1.
         -5    1    3    3    0  502 -0.68430017465E+02  0.13003640022E+02  0.52059774752E+02  0.87086578135E+02  0.47000000000E+01 0. -1.
        -11    1    1    2    0    0  0.32843488862E+02  0.21760482614E+02  0.80111573195E+01  0.40204377943E+02  0.00000000000E+00 0.  1.
         11    1    1    2    0    0  0.19725450321E+02  0.44752301035E+02  0.16872062762E+03  0.17566591024E+03  0.00000000000E+00 0. -1.
<mgrwt>
<rscale>  0 0.14375595E+03</rscale>
<asrwt>0</asrwt>
<pdfrwt beam="1">  1        4 0.53488823E-01 0.15103409E+03</pdfrwt>
<pdfrwt beam="2">  1       -4 0.88065246E-02 0.15103409E+03</pdfrwt>
<totfact> 0.53737433E+02</totfact>
</mgrwt>
</event>
<event>
 7    1  0.6387485E-006  0.1586316E+03  0.7546771E-02  0.1201255E+00
          2   -1    0    0  501    0  0.00000000000E+00  0.00000000000E+00  0.54641684676E+03  0.54641684676E+03  0.00000000000E+00 0. -1.
         -2   -1    0    0    0  501 -0.00000000000E+00 -0.00000000000E+00 -0.37987955675E+02  0.37987955675E+02  0.00000000000E+00 0.  1.
         23    2    1    2    0    0  0.65101271880E+02  0.72806469044E+02  0.23076859243E+03  0.28003239497E+03  0.12500016578E+03 0.  0.
          5    1    3    3  502    0  0.93040962818E+02  0.86279536824E+02  0.17812609618E+03  0.21875048658E+03  0.47000000000E+01 0.  1.
         -5    1    3    3    0  502 -0.27939690938E+02 -0.13473067780E+02  0.52642496252E+02  0.61281908397E+02  0.47000000000E+01 0.  1.
        -11    1    1    2    0    0 -0.32193833007E+02 -0.80987349286E+02  0.22934174525E+03  0.24534267819E+03  0.00000000000E+00 0. -1.
         11    1    1    2    0    0 -0.32907438873E+02  0.81808802422E+01  0.48318553404E+02  0.59029729271E+02  0.00000000000E+00 0.  1.
<mgrwt>
<rscale>  0 0.14936516E+03</rscale>
<asrwt>0</asrwt>
<pdfrwt beam="1">  1        2 0.84064124E-01 0.15863165E+03</pdfrwt>
<pdfrwt beam="2">  1       -2 0.58443013E-02 0.15863165E+03</pdfrwt>
<totfact> 0.83739775E+03</totfact>
</mgrwt>
</event>
<event>
 7    1  0.6387485E-006  0.1258470E+03  0.7546771E-02  0.1241900E+00
          1   -1    0    0  501    0  0.00000000000E+00  0.00000000000E+00  0.21062026463E+03  0.21062026463E+03  0.00000000000E+00 0. -1.
         -1   -1    0    0    0  501 -0.00000000000E+00 -0.00000000000E+00 -0.15929657302E+03  0.15929657302E+03  0.00000000000E+00 0.  1.
         23    2    1    2    0    0  0.40635673134E+02 -0.36704032782E+02 -0.11624596104E+03  0.17132015005E+03  0.11330942768E+03 0.  0.
          5    1    3    3  502    0  0.89068568758E+00  0.37222934044E+02 -0.16841006808E+02  0.41134531116E+02  0.47000000000E+01 0. -1.
         -5    1    3    3    0  502  0.39744987447E+02 -0.73926966826E+02 -0.99404954229E+02  0.13018561893E+03  0.47000000000E+01 0.  1.
        -11    1    1    2    0    0 -0.15647330897E+02 -0.28548800335E+02  0.29866854625E+02  0.44180334652E+02  0.00000000000E+00 0.  1.
         11    1    1    2    0    0 -0.24988342237E+02  0.65252833117E+02  0.13770279802E+03  0.15441635296E+03  0.00000000000E+00 0. -1.
<mgrwt>
<rscale>  0 0.12072842E+03</rscale>
<asrwt>0</asrwt>
<pdfrwt beam="1">  1        1 0.32403118E-01 0.12584701E+03</pdfrwt>
<pdfrwt beam="2">  1       -1 0.24507165E-01 0.12584701E+03</pdfrwt>
<totfact> 0.19260187E+03</totfact>
</mgrwt>
</event>
<event>
 7    1  0.6387485E-006  0.1449371E+03  0.7546771E-02  0.1216857E+00
         -1   -1    0    0    0  501 -0.00000000000E+00  0.00000000000E+00  0.11223804460E+04  0.11223804460E+04  0.00000000000E+00 0.  1.
          1   -1    0    0  501    0  0.00000000000E+00 -0.00000000000E+00 -0.16628407955E+02  0.16628407955E+02  0.00000000000E+00 0. -1.
         23    2    1    2    0    0 -0.50027878411E+02  0.53655364773E+02  0.76742124807E+03  0.78098792213E+03  0.12500030299E+03 0.  0.
          5    1    3    3  502    0 -0.77680888725E+02  0.46298748036E+01  0.58072698861E+03  0.58593658489E+03  0.47000000000E+01 0. -1.
         -5    1    3    3    0  502  0.27653010314E+02  0.49025489970E+02  0.18669425946E+03  0.19505133725E+03  0.47000000000E+01 0. -1.
        -11    1    1    2    0    0 -0.18150225878E+01 -0.45938930559E+02  0.25826217879E+03  0.26232238304E+03  0.00000000000E+00 0.  1.
         11    1    1    2    0    0  0.51842900998E+02 -0.77164342141E+01  0.80068611146E+02  0.95698548745E+02  0.00000000000E+00 0. -1.
<mgrwt>
<rscale>  0 0.13741032E+03</rscale>
<asrwt>0</asrwt>
<pdfrwt beam="2">  1        1 0.25582175E-02 0.14493710E+03</pdfrwt>
<pdfrwt beam="1">  1       -1 0.17267386E+00 0.14493710E+03</pdfrwt>
<totfact> 0.10798745E+03</totfact>
</mgrwt>
</event>
<event>
 6    1  0.6387485E-006  0.2049261E+03  0.7546771E-02  0.1169927E+00
         -2   -1    0    0    0  501 -0.00000000000E+00  0.00000000000E+00  0.52974550647E+03  0.52974550647E+03  0.00000000000E+00 0.  1.
          2   -1    0    0  501    0  0.00000000000E+00 -0.00000000000E+00 -0.51665647970E+02  0.51665647970E+02  0.00000000000E+00 0. -1.
          5    1    1    2  502    0 -0.11291044082E+02  0.43386408745E+02 -0.47590320735E+01  0.45327767721E+02  0.47000000000E+01 0. -1.
         -5    1    1    2    0  502  0.43241388807E+02  0.19423406271E+02  0.37354470461E+03  0.37656981127E+03  0.47000000000E+01 0.  1.
        -11    1    1    2    0    0 -0.25280338151E+02 -0.54547763358E+02  0.12606307264E+03  0.13966550135E+03  0.00000000000E+00 0. -1.
         11    1    1    2    0    0 -0.66700065753E+01 -0.82620516591E+01 -0.16768886673E+02  0.19848074102E+02  0.00000000000E+00 0.  1.
<mgrwt>
<rscale>  0 0.17782264E+03</rscale>
<asrwt>0</asrwt>
<pdfrwt beam="2">  1        2 0.79485616E-02 0.20492607E+03</pdfrwt>
<pdfrwt beam="1">  1       -2 0.81499305E-01 0.20492607E+03</pdfrwt>
<totfact> 0.11588677E+03</totfact>
</mgrwt>
</event>
<event>
 7    1  0.6387485E-006  0.1272620E+03  0.7546771E-02  0.1246395E+00
         -1   -1    0    0    0  501 -0.00000000000E+00  0.00000000000E+00  0.37768659719E+02  0.37768659719E+02  0.00000000000E+00 0.  1.
          1   -1    0    0  501    0  0.00000000000E+00 -0.00000000000E+00 -0.33094643214E+03  0.33094643214E+03  0.00000000000E+00 0. -1.
         23    2    1    2    0    0 -0.92432330942E+01  0.22030512949E+02 -0.14257555616E+03  0.19111100336E+03  0.12499938213E+03 0.  0.
          5    1    3    3  502    0 -0.35590364670E+02  0.20083999280E+02 -0.15584011345E+03  0.16117776535E+03  0.47000000000E+01 0.  1.
         -5    1    3    3    0  502  0.26347131576E+02  0.19465136695E+01  0.13264557286E+02  0.29933238010E+02  0.47000000000E+01 0.  1.
        -11    1    1    2    0    0  0.38221828215E+02 -0.34959249977E+02 -0.49530247226E+02  0.71668003330E+02  0.00000000000E+00 0.  1.
         11    1    1    2    0    0 -0.28978595121E+02  0.12928737028E+02 -0.10107196903E+03  0.10593608516E+03  0.00000000000E+00 0. -1.
<mgrwt>
<rscale>  0 0.11802303E+03</rscale>
<asrwt>0</asrwt>
<pdfrwt beam="2">  1        1 0.50914834E-01 0.12726204E+03</pdfrwt>
<pdfrwt beam="1">  1       -1 0.58105632E-02 0.12726204E+03</pdfrwt>
<totfact> 0.10213821E+04</totfact>
</mgrwt>
</event>
<event>
 7    1  0.6387485E-006  0.1719545E+03  0.7546771E-02  0.1182374E+00
         -1   -1    0    0    0  501 -0.00000000000E+00  0.00000000000E+00  0.34677308464E+02  0.34677308464E+02  0.00000000000E+00 0.  1.
          1   -1    0    0  501    0  0.00000000000E+00 -0.00000000000E+00 -0.90880887304E+03  0.90880887304E+03  0.00000000000E+00 0. -1.
         23    2    1    2    0    0  0.66039569426E+02 -0.97898024104E+02 -0.26025411283E+03  0.31193036577E+03  0.12499240775E+03 0.  0.
          5    1    3    3  502    0  0.70143446888E+02 -0.21861379958E+02 -0.20475119909E+03  0.21758484920E+03  0.47000000000E+01 0.  1.
         -5    1    3    3    0  502 -0.41038774617E+01 -0.76036644146E+02 -0.55502913742E+02  0.94345516571E+02  0.47000000000E+01 0.  1.
        -11    1    1    2    0    0 -0.78224614898E+02  0.10322944192E+03 -0.59158274743E+03  0.60559520731E+03  0.00000000000E+00 0. -1.
         11    1    1    2    0    0  0.12185045471E+02 -0.53314178211E+01 -0.22294704313E+02  0.25960608420E+02  0.00000000000E+00 0.  1.
<mgrwt>
<rscale>  0 0.16573166E+03</rscale>
<asrwt>0</asrwt>
<pdfrwt beam="2">  1        1 0.13981672E+00 0.17195450E+03</pdfrwt>
<pdfrwt beam="1">  1       -1 0.53349717E-02 0.17195450E+03</pdfrwt>
<totfact> 0.29676382E+03</totfact>
</mgrwt>
</event>
<event>
 7    1  0.6387485E-006  0.1515536E+03  0.7546771E-02  0.1206810E+00
         -1   -1    0    0    0  501 -0.00000000000E+00  0.00000000000E+00  0.19853018152E+03  0.19853018152E+03  0.00000000000E+00 0.  1.
          1   -1    0    0  501    0  0.00000000000E+00 -0.00000000000E+00 -0.10487598155E+03  0.10487598155E+03  0.00000000000E+00 0. -1.
         23    2    1    2    0    0  0.85620791828E+02  0.30377881352E+01  0.90516486954E+02  0.17652686709E+03  0.12501340826E+03 0.  0.
          5    1    3    3  502    0  0.96837319179E+02 -0.41444656514E+02  0.62772453936E+02  0.12270940026E+03  0.47000000000E+01 0. -1.
         -5    1    3    3    0  502 -0.11216527351E+02  0.44482444649E+02  0.27744033018E+02  0.53817466829E+02  0.47000000000E+01 0. -1.
        -11    1    1    2    0    0 -0.39312565409E+02 -0.25347647708E+02 -0.38615655281E+02  0.60655996209E+02  0.00000000000E+00 0. -1.
         11    1    1    2    0    0 -0.46308226420E+02  0.22309859573E+02  0.41753368294E+02  0.66223299768E+02  0.00000000000E+00 0.  1.
<mgrwt>
<rscale>  0 0.14495701E+03</rscale>
<asrwt>0</asrwt>
<pdfrwt beam="2">  1        1 0.16134766E-01 0.15155362E+03</pdfrwt>
<pdfrwt beam="1">  1       -1 0.30543105E-01 0.15155362E+03</pdfrwt>
<totfact> 0.32488975E+03</totfact>
</mgrwt>
</event>
<event>
 7    1  0.6387485E-006  0.1210341E+03  0.7546771E-02  0.1256778E+00
         -1   -1    0    0    0  501 -0.00000000000E+00  0.00000000000E+00  0.58133451911E+02  0.58133451911E+02  0.00000000000E+00 0.  1.
          1   -1    0    0  501    0  0.00000000000E+00 -0.00000000000E+00 -0.29017434931E+03  0.29017434931E+03  0.00000000000E+00 0. -1.
         23    2    1    2    0    0 -0.12802951222E+02 -0.19503287391E+02 -0.25886712929E+02  0.12377145875E+03  0.11876429732E+03 0.  0.
          5    1    3    3  502    0  0.30640299569E+02  0.91196665240E+01 -0.55133468730E+02  0.63904504140E+02  0.47000000000E+01 0. -1.
         -5    1    3    3    0  502 -0.43443250790E+02 -0.28622953915E+02  0.29246755801E+02  0.59866954615E+02  0.47000000000E+01 0.  1.
        -11    1    1    2    0    0 -0.33427638886E+02  0.11146639417E+02 -0.13305754549E+03  0.13764434251E+03  0.00000000000E+00 0. -1.
         11    1    1    2    0    0  0.46230590107E+02  0.83566479742E+01 -0.73096638974E+02  0.86891999956E+02  0.00000000000E+00 0.  1.
<mgrwt>
<rscale>  0 0.11207301E+03</rscale>
<asrwt>0</asrwt>
<pdfrwt beam="2">  1        1 0.44642207E-01 0.12103409E+03</pdfrwt>
<pdfrwt beam="1">  1       -1 0.89436080E-02 0.12103409E+03</pdfrwt>
<totfact> 0.62747376E+03</totfact>
</mgrwt>
</event>
<event>
 7    1  0.6387485E-006  0.1429800E+03  0.7546771E-02  0.1215806E+00
         -2   -1    0    0    0  501 -0.00000000000E+00  0.00000000000E+00  0.38699726804E+02  0.38699726804E+02  0.00000000000E+00 0.  1.
          2   -1    0    0  501    0  0.00000000000E+00 -0.00000000000E+00 -0.46314823160E+03  0.46314823160E+03  0.00000000000E+00 0. -1.
         23    2    1    2    0    0 -0.79622524912E+02 -0.26760916618E+02 -0.22091842434E+03  0.26315056405E+03  0.11570382888E+03 0.  0.
          5    1    3    3  502    0 -0.95591423977E+02 -0.51991509866E+02 -0.19489554480E+03  0.22326486696E+03  0.47000000000E+01 0. -1.
         -5    1    3    3    0  502  0.15968899065E+02  0.25230593249E+02 -0.26022879538E+02  0.39885697091E+02  0.47000000000E+01 0.  1.
        -11    1    1    2    0    0  0.97785674143E+02  0.75151997220E+01 -0.16522648155E+03  0.19214137113E+03  0.00000000000E+00 0.  1.
         11    1    1    2    0    0 -0.18163149231E+02  0.19245716896E+02 -0.38303598910E+02  0.46556023222E+02  0.00000000000E+00 0. -1.
<mgrwt>
<rscale>  0 0.13817501E+03</rscale>
<asrwt>0</asrwt>
<pdfrwt beam="2">  1        2 0.71253577E-01 0.14297996E+03</pdfrwt>
<pdfrwt beam="1">  1       -2 0.59538039E-02 0.14297996E+03</pdfrwt>
<totfact> 0.97065437E+03</totfact>
</mgrwt>
</event>
<event>
 7    1  0.6387485E-006  0.2226775E+03  0.7546771E-02  0.1133144E+00
         -2   -1    0    0    0  501 -0.00000000000E+00  0.00000000000E+00  0.13933227414E+03  0.13933227414E+03  0.00000000000E+00 0.  1.
          2   -1    0    0  501    0  0.00000000000E+00 -0.00000000000E+00 -0.48380455019E+03  0.48380455019E+03  0.00000000000E+00 0. -1.
         23    2    1    2    0    0 -0.17278036956E+03 -0.60156246722E+02 -0.36884022353E+01  0.21605095965E+03  0.11485896887E+03 0.  0.
          5    1    3    3  502    0 -0.89043722942E+02 -0.53624772756E+02 -0.54819647414E+02  0.11760818250E+03  0.47000000000E+01 0. -1.
         -5    1    3    3    0  502 -0.83736646623E+02 -0.65314739658E+01  0.51131245179E+02  0.98442777151E+02  0.47000000000E+01 0.  1.
        -11    1    1    2    0    0  0.54717158343E+02 -0.32030474876E+02 -0.16126967930E+03  0.17328539523E+03  0.00000000000E+00 0.  1.
         11    1    1    2    0    0  0.11806321122E+03  0.92186721597E+02 -0.17951419452E+03  0.23380046945E+03  0.00000000000E+00 0. -1.
<mgrwt>
<rscale>  0 0.22099397E+03</rscale>
<asrwt>0</asrwt>
<pdfrwt beam="2">  1        2 0.74431469E-01 0.22267746E+03</pdfrwt>
<pdfrwt beam="1">  1       -2 0.21435735E-01 0.22267746E+03</pdfrwt>
<totfact> 0.12027095E+03</totfact>
</mgrwt>
</event>
<event>
 7    1  0.6387485E-006  0.1269602E+03  0.7546771E-02  0.1248000E+00
         -2   -1    0    0    0  501 -0.00000000000E+00  0.00000000000E+00  0.44786330065E+02  0.44786330065E+02  0.00000000000E+00 0.  1.
          2   -1    0    0  501    0  0.00000000000E+00 -0.00000000000E+00 -0.26906783072E+03  0.26906783072E+03  0.00000000000E+00 0. -1.
         23    2    1    2    0    0 -0.16047137265E+02  0.15410338841E+02 -0.11694836473E+03  0.17261463769E+03  0.12499561581E+03 0.  0.
          5    1    3    3  502    0 -0.22187161554E+02  0.39926688820E+02 -0.13407829263E+03  0.14172328381E+03  0.47000000000E+01 0.  1.
         -5    1    3    3    0  502  0.61400242885E+01 -0.24516349980E+02  0.17129927900E+02  0.30891353878E+02  0.47000000000E+01 0.  1.
        -11    1    1    2    0    0  0.16229982209E+02  0.18238869211E+02  0.41713198602E+01  0.24768297923E+02  0.00000000000E+00 0.  1.
         11    1    1    2    0    0 -0.18284494356E+00 -0.33649208052E+02 -0.11150445578E+03  0.11647122517E+03  0.00000000000E+00 0. -1.
<mgrwt>
<rscale>  0 0.11707592E+03</rscale>
<asrwt>0</asrwt>
<pdfrwt beam="2">  1        2 0.41395052E-01 0.12696020E+03</pdfrwt>
<pdfrwt beam="1">  1       -2 0.68902045E-02 0.12696020E+03</pdfrwt>
<totfact> 0.13736811E+04</totfact>
</mgrwt>
</event>
<event>
 7    1  0.6387485E-006  0.1346323E+03  0.7546771E-02  0.1233380E+00
          2   -1    0    0  501    0  0.00000000000E+00  0.00000000000E+00  0.13036921606E+03  0.13036921606E+03  0.00000000000E+00 0. -1.
         -2   -1    0    0    0  501 -0.00000000000E+00 -0.00000000000E+00 -0.11209290907E+03  0.11209290907E+03  0.00000000000E+00 0.  1.
         23    2    1    2    0    0 -0.30867566816E+02  0.39305554349E+02 -0.10291703765E+02  0.13502510774E+03  0.12501250845E+03 0.  0.
          5    1    3    3  502    0  0.17049021228E+02  0.39689880799E+01  0.48160524096E+02  0.51458216763E+02  0.47000000000E+01 0. -1.
         -5    1    3    3    0  502 -0.47916588044E+02  0.35336566269E+02 -0.58452227862E+02  0.83566890976E+02  0.47000000000E+01 0. -1.
        -11    1    1    2    0    0  0.55394018974E+02 -0.16002584448E+01  0.28804401785E+02  0.62455998330E+02  0.00000000000E+00 0. -1.
         11    1    1    2    0    0 -0.24526452158E+02 -0.37705295904E+02 -0.23639102731E+00  0.44981019057E+02  0.00000000000E+00 0.  1.
<mgrwt>
<rscale>  0 0.12608681E+03</rscale>
<asrwt>0</asrwt>
<pdfrwt beam="1">  1        2 0.20056802E-01 0.13463232E+03</pdfrwt>
<pdfrwt beam="2">  1       -2 0.17245063E-01 0.13463232E+03</pdfrwt>
<totfact> 0.70955273E+03</totfact>
</mgrwt>
</event>
<event>
 7    1  0.6387485E-006  0.2012243E+03  0.7546771E-02  0.1152757E+00
          2   -1    0    0  501    0  0.00000000000E+00  0.00000000000E+00  0.13770866756E+03  0.13770866756E+03  0.00000000000E+00 0.  1.
         -2   -1    0    0    0  501 -0.00000000000E+00 -0.00000000000E+00 -0.26991259709E+03  0.26991259709E+03  0.00000000000E+00 0. -1.
         23    2    1    2    0    0  0.15755679861E+03  0.64178021336E+01 -0.87261246091E+02  0.21933026192E+03  0.12500362295E+03 0.  0.
          5    1    3    3  502    0  0.12414742527E+03  0.55228783197E+02 -0.84188894361E+02  0.15991454477E+03  0.47000000000E+01 0. -1.
         -5    1    3    3    0  502  0.33409373346E+02 -0.48810981063E+02 -0.30723517297E+01  0.59415717153E+02  0.47000000000E+01 0. -1.
        -11    1    1    2    0    0 -0.11368721029E+03  0.38465458250E+02 -0.31955505949E+02  0.12419954759E+03  0.00000000000E+00 0. -1.
         11    1    1    2    0    0 -0.43869588329E+02 -0.44883260384E+02 -0.12987177491E+02  0.64091455141E+02  0.00000000000E+00 0.  1.
<mgrwt>
<rscale>  0 0.19646418E+03</rscale>
<asrwt>0</asrwt>
<pdfrwt beam="1">  1        2 0.21185949E-01 0.20122435E+03</pdfrwt>
<pdfrwt beam="2">  1       -2 0.41525015E-01 0.20122435E+03</pdfrwt>
<totfact> 0.14262699E+03</totfact>
</mgrwt>
</event>
<event>
 7    1  0.6387485E-006  0.1305766E+03  0.7546771E-02  0.1240112E+00
         -1   -1    0    0    0  501 -0.00000000000E+00  0.00000000000E+00  0.13574913808E+03  0.13574913808E+03  0.00000000000E+00 0.  1.
          1   -1    0    0  501    0  0.00000000000E+00 -0.00000000000E+00 -0.11275737275E+03  0.11275737275E+03  0.00000000000E+00 0. -1.
         23    2    1    2    0    0 -0.11097506407E+02  0.36085828137E+02  0.58903335050E+02  0.14324749288E+03  0.12499959879E+03 0.  0.
          5    1    3    3  502    0 -0.50895597941E+02  0.52477586107E+01 -0.15157942031E+02  0.53570085559E+02  0.47000000000E+01 0.  1.
         -5    1    3    3    0  502  0.39798091534E+02  0.30838069527E+02  0.74061277081E+02  0.89677407326E+02  0.47000000000E+01 0.  1.
        -11    1    1    2    0    0  0.29677171087E+02 -0.13688733382E+02  0.22719672636E+02  0.39803259038E+02  0.00000000000E+00 0.  1.
         11    1    1    2    0    0 -0.18579664680E+02 -0.22397094755E+02 -0.58631242364E+02  0.65455758909E+02  0.00000000000E+00 0. -1.
<mgrwt>
<rscale>  0 0.12182763E+03</rscale>
<asrwt>0</asrwt>
<pdfrwt beam="2">  1        1 0.17347288E-01 0.13057657E+03</pdfrwt>
<pdfrwt beam="1">  1       -1 0.20884483E-01 0.13057657E+03</pdfrwt>
<totfact> 0.54882624E+03</totfact>
</mgrwt>
</event>
<event>
 7    1  0.6387485E-006  0.1337416E+03  0.7546771E-02  0.1233925E+00
         -3   -1    0    0    0  501 -0.00000000000E+00  0.00000000000E+00  0.10513549485E+03  0.10513549485E+03  0.00000000000E+00 0.  1.
          3   -1    0    0  501    0  0.00000000000E+00 -0.00000000000E+00 -0.13502016804E+03  0.13502016804E+03  0.00000000000E+00 0. -1.
         23    2    1    2    0    0 -0.40888472760E+02  0.24562423039E+02 -0.19640131048E+02  0.13517600965E+03  0.12494654460E+03 0.  0.
          5    1    3    3  502    0  0.31915315440E+02 -0.87281986509E+01  0.26505869029E+02  0.42654658647E+02  0.47000000000E+01 0. -1.
         -5    1    3    3    0  502 -0.72803788200E+02  0.33290621690E+02 -0.46146000077E+02  0.92521351006E+02  0.47000000000E+01 0. -1.
        -11    1    1    2    0    0  0.39333474407E+02  0.29808567871E+02  0.13219714808E+01  0.49370239376E+02  0.00000000000E+00 0.  1.
         11    1    1    2    0    0  0.15549983531E+01 -0.54370990910E+02 -0.11566513618E+02  0.55609413858E+02  0.00000000000E+00 0. -1.
<mgrwt>
<rscale>  0 0.12573516E+03</rscale>
<asrwt>0</asrwt>
<pdfrwt beam="2">  1        3 0.20772334E-01 0.13374161E+03</pdfrwt>
<pdfrwt beam="1">  1       -3 0.16174691E-01 0.13374161E+03</pdfrwt>
<totfact> 0.15661532E+03</totfact>
</mgrwt>
</event>
<event>
 7    1  0.6387485E-006  0.1171731E+03  0.7546771E-02  0.1257678E+00
         -2   -1    0    0    0  501 -0.00000000000E+00  0.00000000000E+00  0.97073066137E+03  0.97073066137E+03  0.00000000000E+00 0.  1.
          2   -1    0    0  501    0  0.00000000000E+00 -0.00000000000E+00 -0.14328183730E+02  0.14328183730E+02  0.00000000000E+00 0. -1.
         23    2    1    2    0    0 -0.99271417976E+00 -0.36569013778E+02  0.72492717217E+03  0.73433571331E+03  0.11131602149E+03 0.  0.
          5    1    3    3  502    0 -0.45075747482E+02  0.16306967274E+02  0.30181534076E+03  0.30563430781E+03  0.47000000000E+01 0. -1.
         -5    1    3    3    0  502  0.44083033302E+02 -0.52875981052E+02  0.42311183142E+03  0.42870140550E+03  0.47000000000E+01 0.  1.
        -11    1    1    2    0    0 -0.95319296119E+01  0.47578630877E+02  0.23040000298E+03  0.23545433776E+03  0.00000000000E+00 0. -1.
         11    1    1    2    0    0  0.10524643792E+02 -0.11009617099E+02  0.10753024902E+01  0.15268794028E+02  0.00000000000E+00 0.  1.
<mgrwt>
<rscale>  0 0.11157628E+03</rscale>
<asrwt>0</asrwt>
<pdfrwt beam="2">  1        2 0.22043367E-02 0.11717310E+03</pdfrwt>
<pdfrwt beam="1">  1       -2 0.14934313E+00 0.11717310E+03</pdfrwt>
<totfact> 0.14614789E+03</totfact>
</mgrwt>
</event>
<event>
 7    1  0.6387485E-006  0.1528681E+03  0.7546771E-02  0.1205861E+00
          4   -1    0    0  501    0  0.00000000000E+00  0.00000000000E+00  0.33315986264E+02  0.33315986264E+02  0.00000000000E+00 0. -1.
         -4   -1    0    0    0  501 -0.00000000000E+00 -0.00000000000E+00 -0.66371609945E+03  0.66371609945E+03  0.00000000000E+00 0.  1.
         23    2    1    2    0    0 -0.87169591536E+02  0.12124081410E+02 -0.46194764501E+03  0.48658429019E+03  0.12499245455E+03 0.  0.
          5    1    3    3  502    0 -0.19508735054E+02  0.63291750837E+02 -0.16933013779E+03  0.18188244014E+03  0.47000000000E+01 0.  1.
         -5    1    3    3    0  502 -0.67660856482E+02 -0.51167669427E+02 -0.29261750722E+03  0.30470185005E+03  0.47000000000E+01 0.  1.
        -11    1    1    2    0    0  0.10075413550E+03 -0.15774543107E+02 -0.16780822375E+03  0.19636657554E+03  0.00000000000E+00 0.  1.
         11    1    1    2    0    0 -0.13584543962E+02  0.36504616970E+01 -0.64424442395E+00  0.14081219981E+02  0.00000000000E+00 0. -1.
<mgrwt>
<rscale>  0 0.14569791E+03</rscale>
<asrwt>0</asrwt>
<pdfrwt beam="1">  1        4 0.51255366E-02 0.15286806E+03</pdfrwt>
<pdfrwt beam="2">  1       -4 0.10211016E+00 0.15286806E+03</pdfrwt>
<totfact> 0.31826636E+02</totfact>
</mgrwt>
</event>
<event>
 7    1  0.6387485E-006  0.1258587E+03  0.7546771E-02  0.1248950E+00
         -4   -1    0    0    0  501 -0.00000000000E+00  0.00000000000E+00  0.11571991823E+04  0.11571991823E+04  0.00000000000E+00 0.  1.
          4   -1    0    0  501    0  0.00000000000E+00 -0.00000000000E+00 -0.12666406506E+02  0.12666406506E+02  0.00000000000E+00 0. -1.
         23    2    1    2    0    0  0.12592315716E+02 -0.75180555521E+01  0.89399904065E+03  0.90281487704E+03  0.12500131977E+03 0.  0.
          5    1    3    3  502    0  0.49321437724E+02 -0.26888228559E+02  0.76801403739E+03  0.77008001707E+03  0.47000000000E+01 0.  1.
         -5    1    3    3    0  502 -0.36729122008E+02  0.19370173007E+02  0.12598500325E+03  0.13273485997E+03  0.47000000000E+01 0.  1.
        -11    1    1    2    0    0 -0.17849670174E+01  0.37391969635E+02  0.21939664315E+03  0.22256736626E+03  0.00000000000E+00 0.  1.
         11    1    1    2    0    0 -0.10807348699E+02 -0.29873914082E+02  0.31137091962E+02  0.44483345471E+02  0.00000000000E+00 0. -1.
<mgrwt>
<rscale>  0 0.11652026E+03</rscale>
<asrwt>0</asrwt>
<pdfrwt beam="2">  1        4 0.19486788E-02 0.12585872E+03</pdfrwt>
<pdfrwt beam="1">  1       -4 0.17803056E+00 0.12585872E+03</pdfrwt>
<totfact> 0.35282021E+02</totfact>
</mgrwt>
</event>
<event>
 7    1  0.6387485E-006  0.1280709E+03  0.7546771E-02  0.1244962E+00
         -2   -1    0    0    0  501 -0.00000000000E+00  0.00000000000E+00  0.59612406115E+02  0.59612406115E+02  0.00000000000E+00 0.  1.
          2   -1    0    0  501    0  0.00000000000E+00 -0.00000000000E+00 -0.26859086679E+03  0.26859086679E+03  0.00000000000E+00 0. -1.
         23    2    1    2    0    0  0.22768066403E+02 -0.16080259365E+02 -0.39745883434E+02  0.13409660836E+03  0.12500082214E+03 0.  0.
          5    1    3    3  502    0  0.35373217290E+02 -0.42547417046E+02  0.26479322412E+02  0.61520660872E+02  0.47000000000E+01 0.  1.
         -5    1    3    3    0  502 -0.12605150887E+02  0.26467157681E+02 -0.66225205846E+02  0.72575947489E+02  0.47000000000E+01 0.  1.
        -11    1    1    2    0    0  0.12868567265E+02  0.46149729357E+02 -0.75528402512E+02  0.89442367641E+02  0.00000000000E+00 0.  1.
         11    1    1    2    0    0 -0.35636633668E+02 -0.30069469992E+02 -0.93704174733E+02  0.10466429691E+03  0.00000000000E+00 0. -1.
<mgrwt>
<rscale>  0 0.11887633E+03</rscale>
<asrwt>0</asrwt>
<pdfrwt beam="2">  1        2 0.41321671E-01 0.12807094E+03</pdfrwt>
<pdfrwt beam="1">  1       -2 0.91711396E-02 0.12807094E+03</pdfrwt>
<totfact> 0.88627093E+03</totfact>
</mgrwt>
</event>
<event>
 7    1  0.6387485E-006  0.1519598E+03  0.7546771E-02  0.1206616E+00
         -2   -1    0    0    0  501 -0.00000000000E+00  0.00000000000E+00  0.15627108192E+03  0.15627108192E+03  0.00000000000E+00 0.  1.
          2   -1    0    0  501    0  0.00000000000E+00 -0.00000000000E+00 -0.12502430734E+03  0.12502430734E+03  0.00000000000E+00 0. -1.
         23    2    1    2    0    0 -0.58123040629E+02 -0.63908056642E+02  0.30233104079E+02  0.15493815337E+03  0.12501705176E+03 0.  0.
          5    1    3    3  502    0 -0.43859038734E+02 -0.53563151495E+02  0.77649770772E+02  0.10413550489E+03  0.47000000000E+01 0.  1.
         -5    1    3    3    0  502 -0.14264001895E+02 -0.10344905146E+02 -0.47416666693E+02  0.50802648482E+02  0.47000000000E+01 0.  1.
        -11    1    1    2    0    0  0.11992508824E+02  0.54319743685E+02 -0.36155106860E+02  0.66344906164E+02  0.00000000000E+00 0. -1.
         11    1    1    2    0    0  0.46130531805E+02  0.95883129568E+01  0.37168777362E+02  0.60012329738E+02  0.00000000000E+00 0.  1.
<mgrwt>
<rscale>  0 0.14510860E+03</rscale>
<asrwt>0</asrwt>
<pdfrwt beam="2">  1        2 0.19234509E-01 0.15195983E+03</pdfrwt>
<pdfrwt beam="1">  1       -2 0.24041705E-01 0.15195983E+03</pdfrwt>
<totfact> 0.42646972E+03</totfact>
</mgrwt>
</event>
<event>
 7    1  0.6387485E-006  0.2090043E+03  0.7546771E-02  0.1146401E+00
         -2   -1    0    0    0  501 -0.00000000000E+00  0.00000000000E+00  0.78885299770E+02  0.78885299770E+02  0.00000000000E+00 0.  1.
          2   -1    0    0  501    0  0.00000000000E+00 -0.00000000000E+00 -0.53661122541E+03  0.53661122541E+03  0.00000000000E+00 0. -1.
         23    2    1    2    0    0  0.14313323289E+03  0.87016913619E+02 -0.16328935420E+03  0.26522859400E+03  0.12499491295E+03 0.  0.
          5    1    3    3  502    0  0.76832249847E+02  0.33590518986E+02 -0.34421714034E+01  0.84056267621E+02  0.47000000000E+01 0.  1.
         -5    1    3    3    0  502  0.66300983046E+02  0.53426394633E+02 -0.15984718280E+03  0.18117232638E+03  0.47000000000E+01 0.  1.
        -11    1    1    2    0    0 -0.37078891652E+02  0.17816857924E+01 -0.13098598999E+03  0.13614458559E+03  0.00000000000E+00 0. -1.
         11    1    1    2    0    0 -0.10605434124E+03 -0.88798599411E+02 -0.16345058144E+03  0.21412334559E+03  0.00000000000E+00 0.  1.
<mgrwt>
<rscale>  0 0.20400756E+03</rscale>
<asrwt>0</asrwt>
<pdfrwt beam="2">  1        2 0.82555576E-01 0.20900429E+03</pdfrwt>
<pdfrwt beam="1">  1       -2 0.12136200E-01 0.20900429E+03</pdfrwt>
<totfact> 0.27601298E+03</totfact>
</mgrwt>
</event>
<event>
 7    1  0.6387485E-006  0.1305496E+03  0.7546771E-02  0.1240618E+00
          2   -1    0    0  501    0  0.00000000000E+00  0.00000000000E+00  0.13651207316E+02  0.13651207316E+02  0.00000000000E+00 0.  1.
         -2   -1    0    0    0  501 -0.00000000000E+00 -0.00000000000E+00 -0.10264611597E+04  0.10264611597E+04  0.00000000000E+00 0. -1.
         23    2    1    2    0    0  0.46705442637E+01  0.37308200752E+02 -0.70805804501E+03  0.71999263323E+03  0.12501792261E+03 0.  0.
          5    1    3    3  502    0 -0.57873385531E+02  0.34708582118E+02 -0.38319131864E+03  0.38911655208E+03  0.47000000000E+01 0. -1.
         -5    1    3    3    0  502  0.62543929795E+02  0.25996186346E+01 -0.32486672637E+03  0.33087608115E+03  0.47000000000E+01 0. -1.
        -11    1    1    2    0    0  0.37718265674E+02 -0.21680583490E+02 -0.81934622690E+02  0.92768516542E+02  0.00000000000E+00 0.  1.
         11    1    1    2    0    0 -0.42388809937E+02 -0.15627617262E+02 -0.22281728467E+03  0.22735121723E+03  0.00000000000E+00 0. -1.
<mgrwt>
<rscale>  0 0.12151561E+03</rscale>
<asrwt>0</asrwt>
<pdfrwt beam="1">  1        2 0.21001854E-02 0.13054960E+03</pdfrwt>
<pdfrwt beam="2">  1       -2 0.15791713E+00 0.13054960E+03</pdfrwt>
<totfact> 0.13624000E+03</totfact>
</mgrwt>
</event>
<event>
 6    1  0.6387485E-006  0.2293269E+03  0.7546771E-02  0.1155849E+00
          2   -1    0    0  501    0  0.00000000000E+00  0.00000000000E+00  0.20821035414E+03  0.20821035414E+03  0.00000000000E+00 0. -1.
         -2   -1    0    0    0  501 -0.00000000000E+00 -0.00000000000E+00 -0.14308702865E+03  0.14308702865E+03  0.00000000000E+00 0.  1.
          5    1    1    2  502    0  0.25173572571E+02 -0.12969095584E+03  0.63624427540E+02  0.14670927224E+03  0.47000000000E+01 0. -1.
         -5    1    1    2    0  502 -0.46035328202E+02  0.62739507730E+02 -0.32995648140E+02  0.84654002085E+02  0.47000000000E+01 0.  1.
        -11    1    1    2    0    0  0.49118527346E+02  0.29877841268E+02  0.43954817755E+02  0.72369476517E+02  0.00000000000E+00 0.  1.
         11    1    1    2    0    0 -0.28256771716E+02  0.37073606842E+02 -0.94602716637E+01  0.47564631945E+02  0.00000000000E+00 0. -1.
<mgrwt>
<rscale>  0 0.19292551E+03</rscale>
<asrwt>0</asrwt>
<pdfrwt beam="1">  1        2 0.32032362E-01 0.22932693E+03</pdfrwt>
<pdfrwt beam="2">  1       -2 0.22013389E-01 0.22932693E+03</pdfrwt>
<totfact> 0.28709674E+03</totfact>
</mgrwt>
</event>
<event>
 7    1  0.6387485E-006  0.1589165E+03  0.7546771E-02  0.1197571E+00
         -2   -1    0    0    0  501 -0.00000000000E+00  0.00000000000E+00  0.33726392662E+03  0.33726392662E+03  0.00000000000E+00 0.  1.
          2   -1    0    0  501    0  0.00000000000E+00 -0.00000000000E+00 -0.73299051128E+02  0.73299051128E+02  0.00000000000E+00 0. -1.
         23    2    1    2    0    0 -0.54689873514E+02  0.81466664268E+02  0.21543088044E+03  0.26770306719E+03  0.12500667296E+03 0.  0.
          5    1    3    3  502    0  0.44200820245E+01  0.89101109834E+02  0.81047585178E+02  0.12062066971E+03  0.47000000000E+01 0. -1.
         -5    1    3    3    0  502 -0.59109955538E+02 -0.76344455661E+01  0.13438329526E+03  0.14708239748E+03  0.47000000000E+01 0. -1.
        -11    1    1    2    0    0  0.68244485530E+02 -0.34473519870E+02  0.54061502683E+02  0.93639625426E+02  0.00000000000E+00 0.  1.
         11    1    1    2    0    0 -0.13554612017E+02 -0.46993144398E+02 -0.55275076350E+01  0.49220285127E+02  0.00000000000E+00 0. -1.
<mgrwt>
<rscale>  0 0.15238658E+03</rscale>
<asrwt>0</asrwt>
<pdfrwt beam="2">  1        2 0.11276777E-01 0.15891654E+03</pdfrwt>
<pdfrwt beam="1">  1       -2 0.51886757E-01 0.15891654E+03</pdfrwt>
<totfact> 0.19177894E+03</totfact>
</mgrwt>
</event>
<event>
 7    1  0.6387485E-006  0.1336301E+03  0.7546771E-02  0.1234906E+00
         -1   -1    0    0    0  501 -0.00000000000E+00  0.00000000000E+00  0.38480573119E+03  0.38480573119E+03  0.00000000000E+00 0.  1.
          1   -1    0    0  501    0  0.00000000000E+00 -0.00000000000E+00 -0.40371812818E+02  0.40371812818E+02  0.00000000000E+00 0. -1.
         23    2    1    2    0    0  0.29352101229E+02 -0.37024049823E+02  0.25972057661E+03  0.29208179235E+03  0.12499867756E+03 0.  0.
          5    1    3    3  502    0 -0.31715051296E+02 -0.29794867673E+02  0.20503874002E+03  0.20965818259E+03  0.47000000000E+01 0.  1.
         -5    1    3    3    0  502  0.61067152525E+02 -0.72291821499E+01  0.54681836595E+02  0.82423609758E+02  0.47000000000E+01 0.  1.
        -11    1    1    2    0    0  0.18888781184E+02 -0.77548877219E+01 -0.57575399135E+01  0.21214938229E+02  0.00000000000E+00 0. -1.
         11    1    1    2    0    0 -0.48240882413E+02  0.44778937545E+02  0.90470881673E+02  0.11188081343E+03  0.00000000000E+00 0.  1.
<mgrwt>
<rscale>  0 0.12510469E+03</rscale>
<asrwt>0</asrwt>
<pdfrwt beam="2">  1        1 0.62110484E-02 0.13363007E+03</pdfrwt>
<pdfrwt beam="1">  1       -1 0.59200879E-01 0.13363007E+03</pdfrwt>
<totfact> 0.35268598E+03</totfact>
</mgrwt>
</event>
<event>
 7    1  0.6387485E-006  0.1348534E+03  0.7546771E-02  0.1233721E+00
          1   -1    0    0  501    0  0.00000000000E+00  0.00000000000E+00  0.51329586152E+03  0.51329586152E+03  0.00000000000E+00 0. -1.
         -1   -1    0    0    0  501 -0.00000000000E+00 -0.00000000000E+00 -0.27612804613E+02  0.27612804613E+02  0.00000000000E+00 0.  1.
         23    2    1    2    0    0 -0.35222704358E+02 -0.36334785783E+02  0.25248353716E+03  0.28624008205E+03  0.12499836989E+03 0.  0.
          5    1    3    3  502    0 -0.12494763106E+02  0.13349256015E+02  0.22334544809E+03  0.22414192139E+03  0.47000000000E+01 0. -1.
         -5    1    3    3    0  502 -0.22727941252E+02 -0.49684041798E+02  0.29138089073E+02  0.62098160663E+02  0.47000000000E+01 0. -1.
        -11    1    1    2    0    0 -0.63518250799E+01 -0.26137424726E+02  0.71931855828E+02  0.76796500806E+02  0.00000000000E+00 0.  1.
         11    1    1    2    0    0  0.41574529438E+02  0.62472210509E+02  0.16126766392E+03  0.17787208328E+03  0.00000000000E+00 0. -1.
<mgrwt>
<rscale>  0 0.12586673E+03</rscale>
<asrwt>0</asrwt>
<pdfrwt beam="1">  1        1 0.78968587E-01 0.13485343E+03</pdfrwt>
<pdfrwt beam="2">  1       -1 0.42481242E-02 0.13485343E+03</pdfrwt>
<totfact> 0.93411111E+03</totfact>
</mgrwt>
</event>
<event>
 7    1  0.6387485E-006  0.1300821E+03  0.7546771E-02  0.1240806E+00
         -2   -1    0    0    0  501 -0.00000000000E+00  0.00000000000E+00  0.28065964772E+02  0.28065964772E+02  0.00000000000E+00 0.  1.
          2   -1    0    0  501    0  0.00000000000E+00 -0.00000000000E+00 -0.46955369813E+03  0.46955369813E+03  0.00000000000E+00 0. -1.
         23    2    1    2    0    0  0.15260764560E+02  0.32613080692E+02 -0.22980930423E+03  0.26407133440E+03  0.12499939750E+03 0.  0.
          5    1    3    3  502    0  0.15738029066E+02  0.34351472175E+02 -0.40892818854E+01  0.38295188024E+02  0.47000000000E+01 0. -1.
         -5    1    3    3    0  502 -0.47726450594E+00 -0.17383914828E+01 -0.22572002235E+03  0.22577614638E+03  0.47000000000E+01 0. -1.
        -11    1    1    2    0    0 -0.12653012709E+02  0.31402369815E+02 -0.87381464700E+02  0.93710874149E+02  0.00000000000E+00 0. -1.
         11    1    1    2    0    0 -0.26077518511E+01 -0.64015450507E+02 -0.12429696443E+03  0.13983745435E+03  0.00000000000E+00 0.  1.
<mgrwt>
<rscale>  0 0.12139944E+03</rscale>
<asrwt>0</asrwt>
<pdfrwt beam="2">  1        2 0.72239029E-01 0.13008210E+03</pdfrwt>
<pdfrwt beam="1">  1       -2 0.43178408E-02 0.13008210E+03</pdfrwt>
<totfact> 0.15389837E+04</totfact>
</mgrwt>
</event>
<event>
 7    1  0.6387485E-006  0.1250183E+03  0.7546771E-02  0.1254225E+00
         -1   -1    0    0    0  501 -0.00000000000E+00  0.00000000000E+00  0.11548732638E+03  0.11548732638E+03  0.00000000000E+00 0.  1.
          1   -1    0    0  501    0  0.00000000000E+00 -0.00000000000E+00 -0.14373157697E+03  0.14373157697E+03  0.00000000000E+00 0. -1.
         23    2    1    2    0    0 -0.13706119578E+01 -0.11342861259E+01  0.58319075606E+02  0.13795179522E+03  0.12500567204E+03 0.  0.
          5    1    3    3  502    0  0.43044581605E+02 -0.28460485165E+02  0.67186564275E+02  0.84846683143E+02  0.47000000000E+01 0. -1.
         -5    1    3    3    0  502 -0.44415193563E+02  0.27326199039E+02 -0.88674886686E+01  0.53105112074E+02  0.47000000000E+01 0. -1.
        -11    1    1    2    0    0 -0.30264469018E+02  0.15981650739E+02 -0.78046849302E+01  0.35103623063E+02  0.00000000000E+00 0.  1.
         11    1    1    2    0    0  0.31635080976E+02 -0.14847364613E+02 -0.78758641264E+02  0.86163485062E+02  0.00000000000E+00 0. -1.
<mgrwt>
<rscale>  0 0.11349873E+03</rscale>
<asrwt>0</asrwt>
<pdfrwt beam="2">  1        1 0.22112550E-01 0.12501833E+03</pdfrwt>
<pdfrwt beam="1">  1       -1 0.17767281E-01 0.12501833E+03</pdfrwt>
<totfact> 0.52046848E+03</totfact>
</mgrwt>
</event>
<event>
 7    1  0.6387485E-006  0.1327491E+03  0.7546771E-02  0.1235827E+00
         -2   -1    0    0    0  501 -0.00000000000E+00  0.00000000000E+00  0.63638448595E+03  0.63638448595E+03  0.00000000000E+00 0.  1.
          2   -1    0    0  501    0  0.00000000000E+00 -0.00000000000E+00 -0.21821697186E+02  0.21821697186E+02  0.00000000000E+00 0. -1.
         23    2    1    2    0    0 -0.32035995191E+01 -0.44477429026E+02  0.35908368238E+03  0.38283601587E+03  0.12503527242E+03 0.  0.
          5    1    3    3  502    0  0.35342049559E+02 -0.46731393778E+02  0.32749576032E+03  0.33272878845E+03  0.47000000000E+01 0. -1.
         -5    1    3    3    0  502 -0.38545649078E+02  0.22539647517E+01  0.31587922062E+02  0.50107227424E+02  0.47000000000E+01 0. -1.
        -11    1    1    2    0    0  0.18949526467E+02 -0.20921261778E+02  0.35607229142E+02  0.45438513564E+02  0.00000000000E+00 0. -1.
         11    1    1    2    0    0 -0.15745926948E+02  0.65398690805E+02  0.21987187724E+03  0.22993165370E+03  0.00000000000E+00 0.  1.
<mgrwt>
<rscale>  0 0.12451663E+03</rscale>
<asrwt>0</asrwt>
<pdfrwt beam="2">  1        2 0.33571847E-02 0.13274910E+03</pdfrwt>
<pdfrwt beam="1">  1       -2 0.97905291E-01 0.13274910E+03</pdfrwt>
<totfact> 0.23137832E+03</totfact>
</mgrwt>
</event>
<event>
 7    1  0.6387485E-006  0.2549700E+03  0.7546771E-02  0.1111549E+00
         -2   -1    0    0    0  501 -0.00000000000E+00  0.00000000000E+00  0.89287541082E+02  0.89287541082E+02  0.00000000000E+00 0.  1.
          2   -1    0    0  501    0  0.00000000000E+00 -0.00000000000E+00 -0.78700210080E+03  0.78700210080E+03  0.00000000000E+00 0. -1.
         23    2    1    2    0    0  0.13774184307E+03 -0.17438915495E+03 -0.21176083131E+03  0.33143979379E+03  0.12500117812E+03 0.  0.
          5    1    3    3  502    0  0.79440717991E+02 -0.16536846038E+03 -0.19936754561E+03  0.27097428588E+03  0.47000000000E+01 0. -1.
         -5    1    3    3    0  502  0.58301125082E+02 -0.90206945676E+01 -0.12393285698E+02  0.60465507909E+02  0.47000000000E+01 0. -1.
        -11    1    1    2    0    0 -0.11026517706E+01  0.61347826764E+02 -0.72563370644E+02  0.95027440504E+02  0.00000000000E+00 0.  1.
         11    1    1    2    0    0 -0.13663919130E+03  0.11304132819E+03 -0.41339035776E+03  0.44982240759E+03  0.00000000000E+00 0. -1.
<mgrwt>
<rscale>  0 0.25279856E+03</rscale>
<asrwt>0</asrwt>
<pdfrwt beam="2">  1        2 0.12107725E+00 0.25496997E+03</pdfrwt>
<pdfrwt beam="1">  1       -2 0.13736545E-01 0.25496997E+03</pdfrwt>
<totfact> 0.14350536E+03</totfact>
</mgrwt>
</event>
<event>
 7    1  0.6387485E-006  0.1300955E+03  0.7546771E-02  0.1234211E+00
          2   -1    0    0  501    0  0.00000000000E+00  0.00000000000E+00  0.51213068073E+02  0.51213068073E+02  0.00000000000E+00 0.  1.
         -2   -1    0    0    0  501 -0.00000000000E+00 -0.00000000000E+00 -0.29273779453E+03  0.29273779453E+03  0.00000000000E+00 0. -1.
         23    2    1    2    0    0  0.33868667400E+02  0.12377344160E+02 -0.15076337782E+03  0.19913424337E+03  0.12499826203E+03 0.  0.
          5    1    3    3  502    0 -0.16852875289E+02  0.58694753900E+02 -0.71250525162E+02  0.93956483953E+02  0.47000000000E+01 0. -1.
         -5    1    3    3    0  502  0.50721542689E+02 -0.46317409740E+02 -0.79512852660E+02  0.10517775942E+03  0.47000000000E+01 0. -1.
        -11    1    1    2    0    0  0.15784896425E+02  0.37527494010E+02 -0.45829781957E+02  0.61301261619E+02  0.00000000000E+00 0.  1.
         11    1    1    2    0    0 -0.49653563825E+02 -0.49904838170E+02 -0.44931566676E+02  0.83515357613E+02  0.00000000000E+00 0. -1.
<mgrwt>
<rscale>  0 0.12555049E+03</rscale>
<asrwt>0</asrwt>
<pdfrwt beam="1">  1        2 0.78789338E-02 0.13009554E+03</pdfrwt>
<pdfrwt beam="2">  1       -2 0.45036582E-01 0.13009554E+03</pdfrwt>
<totfact> 0.39015041E+03</totfact>
</mgrwt>
</event>
<event>
 7    1  0.6387485E-006  0.1256095E+03  0.7546771E-02  0.1280221E+00
          1   -1    0    0  501    0  0.00000000000E+00  0.00000000000E+00  0.83427028120E+02  0.83427028120E+02  0.00000000000E+00 0. -1.
         -1   -1    0    0    0  501 -0.00000000000E+00 -0.00000000000E+00 -0.11821443417E+03  0.11821443417E+03  0.00000000000E+00 0.  1.
         23    2    1    2    0    0 -0.14373821563E+01 -0.12655838843E+02 -0.66357037695E+02  0.14205984974E+03  0.12496202676E+03 0.  0.
          5    1    3    3  502    0 -0.84015738307E+00  0.50842369580E+02 -0.13800569932E+01  0.51084703838E+02  0.47000000000E+01 0.  1.
         -5    1    3    3    0  502 -0.59722477319E+00 -0.63498208423E+02 -0.64976980702E+02  0.90975145900E+02  0.47000000000E+01 0.  1.
        -11    1    1    2    0    0  0.43376949251E+01  0.25960908516E+02  0.36585448328E+02  0.45069717079E+02  0.00000000000E+00 0. -1.
         11    1    1    2    0    0 -0.29003127688E+01 -0.13305069673E+02 -0.50158166782E+01  0.14511895469E+02  0.00000000000E+00 0.  1.
<mgrwt>
<rscale>  0 0.10003573E+03</rscale>
<asrwt>0</asrwt>
<pdfrwt beam="1">  1        1 0.12834928E-01 0.12560949E+03</pdfrwt>
<pdfrwt beam="2">  1       -1 0.18186836E-01 0.12560949E+03</pdfrwt>
<totfact> 0.10076784E+04</totfact>
</mgrwt>
</event>
<event>
 7    1  0.6387485E-006  0.1623766E+03  0.7546771E-02  0.1192158E+00
         -1   -1    0    0    0  501 -0.00000000000E+00  0.00000000000E+00  0.32712668701E+02  0.32712668701E+02  0.00000000000E+00 0.  1.
          1   -1    0    0  501    0  0.00000000000E+00 -0.00000000000E+00 -0.83668638818E+03  0.83668638818E+03  0.00000000000E+00 0. -1.
         23    2    1    2    0    0  0.55005345125E+02  0.87845644683E+02 -0.25424828209E+03  0.30167589546E+03  0.12499484660E+03 0.  0.
          5    1    3    3  502    0  0.49527571052E+02  0.11421949313E+03 -0.24098810268E+03  0.27128661695E+03  0.47000000000E+01 0. -1.
         -5    1    3    3    0  502  0.54777740732E+01 -0.26373848442E+02 -0.13260179411E+02  0.30389278512E+02  0.47000000000E+01 0. -1.
        -11    1    1    2    0    0 -0.51105745834E+02 -0.26392357470E+01 -0.13628735707E+03  0.14557818010E+03  0.00000000000E+00 0.  1.
         11    1    1    2    0    0 -0.38995992908E+01 -0.85206408936E+02 -0.41343808032E+03  0.42214498133E+03  0.00000000000E+00 0. -1.
<mgrwt>
<rscale>  0 0.15697237E+03</rscale>
<asrwt>0</asrwt>
<pdfrwt beam="2">  1        1 0.12872097E+00 0.16237659E+03</pdfrwt>
<pdfrwt beam="1">  1       -1 0.50327186E-02 0.16237659E+03</pdfrwt>
<totfact> 0.36828865E+03</totfact>
</mgrwt>
</event>
<event>
 7    1  0.6387485E-006  0.1477940E+03  0.7546771E-02  0.1211546E+00
          1   -1    0    0  501    0  0.00000000000E+00  0.00000000000E+00  0.44366418856E+02  0.44366418856E+02  0.00000000000E+00 0. -1.
         -1   -1    0    0    0  501 -0.00000000000E+00 -0.00000000000E+00 -0.67910145955E+03  0.67910145955E+03  0.00000000000E+00 0.  1.
         23    2    1    2    0    0  0.78834700238E+02 -0.22884239576E+01 -0.55968459519E+03  0.57886951274E+03  0.12499167911E+03 0.  0.
          5    1    3    3  502    0  0.38692250428E+02 -0.38567409626E+02 -0.47572805718E+03  0.47887765631E+03  0.47000000000E+01 0. -1.
         -5    1    3    3    0  502  0.40142449810E+02  0.36278985668E+02 -0.83956538008E+02  0.99991856429E+02  0.47000000000E+01 0. -1.
        -11    1    1    2    0    0 -0.41867100850E+02 -0.36906438267E+02 -0.71360791754E+02  0.90594160512E+02  0.00000000000E+00 0.  1.
         11    1    1    2    0    0 -0.36967599389E+02  0.39194862225E+02 -0.36896537530E+01  0.54004205153E+02  0.00000000000E+00 0. -1.
<mgrwt>
<rscale>  0 0.14133321E+03</rscale>
<asrwt>0</asrwt>
<pdfrwt beam="1">  1        1 0.68256031E-02 0.14779400E+03</pdfrwt>
<pdfrwt beam="2">  1       -1 0.10447715E+00 0.14779400E+03</pdfrwt>
<totfact> 0.97420064E+02</totfact>
</mgrwt>
</event>
<event>
 7    1  0.6387485E-006  0.1336046E+03  0.7546771E-02  0.1235404E+00
          2   -1    0    0  501    0  0.00000000000E+00  0.00000000000E+00  0.73843208496E+03  0.73843208496E+03  0.00000000000E+00 0. -1.
         -2   -1    0    0    0  501 -0.00000000000E+00 -0.00000000000E+00 -0.18740988282E+02  0.18740988282E+02  0.00000000000E+00 0.  1.
         23    2    1    2    0    0  0.26668561468E+02  0.38078853322E+02  0.40688061433E+03  0.42825461210E+03  0.12525560757E+03 0.  0.
          5    1    3    3  502    0 -0.77274106406E+01 -0.15606367094E+02  0.17633013917E+01  0.18123763430E+02  0.47000000000E+01 0. -1.
         -5    1    3    3    0  502  0.34395972109E+02  0.53685220416E+02  0.40511731294E+03  0.41013084867E+03  0.47000000000E+01 0. -1.
        -11    1    1    2    0    0  0.86710917923E+01 -0.53335469513E+02  0.11080818578E+03  0.12328144295E+03  0.00000000000E+00 0.  1.
         11    1    1    2    0    0 -0.35339653261E+02  0.15256616190E+02  0.20200229656E+03  0.20563701818E+03  0.00000000000E+00 0. -1.
<mgrwt>
<rscale>  0 0.12478576E+03</rscale>
<asrwt>0</asrwt>
<pdfrwt beam="1">  1        2 0.11360491E+00 0.13360456E+03</pdfrwt>
<pdfrwt beam="2">  1       -2 0.28832295E-02 0.13360456E+03</pdfrwt>
<totfact> 0.16742555E+04</totfact>
</mgrwt>
</event>
<event>
 7    1  0.6387485E-006  0.1276293E+03  0.7546771E-02  0.1245589E+00
          1   -1    0    0  501    0  0.00000000000E+00  0.00000000000E+00  0.78433253930E+03  0.78433253930E+03  0.00000000000E+00 0. -1.
         -1   -1    0    0    0  501 -0.00000000000E+00 -0.00000000000E+00 -0.19481389270E+02  0.19481389270E+02  0.00000000000E+00 0.  1.
         23    2    1    2    0    0  0.71519037528E+01  0.24654578721E+02  0.25434757684E+03  0.28457324957E+03  0.12502098442E+03 0.  0.
          5    1    3    3  502    0  0.52727359081E+02 -0.20666828742E+02  0.75697489351E+02  0.94654593655E+02  0.47000000000E+01 0.  1.
         -5    1    3    3    0  502 -0.45575455328E+02  0.45321407464E+02  0.17865008749E+03  0.18991865591E+03  0.47000000000E+01 0.  1.
        -11    1    1    2    0    0 -0.51403775116E+01 -0.59183837801E+02  0.35506290378E+03  0.35999835525E+03  0.00000000000E+00 0.  1.
         11    1    1    2    0    0 -0.20115262411E+01  0.34529259079E+02  0.15544066941E+03  0.15924232376E+03  0.00000000000E+00 0. -1.
<mgrwt>
<rscale>  0 0.11850181E+03</rscale>
<asrwt>0</asrwt>
<pdfrwt beam="1">  1        1 0.12066652E+00 0.12762932E+03</pdfrwt>
<pdfrwt beam="2">  1       -1 0.29971374E-02 0.12762932E+03</pdfrwt>
<totfact> 0.86051878E+03</totfact>
</mgrwt>
</event>
<event>
 7    1  0.6387485E-006  0.1437388E+03  0.7546771E-02  0.1218756E+00
         -2   -1    0    0    0  501 -0.00000000000E+00  0.00000000000E+00  0.15053366321E+03  0.15053366321E+03  0.00000000000E+00 0.  1.
          2   -1    0    0  501    0  0.00000000000E+00 -0.00000000000E+00 -0.15934391466E+03  0.15934391466E+03  0.00000000000E+00 0. -1.
         23    2    1    2    0    0 -0.55340641987E+02 -0.44475874020E+02  0.79824105915E+02  0.16441630871E+03  0.12498057712E+03 0.  0.
          5    1    3    3  502    0 -0.27756936461E+01 -0.74132386854E+02  0.15207665268E+02  0.75872777323E+02  0.47000000000E+01 0.  1.
         -5    1    3    3    0  502 -0.52564948341E+02  0.29656512834E+02  0.64616440648E+02  0.88543531382E+02  0.47000000000E+01 0.  1.
        -11    1    1    2    0    0  0.17890869959E+02  0.15289969212E+02  0.17409268919E+02  0.29273691784E+02  0.00000000000E+00 0.  1.
         11    1    1    2    0    0  0.37449772028E+02  0.29185904808E+02 -0.10604362628E+03  0.11618757739E+03  0.00000000000E+00 0. -1.
<mgrwt>
<rscale>  0 0.13604227E+03</rscale>
<asrwt>0</asrwt>
<pdfrwt beam="2">  1        2 0.24514448E-01 0.14373877E+03</pdfrwt>
<pdfrwt beam="1">  1       -2 0.23159025E-01 0.14373877E+03</pdfrwt>
<totfact> 0.34547980E+03</totfact>
</mgrwt>
</event>
<event>
 7    1  0.6387485E-006  0.2132480E+03  0.7546771E-02  0.1142607E+00
          1   -1    0    0  501    0  0.00000000000E+00  0.00000000000E+00  0.10169639620E+04  0.10169639620E+04  0.00000000000E+00 0. -1.
         -1   -1    0    0    0  501 -0.00000000000E+00 -0.00000000000E+00 -0.43216059483E+02  0.43216059483E+02  0.00000000000E+00 0.  1.
         23    2    1    2    0    0  0.42232302161E+02 -0.16752315393E+03  0.38941593210E+03  0.44398139613E+03  0.12500854966E+03 0.  0.
          5    1    3    3  502    0  0.67066165087E+02 -0.86568247817E+02  0.12476223091E+03  0.16607117839E+03  0.47000000000E+01 0. -1.
         -5    1    3    3    0  502 -0.24833862926E+02 -0.80954906113E+02  0.26465370119E+03  0.27791021774E+03  0.47000000000E+01 0. -1.
        -11    1    1    2    0    0 -0.68267949525E+02  0.98510375907E+02  0.40281465175E+03  0.42026711835E+03  0.00000000000E+00 0.  1.
         11    1    1    2    0    0  0.26035647364E+02  0.69012778023E+02  0.18151731865E+03  0.19593150699E+03  0.00000000000E+00 0. -1.
<mgrwt>
<rscale>  0 0.20869039E+03</rscale>
<asrwt>0</asrwt>
<pdfrwt beam="1">  1        1 0.15645598E+00 0.21324801E+03</pdfrwt>
<pdfrwt beam="2">  1       -1 0.66486253E-02 0.21324801E+03</pdfrwt>
<totfact> 0.17726651E+03</totfact>
</mgrwt>
</event>
<event>
 7    1  0.6387485E-006  0.1303744E+03  0.7546771E-02  0.1239481E+00
         -2   -1    0    0    0  501 -0.00000000000E+00  0.00000000000E+00  0.16780820734E+03  0.16780820734E+03  0.00000000000E+00 0.  1.
          2   -1    0    0  501    0  0.00000000000E+00 -0.00000000000E+00 -0.86636457275E+02  0.86636457275E+02  0.00000000000E+00 0. -1.
         23    2    1    2    0    0  0.29870412003E+02 -0.21917065996E+02  0.81507864419E+02  0.15375631599E+03  0.12499949380E+03 0.  0.
          5    1    3    3  502    0 -0.31408673668E+02  0.34537363225E+02  0.28875026329E+02  0.55092571057E+02  0.47000000000E+01 0.  1.
         -5    1    3    3    0  502  0.61279085671E+02 -0.56454429221E+02  0.52632838090E+02  0.98663744936E+02  0.47000000000E+01 0.  1.
        -11    1    1    2    0    0 -0.12654470316E+02  0.34101018268E+02 -0.41043567279E+02  0.54841494152E+02  0.00000000000E+00 0. -1.
         11    1    1    2    0    0 -0.17215941688E+02 -0.12183952272E+02  0.40707452922E+02  0.45846854467E+02  0.00000000000E+00 0.  1.
<mgrwt>
<rscale>  0 0.12221889E+03</rscale>
<asrwt>0</asrwt>
<pdfrwt beam="2">  1        2 0.13328686E-01 0.13037436E+03</pdfrwt>
<pdfrwt beam="1">  1       -2 0.25816647E-01 0.13037436E+03</pdfrwt>
<totfact> 0.57119000E+03</totfact>
</mgrwt>
</event>
<event>
 7    1  0.6387485E-006  0.1312028E+03  0.7546771E-02  0.1238731E+00
         -1   -1    0    0    0  501 -0.00000000000E+00  0.00000000000E+00  0.13152374372E+03  0.13152374372E+03  0.00000000000E+00 0.  1.
          1   -1    0    0  501    0  0.00000000000E+00 -0.00000000000E+00 -0.19217886002E+03  0.19217886002E+03  0.00000000000E+00 0. -1.
         23    2    1    2    0    0  0.31238103082E+00 -0.39803723758E+02  0.77946719560E+02  0.15261017350E+03  0.12501895840E+03 0.  0.
          5    1    3    3  502    0  0.26613777097E+02  0.14706477719E+02 -0.20485427122E+02  0.36963716569E+02  0.47000000000E+01 0. -1.
         -5    1    3    3    0  502 -0.26301396066E+02 -0.54510201477E+02  0.98432146682E+02  0.11564645693E+03  0.47000000000E+01 0. -1.
        -11    1    1    2    0    0 -0.39980519369E+02  0.38150079195E+02 -0.10669803502E+03  0.12015964859E+03  0.00000000000E+00 0. -1.
         11    1    1    2    0    0  0.39668138338E+02  0.16536445631E+01 -0.31903800837E+02  0.50932781658E+02  0.00000000000E+00 0.  1.
<mgrwt>
<rscale>  0 0.12268562E+03</rscale>
<asrwt>0</asrwt>
<pdfrwt beam="2">  1        1 0.29565978E-01 0.13120280E+03</pdfrwt>
<pdfrwt beam="1">  1       -1 0.20234422E-01 0.13120280E+03</pdfrwt>
<totfact> 0.29487210E+03</totfact>
</mgrwt>
</event>
<event>
 7    1  0.6387485E-006  0.1740274E+03  0.7546771E-02  0.1179585E+00
         -3   -1    0    0    0  501 -0.00000000000E+00  0.00000000000E+00  0.39587059578E+02  0.39587059578E+02  0.00000000000E+00 0.  1.
          3   -1    0    0  501    0  0.00000000000E+00 -0.00000000000E+00 -0.74145332910E+03  0.74145332910E+03  0.00000000000E+00 0. -1.
         23    2    1    2    0    0  0.98176209814E+02  0.70899362622E+02 -0.25350249166E+03  0.30748826615E+03  0.12498092954E+03 0.  0.
          5    1    3    3  502    0  0.47557491179E+02  0.56999741070E+02 -0.24249766136E+03  0.25364914984E+03  0.47000000000E+01 0.  1.
         -5    1    3    3    0  502  0.50618718635E+02  0.13899621552E+02 -0.11004830303E+02  0.53839116315E+02  0.47000000000E+01 0.  1.
        -11    1    1    2    0    0 -0.22414828969E+02 -0.45525940796E+02 -0.67772910576E+02  0.84665242284E+02  0.00000000000E+00 0.  1.
         11    1    1    2    0    0 -0.75761380844E+02 -0.25373421826E+02 -0.38059086728E+03  0.38888688024E+03  0.00000000000E+00 0. -1.
<mgrwt>
<rscale>  0 0.16834472E+03</rscale>
<asrwt>0</asrwt>
<pdfrwt beam="2">  1        3 0.11406974E+00 0.17402736E+03</pdfrwt>
<pdfrwt beam="1">  1       -3 0.60903172E-02 0.17402736E+03</pdfrwt>
<totfact> 0.26708122E+02</totfact>
</mgrwt>
</event>
<event>
 7    1  0.6387485E-006  0.1344189E+03  0.7546771E-02  0.1234019E+00
          3   -1    0    0  501    0  0.00000000000E+00  0.00000000000E+00  0.30023599758E+02  0.30023599758E+02  0.00000000000E+00 0. -1.
         -3   -1    0    0    0  501 -0.00000000000E+00 -0.00000000000E+00 -0.49271111699E+03  0.49271111699E+03  0.00000000000E+00 0.  1.
         23    2    1    2    0    0 -0.59108714269E+01 -0.49073472710E+02 -0.31853287902E+03  0.34573347899E+03  0.12500119741E+03 0.  0.
          5    1    3    3  502    0  0.56493109368E+02 -0.29932078295E+02 -0.11162758948E+03  0.12872532560E+03  0.47000000000E+01 0.  1.
         -5    1    3    3    0  502 -0.62403980795E+02 -0.19141394415E+02 -0.20690528954E+03  0.21700815340E+03  0.47000000000E+01 0.  1.
        -11    1    1    2    0    0 -0.28176589546E+02  0.39395222655E+02 -0.28852586451E+02  0.56377083211E+02  0.00000000000E+00 0. -1.
         11    1    1    2    0    0  0.34087460973E+02  0.96782500555E+01 -0.11530205176E+03  0.12062415455E+03  0.00000000000E+00 0.  1.
<mgrwt>
<rscale>  0 0.12567418E+03</rscale>
<asrwt>0</asrwt>
<pdfrwt beam="1">  1        3 0.46190152E-02 0.13441891E+03</pdfrwt>
<pdfrwt beam="2">  1       -3 0.75801712E-01 0.13441891E+03</pdfrwt>
<totfact> 0.99884643E+02</totfact>
</mgrwt>
</event>
<event>
 7    1  0.6387485E-006  0.1289616E+03  0.7546771E-02  0.1244038E+00
          1   -1    0    0  501    0  0.00000000000E+00  0.00000000000E+00  0.30765038866E+02  0.30765038866E+02  0.00000000000E+00 0. -1.
         -1   -1    0    0    0  501 -0.00000000000E+00 -0.00000000000E+00 -0.59424488695E+03  0.59424488695E+03  0.00000000000E+00 0.  1.
         23    2    1    2    0    0 -0.26184438899E+02  0.17988291082E+02 -0.48511914693E+03  0.50196780626E+03  0.12498755278E+03 0.  0.
          5    1    3    3  502    0 -0.27381916115E+02  0.52284251848E+02 -0.10719129262E+03  0.12245601469E+03  0.47000000000E+01 0. -1.
         -5    1    3    3    0  502  0.11974772157E+01 -0.34295960766E+02 -0.37792785431E+03  0.37951179157E+03  0.47000000000E+01 0. -1.
        -11    1    1    2    0    0  0.56442211760E+02 -0.63837726860E+00 -0.31546723126E+02  0.64663177574E+02  0.00000000000E+00 0.  1.
         11    1    1    2    0    0 -0.30257772861E+02 -0.17349913814E+02 -0.46813978032E+02  0.58378941983E+02  0.00000000000E+00 0. -1.
<mgrwt>
<rscale>  0 0.11943163E+03</rscale>
<asrwt>0</asrwt>
<pdfrwt beam="1">  1        1 0.47330834E-02 0.12896159E+03</pdfrwt>
<pdfrwt beam="2">  1       -1 0.91422280E-01 0.12896159E+03</pdfrwt>
<totfact> 0.21348902E+03</totfact>
</mgrwt>
</event>
<event>
 7    1  0.6387485E-006  0.1450825E+03  0.7546771E-02  0.1216224E+00
          1   -1    0    0  501    0  0.00000000000E+00  0.00000000000E+00  0.55993984366E+03  0.55993984366E+03  0.00000000000E+00 0. -1.
         -1   -1    0    0    0  501 -0.00000000000E+00 -0.00000000000E+00 -0.34081438994E+02  0.34081438994E+02  0.00000000000E+00 0.  1.
         23    2    1    2    0    0 -0.73386661819E+01  0.73286931008E+02  0.19797448267E+03  0.24544411734E+03  0.12499635463E+03 0.  0.
          5    1    3    3  502    0  0.26407234283E+02  0.71787239917E+02  0.19693882271E+03  0.21132377937E+03  0.47000000000E+01 0.  1.
         -5    1    3    3    0  502 -0.33745900465E+02  0.14996910913E+01  0.10356599624E+01  0.34120337969E+02  0.47000000000E+01 0.  1.
        -11    1    1    2    0    0 -0.38150721444E+02 -0.17759211640E+02  0.17017289159E+03  0.17529883108E+03  0.00000000000E+00 0.  1.
         11    1    1    2    0    0  0.45489387626E+02 -0.55527719369E+02  0.15771103040E+03  0.17327833423E+03  0.00000000000E+00 0. -1.
<mgrwt>
<rscale>  0 0.13787010E+03</rscale>
<asrwt>0</asrwt>
<pdfrwt beam="1">  1        1 0.86144584E-01 0.14508246E+03</pdfrwt>
<pdfrwt beam="2">  1       -1 0.52432987E-02 0.14508246E+03</pdfrwt>
<totfact> 0.61264776E+03</totfact>
</mgrwt>
</event>
<event>
 7    1  0.6387485E-006  0.1309639E+03  0.7546771E-02  0.1240303E+00
          1   -1    0    0  501    0  0.00000000000E+00  0.00000000000E+00  0.93847234705E+02  0.93847234705E+02  0.00000000000E+00 0. -1.
         -1   -1    0    0    0  501 -0.00000000000E+00 -0.00000000000E+00 -0.13978140820E+03  0.13978140820E+03  0.00000000000E+00 0.  1.
         23    2    1    2    0    0  0.15636601066E+02 -0.35836413080E+02 -0.33251433482E+02  0.13511918090E+03  0.12499113338E+03 0.  0.
          5    1    3    3  502    0  0.18737840083E+02 -0.82079625289E+02 -0.19510633196E+02  0.86550137760E+02  0.47000000000E+01 0. -1.
         -5    1    3    3    0  502 -0.31012390171E+01  0.46243212209E+02 -0.13740800286E+02  0.48569043138E+02  0.47000000000E+01 0. -1.
        -11    1    1    2    0    0 -0.99740026615E+01  0.62784552576E+01 -0.49541886909E+02  0.50924437042E+02  0.00000000000E+00 0.  1.
         11    1    1    2    0    0 -0.56625984048E+01  0.29557957822E+02  0.36859146894E+02  0.47585024967E+02  0.00000000000E+00 0. -1.
<mgrwt>
<rscale>  0 0.12170985E+03</rscale>
<asrwt>0</asrwt>
<pdfrwt beam="1">  1        1 0.14438036E-01 0.13096387E+03</pdfrwt>
<pdfrwt beam="2">  1       -1 0.21504832E-01 0.13096387E+03</pdfrwt>
<totfact> 0.66337115E+03</totfact>
</mgrwt>
</event>
<event>
 7    1  0.6387485E-006  0.1437677E+03  0.7546771E-02  0.1218741E+00
         -1   -1    0    0    0  501 -0.00000000000E+00  0.00000000000E+00  0.26235241520E+03  0.26235241520E+03  0.00000000000E+00 0. -1.
          1   -1    0    0  501    0  0.00000000000E+00 -0.00000000000E+00 -0.81653311617E+02  0.81653311617E+02  0.00000000000E+00 0.  1.
         23    2    1    2    0    0  0.20091821891E+02 -0.68118926000E+02  0.17781567289E+03  0.22866473013E+03  0.12500110356E+03 0.  0.
          5    1    3    3  502    0  0.36137489969E+02 -0.10587091031E+02 -0.31114618896E+01  0.38075922482E+02  0.47000000000E+01 0. -1.
         -5    1    3    3    0  502 -0.16045668078E+02 -0.57531834970E+02  0.18092713478E+03  0.19058880765E+03  0.47000000000E+01 0. -1.
        -11    1    1    2    0    0  0.22135048540E+02 -0.72886739298E+01  0.15515829159E+02  0.27996894399E+02  0.00000000000E+00 0. -1.
         11    1    1    2    0    0 -0.42226870431E+02  0.75407599930E+02 -0.12632398470E+02  0.87344102289E+02  0.00000000000E+00 0.  1.
<mgrwt>
<rscale>  0 0.13605294E+03</rscale>
<asrwt>0</asrwt>
<pdfrwt beam="2">  1        1 0.12562048E-01 0.14376768E+03</pdfrwt>
<pdfrwt beam="1">  1       -1 0.40361910E-01 0.14376768E+03</pdfrwt>
<totfact> 0.27779077E+03</totfact>
</mgrwt>
</event>
<event>
 7    1  0.6387485E-006  0.1962699E+03  0.7546771E-02  0.1157200E+00
          2   -1    0    0  501    0  0.00000000000E+00  0.00000000000E+00  0.46519365316E+03  0.46519365316E+03  0.00000000000E+00 0. -1.
         -2   -1    0    0    0  501 -0.00000000000E+00 -0.00000000000E+00 -0.10292818263E+03  0.10292818263E+03  0.00000000000E+00 0.  1.
         23    2    1    2    0    0 -0.52655689169E+02 -0.14186321175E+03  0.40160627487E+02  0.20033663606E+03  0.12499639715E+03 0.  0.
          5    1    3    3  502    0  0.15571779527E+02 -0.85769892674E+02  0.64565707786E+02  0.10858073231E+03  0.47000000000E+01 0. -1.
         -5    1    3    3    0  502 -0.68227468696E+02 -0.56093319072E+02 -0.24405080299E+02  0.91755903753E+02  0.47000000000E+01 0. -1.
        -11    1    1    2    0    0  0.62122769127E+02  0.89522727058E+02  0.27832500884E+03  0.29889524527E+03  0.00000000000E+00 0. -1.
         11    1    1    2    0    0 -0.94670799585E+01  0.52340484689E+02  0.43779834214E+02  0.68889954450E+02  0.00000000000E+00 0.  1.
<mgrwt>
<rscale>  0 0.19140533E+03</rscale>
<asrwt>0</asrwt>
<pdfrwt beam="1">  1        2 0.71568253E-01 0.19626995E+03</pdfrwt>
<pdfrwt beam="2">  1       -2 0.15835105E-01 0.19626995E+03</pdfrwt>
<totfact> 0.20911656E+03</totfact>
</mgrwt>
</event>
<event>
 7    1  0.6387485E-006  0.1294679E+03  0.7546771E-02  0.1243986E+00
          2   -1    0    0  501    0  0.00000000000E+00  0.00000000000E+00  0.35232469359E+03  0.35232469359E+03  0.00000000000E+00 0. -1.
         -2   -1    0    0    0  501 -0.00000000000E+00 -0.00000000000E+00 -0.35535189995E+02  0.35535189995E+02  0.00000000000E+00 0.  1.
         23    2    1    2    0    0 -0.21100053510E+01 -0.33630142724E+02  0.17120886860E+03  0.21464950609E+03  0.12500598047E+03 0.  0.
          5    1    3    3  502    0 -0.38378481960E+02  0.34493790834E+02  0.76323387807E+02  0.92250089485E+02  0.47000000000E+01 0. -1.
         -5    1    3    3    0  502  0.36268476609E+02 -0.68123933558E+02  0.94885480797E+02  0.12239941660E+03  0.47000000000E+01 0. -1.
        -11    1    1    2    0    0 -0.74169664402E+01 -0.12184530957E+02 -0.53172823126E+01  0.15223261050E+02  0.00000000000E+00 0.  1.
         11    1    1    2    0    0  0.95269717912E+01  0.45814673681E+02  0.15089791730E+03  0.15798711644E+03  0.00000000000E+00 0. -1.
<mgrwt>
<rscale>  0 0.11946259E+03</rscale>
<asrwt>0</asrwt>
<pdfrwt beam="1">  1        2 0.54203797E-01 0.12946789E+03</pdfrwt>
<pdfrwt beam="2">  1       -2 0.54669525E-02 0.12946789E+03</pdfrwt>
<totfact> 0.14691866E+04</totfact>
</mgrwt>
</event>
<event>
 7    1  0.6387485E-006  0.1322804E+03  0.7546771E-02  0.1236900E+00
          1   -1    0    0  501    0  0.00000000000E+00  0.00000000000E+00  0.59577857703E+02  0.59577857703E+02  0.00000000000E+00 0. -1.
         -1   -1    0    0    0  501 -0.00000000000E+00 -0.00000000000E+00 -0.22995330648E+03  0.22995330648E+03  0.00000000000E+00 0.  1.
         23    2    1    2    0    0 -0.35826982025E+02  0.24278884262E+02 -0.90207342347E+02  0.16011081591E+03  0.12500028758E+03 0.  0.
          5    1    3    3  502    0 -0.34252735079E+02  0.20336459941E+02  0.23326255338E+02  0.46400707445E+02  0.47000000000E+01 0.  1.
         -5    1    3    3    0  502 -0.15742469455E+01  0.39424243218E+01 -0.11353359769E+03  0.11371010846E+03  0.47000000000E+01 0.  1.
        -11    1    1    2    0    0  0.40342559216E+02 -0.86219786250E+01 -0.97356087402E+02  0.10573584233E+03  0.00000000000E+00 0.  1.
         11    1    1    2    0    0 -0.45155771910E+01 -0.15656905637E+02  0.17187980977E+02  0.23684505939E+02  0.00000000000E+00 0. -1.
<mgrwt>
<rscale>  0 0.12383569E+03</rscale>
<asrwt>0</asrwt>
<pdfrwt beam="1">  1        1 0.91658244E-02 0.13228042E+03</pdfrwt>
<pdfrwt beam="2">  1       -1 0.35377431E-01 0.13228042E+03</pdfrwt>
<totfact> 0.52714541E+03</totfact>
</mgrwt>
</event>
<event>
 7    1  0.6387485E-006  0.1502865E+03  0.7546771E-02  0.1209172E+00
         -2   -1    0    0    0  501 -0.00000000000E+00  0.00000000000E+00  0.67212516759E+02  0.67212516759E+02  0.00000000000E+00 0.  1.
          2   -1    0    0  501    0  0.00000000000E+00 -0.00000000000E+00 -0.29449479562E+03  0.29449479562E+03  0.00000000000E+00 0. -1.
         23    2    1    2    0    0  0.80485481059E+02  0.21968710180E+02 -0.82995267589E+02  0.17168062755E+03  0.12500194617E+03 0.  0.
          5    1    3    3  502    0 -0.18036880490E+02 -0.21461875948E+02 -0.52458649900E+02  0.59665242196E+02  0.47000000000E+01 0. -1.
         -5    1    3    3    0  502  0.98522361549E+02  0.43430586129E+02 -0.30536617689E+02  0.11201538536E+03  0.47000000000E+01 0. -1.
        -11    1    1    2    0    0 -0.32300376093E+02 -0.14797969397E+02  0.22541449862E+01  0.35600215781E+02  0.00000000000E+00 0.  1.
         11    1    1    2    0    0 -0.48185104965E+02 -0.71707407838E+01 -0.14654115625E+03  0.15442646904E+03  0.00000000000E+00 0. -1.
<mgrwt>
<rscale>  0 0.14313499E+03</rscale>
<asrwt>0</asrwt>
<pdfrwt beam="2">  1        2 0.45306892E-01 0.15028647E+03</pdfrwt>
<pdfrwt beam="1">  1       -2 0.10340387E-01 0.15028647E+03</pdfrwt>
<totfact> 0.67317020E+03</totfact>
</mgrwt>
</event>
<event>
 7    1  0.6387485E-006  0.1430661E+03  0.7546771E-02  0.1215220E+00
          3   -1    0    0  501    0  0.00000000000E+00  0.00000000000E+00  0.14491868065E+03  0.14491868065E+03  0.00000000000E+00 0. -1.
         -3   -1    0    0    0  501 -0.00000000000E+00 -0.00000000000E+00 -0.13388054477E+03  0.13388054477E+03  0.00000000000E+00 0.  1.
         23    2    1    2    0    0 -0.74781347793E+01  0.14282623475E+02 -0.30794370731E+02  0.12974259017E+03  0.12499972241E+03 0.  0.
          5    1    3    3  502    0  0.35359836620E+02 -0.12257863466E+02 -0.60324433495E+02  0.71145629093E+02  0.47000000000E+01 0. -1.
         -5    1    3    3    0  502 -0.42837971399E+02  0.26540486941E+02  0.29530062764E+02  0.58596961077E+02  0.47000000000E+01 0. -1.
        -11    1    1    2    0    0 -0.25770766820E+02  0.41560021546E+02  0.63860669535E+02  0.80433531110E+02  0.00000000000E+00 0. -1.
         11    1    1    2    0    0  0.33248901599E+02 -0.55842645022E+02 -0.22028162917E+02  0.68623104142E+02  0.00000000000E+00 0.  1.
<mgrwt>
<rscale>  0 0.13860393E+03</rscale>
<asrwt>0</asrwt>
<pdfrwt beam="1">  1        3 0.22295182E-01 0.14306615E+03</pdfrwt>
<pdfrwt beam="2">  1       -3 0.20597007E-01 0.14306615E+03</pdfrwt>
<totfact> 0.91573618E+02</totfact>
</mgrwt>
</event>
<event>
 7    1  0.6387485E-006  0.1329236E+03  0.7546771E-02  0.1233439E+00
         -1   -1    0    0    0  501 -0.00000000000E+00  0.00000000000E+00  0.82655102391E+02  0.82655102391E+02  0.00000000000E+00 0.  1.
          1   -1    0    0  501    0  0.00000000000E+00 -0.00000000000E+00 -0.18081897904E+03  0.18081897904E+03  0.00000000000E+00 0. -1.
         23    2    1    2    0    0 -0.18810398316E+02 -0.41107751319E+02 -0.77980937613E+02  0.15410937181E+03  0.12499997418E+03 0.  0.
          5    1    3    3  502    0  0.36459312754E+02 -0.61123109830E+02 -0.27363886159E+02  0.76394949490E+02  0.47000000000E+01 0. -1.
         -5    1    3    3    0  502 -0.55269711071E+02  0.20015358511E+02 -0.50617051454E+02  0.77714422317E+02  0.47000000000E+01 0. -1.
        -11    1    1    2    0    0  0.37933339931E+01 -0.24673658260E+02 -0.32288832616E+02  0.40813570126E+02  0.00000000000E+00 0. -1.
         11    1    1    2    0    0  0.15017064323E+02  0.65781409579E+02  0.12105893582E+02  0.68551139498E+02  0.00000000000E+00 0.  1.
<mgrwt>
<rscale>  0 0.12604908E+03</rscale>
<asrwt>0</asrwt>
<pdfrwt beam="2">  1        1 0.27818304E-01 0.13292356E+03</pdfrwt>
<pdfrwt beam="1">  1       -1 0.12716170E-01 0.13292356E+03</pdfrwt>
<totfact> 0.66167557E+03</totfact>
</mgrwt>
</event>
<event>
 7    1  0.6387485E-006  0.1729396E+03  0.7546771E-02  0.1180886E+00
         -2   -1    0    0    0  501 -0.00000000000E+00  0.00000000000E+00  0.83156582309E+02  0.83156582309E+02  0.00000000000E+00 0.  1.
          2   -1    0    0  501    0  0.00000000000E+00 -0.00000000000E+00 -0.39279366641E+03  0.39279366641E+03  0.00000000000E+00 0. -1.
         23    2    1    2    0    0  0.35138585533E+02  0.11423097131E+03 -0.57671912947E+02  0.18230240551E+03  0.12499873004E+03 0.  0.
          5    1    3    3  502    0  0.57397342434E+02  0.54488975301E+02  0.19941779467E+02  0.81751256358E+02  0.47000000000E+01 0.  1.
         -5    1    3    3    0  502 -0.22258756901E+02  0.59741996010E+02 -0.77613692414E+02  0.10055114915E+03  0.47000000000E+01 0.  1.
        -11    1    1    2    0    0 -0.11904511653E+02 -0.12198494349E+03 -0.23058685903E+03  0.26113663740E+03  0.00000000000E+00 0. -1.
         11    1    1    2    0    0 -0.23234073880E+02  0.77539721830E+01 -0.21378312128E+02  0.32511205808E+02  0.00000000000E+00 0.  1.
<mgrwt>
<rscale>  0 0.16711904E+03</rscale>
<asrwt>0</asrwt>
<pdfrwt beam="2">  1        2 0.60429794E-01 0.17293964E+03</pdfrwt>
<pdfrwt beam="1">  1       -2 0.12793320E-01 0.17293964E+03</pdfrwt>
<totfact> 0.35484004E+03</totfact>
</mgrwt>
</event>
<event>
 7    1  0.6387485E-006  0.1370381E+03  0.7546771E-02  0.1228889E+00
          3   -1    0    0  501    0  0.00000000000E+00  0.00000000000E+00  0.34909345723E+03  0.34909345723E+03  0.00000000000E+00 0. -1.
         -3   -1    0    0    0  501 -0.00000000000E+00 -0.00000000000E+00 -0.42926871810E+02  0.42926871810E+02  0.00000000000E+00 0.  1.
         23    2    1    2    0    0  0.53414649583E+02 -0.17425540535E+02  0.16720619643E+03  0.21618822436E+03  0.12499064754E+03 0.  0.
          5    1    3    3  502    0  0.50341724873E+02  0.32887897999E+01  0.18277896209E+03  0.18967167523E+03  0.47000000000E+01 0.  1.
         -5    1    3    3    0  502  0.30729247102E+01 -0.20714330335E+02 -0.15572765659E+02  0.26516549130E+02  0.47000000000E+01 0.  1.
        -11    1    1    2    0    0 -0.26387797561E+02  0.27886574261E+02  0.49339109512E+01  0.38708143347E+02  0.00000000000E+00 0.  1.
         11    1    1    2    0    0 -0.27026852022E+02 -0.10461033726E+02  0.13402647804E+03  0.13712396134E+03  0.00000000000E+00 0. -1.
<mgrwt>
<rscale>  0 0.12903891E+03</rscale>
<asrwt>0</asrwt>
<pdfrwt beam="1">  1        3 0.53706684E-01 0.13703808E+03</pdfrwt>
<pdfrwt beam="2">  1       -3 0.66041344E-02 0.13703808E+03</pdfrwt>
<totfact> 0.11635588E+03</totfact>
</mgrwt>
</event>
<event>
 7    1  0.6387485E-006  0.1372069E+03  0.7546771E-02  0.1228115E+00
          4   -1    0    0  501    0  0.00000000000E+00  0.00000000000E+00  0.14812625861E+03  0.14812625861E+03  0.00000000000E+00 0.  1.
         -4   -1    0    0    0  501 -0.00000000000E+00 -0.00000000000E+00 -0.10445336095E+03  0.10445336095E+03  0.00000000000E+00 0. -1.
         23    2    1    2    0    0  0.37637284440E+02 -0.42237731708E+02  0.65456966244E+01  0.13736291446E+03  0.12500053186E+03 0.  0.
          5    1    3    3  502    0  0.67924000712E+02 -0.40431625510E+02 -0.34274163082E+02  0.86285540325E+02  0.47000000000E+01 0.  1.
         -5    1    3    3    0  502 -0.30286716273E+02 -0.18061061982E+01  0.40819859707E+02  0.51077374136E+02  0.47000000000E+01 0.  1.
        -11    1    1    2    0    0 -0.34110933133E+02 -0.24283991247E+02  0.85780168046E+01  0.42741670094E+02  0.00000000000E+00 0. -1.
         11    1    1    2    0    0 -0.35263513067E+01  0.66521722956E+02  0.28549184236E+02  0.72475035005E+02  0.00000000000E+00 0.  1.
<mgrwt>
<rscale>  0 0.12955647E+03</rscale>
<asrwt>0</asrwt>
<pdfrwt beam="1">  1        4 0.22788655E-01 0.13720687E+03</pdfrwt>
<pdfrwt beam="2">  1       -4 0.16069748E-01 0.13720687E+03</pdfrwt>
<totfact> 0.98202547E+02</totfact>
</mgrwt>
</event>
<event>
 7    1  0.6387485E-006  0.1523316E+03  0.7546771E-02  0.1203541E+00
          4   -1    0    0  501    0  0.00000000000E+00  0.00000000000E+00  0.58406285601E+02  0.58406285601E+02  0.00000000000E+00 0. -1.
         -4   -1    0    0    0  501 -0.00000000000E+00 -0.00000000000E+00 -0.48884398380E+03  0.48884398380E+03  0.00000000000E+00 0.  1.
         23    2    1    2    0    0 -0.75784953952E+02  0.42849895575E+02 -0.37020871458E+03  0.40032414729E+03  0.12500183101E+03 0.  0.
          5    1    3    3  502    0  0.32658467929E+02 -0.50693852326E+01 -0.71331549476E+02  0.78756295905E+02  0.47000000000E+01 0. -1.
         -5    1    3    3    0  502 -0.10844342188E+03  0.47919280808E+02 -0.29887716510E+03  0.32156785138E+03  0.47000000000E+01 0. -1.
        -11    1    1    2    0    0  0.64638668094E+02 -0.11227350048E+02 -0.83442218308E+02  0.10614525236E+03  0.00000000000E+00 0.  1.
         11    1    1    2    0    0  0.11146285857E+02 -0.31622545528E+02  0.23213234682E+02  0.40780869761E+02  0.00000000000E+00 0. -1.
<mgrwt>
<rscale>  0 0.14752994E+03</rscale>
<asrwt>0</asrwt>
<pdfrwt beam="1">  1        4 0.89855821E-02 0.15233165E+03</pdfrwt>
<pdfrwt beam="2">  1       -4 0.75206769E-01 0.15233165E+03</pdfrwt>
<totfact> 0.25215845E+02</totfact>
</mgrwt>
</event>
<event>
 6    1  0.6387485E-006  0.1349268E+03  0.7546771E-02  0.1233321E+00
          4   -1    0    0  501    0  0.00000000000E+00  0.00000000000E+00  0.20614730656E+03  0.20614730656E+03  0.00000000000E+00 0. -1.
         -4   -1    0    0    0  501 -0.00000000000E+00 -0.00000000000E+00 -0.69369546686E+02  0.69369546686E+02  0.00000000000E+00 0.  1.
          5    1    1    2  502    0 -0.21901188626E+02  0.24018698924E+01  0.85221837349E+02  0.88149206482E+02  0.47000000000E+01 0. -1.
         -5    1    1    2    0  502  0.45294150771E+02 -0.34479601998E+02 -0.21547673305E+02  0.61047483755E+02  0.47000000000E+01 0.  1.
        -11    1    1    2    0    0  0.27330619734E+02 -0.16542088539E+02  0.15732124866E+02  0.35610436969E+02  0.00000000000E+00 0.  1.
         11    1    1    2    0    0 -0.50723581880E+02  0.48619820645E+02  0.57371470968E+02  0.90709726045E+02  0.00000000000E+00 0. -1.
<mgrwt>
<rscale>  0 0.12612516E+03</rscale>
<asrwt>0</asrwt>
<pdfrwt beam="1">  1        4 0.31714970E-01 0.13492684E+03</pdfrwt>
<pdfrwt beam="2">  1       -4 0.10672238E-01 0.13492684E+03</pdfrwt>
<totfact> 0.10706449E+03</totfact>
</mgrwt>
</event>
<event>
 7    1  0.6387485E-006  0.2459657E+03  0.7546771E-02  0.1116712E+00
          1   -1    0    0  501    0  0.00000000000E+00  0.00000000000E+00  0.98405681999E+03  0.98405681999E+03  0.00000000000E+00 0. -1.
         -1   -1    0    0    0  501 -0.00000000000E+00 -0.00000000000E+00 -0.60580493006E+02  0.60580493006E+02  0.00000000000E+00 0.  1.
         23    2    1    2    0    0 -0.14472669742E+03 -0.14645900684E+03  0.41630825498E+03  0.48097202525E+03  0.12500187311E+03 0.  0.
          5    1    3    3  502    0 -0.76196337385E+02 -0.77022017277E+01  0.20594100605E+03  0.21977032037E+03  0.47000000000E+01 0. -1.
         -5    1    3    3    0  502 -0.68530360038E+02 -0.13875680512E+03  0.21036724893E+03  0.26120170488E+03  0.47000000000E+01 0. -1.
        -11    1    1    2    0    0  0.14287975608E+02  0.23859407835E+02  0.21895263419E+01  0.27896444483E+02  0.00000000000E+00 0.  1.
         11    1    1    2    0    0  0.13043872181E+03  0.12259959901E+03  0.50497854566E+03  0.53576884326E+03  0.00000000000E+00 0. -1.
<mgrwt>
<rscale>  0 0.24468339E+03</rscale>
<asrwt>0</asrwt>
<pdfrwt beam="1">  1        1 0.15139335E+00 0.24596565E+03</pdfrwt>
<pdfrwt beam="2">  1       -1 0.93200766E-02 0.24596565E+03</pdfrwt>
<totfact> 0.11199553E+03</totfact>
</mgrwt>
</event>
<event>
 7    1  0.6387485E-006  0.1383031E+03  0.7546771E-02  0.1224992E+00
         -1   -1    0    0    0  501 -0.00000000000E+00  0.00000000000E+00  0.35920530394E+03  0.35920530394E+03  0.00000000000E+00 0.  1.
          1   -1    0    0  501    0  0.00000000000E+00 -0.00000000000E+00 -0.44228787868E+02  0.44228787868E+02  0.00000000000E+00 0. -1.
         23    2    1    2    0    0 -0.34042160253E+02 -0.58414675683E+02  0.17981620052E+03  0.22685154054E+03  0.12065078726E+03 0.  0.
          5    1    3    3  502    0 -0.43711497607E+01 -0.88527759782E+02  0.84838188597E+02  0.12278387291E+03  0.47000000000E+01 0. -1.
         -5    1    3    3    0  502 -0.29671010492E+02  0.30113084099E+02  0.94978011918E+02  0.10406766763E+03  0.47000000000E+01 0.  1.
        -11    1    1    2    0    0 -0.18868685778E+02  0.55578439003E+02  0.87201923616E+02  0.10511501162E+03  0.00000000000E+00 0.  1.
         11    1    1    2    0    0  0.52910846031E+02  0.28362366803E+01  0.47958391936E+02  0.71467539648E+02  0.00000000000E+00 0. -1.
<mgrwt>
<rscale>  0 0.13167483E+03</rscale>
<asrwt>0</asrwt>
<pdfrwt beam="2">  1        1 0.68044291E-02 0.13830313E+03</pdfrwt>
<pdfrwt beam="1">  1       -1 0.55262352E-01 0.13830313E+03</pdfrwt>
<totfact> 0.35545209E+03</totfact>
</mgrwt>
</event>
<event>
 7    1  0.7480127E-006  0.1745894E+03  0.7546771E-02  0.1179170E+00
          3   -1    0    0  501    0  0.00000000000E+00  0.00000000000E+00  0.12376460661E+04  0.12376460661E+04  0.00000000000E+00 0. -1.
         -3   -1    0    0    0  501 -0.00000000000E+00 -0.00000000000E+00 -0.21962342679E+02  0.21962342679E+02  0.00000000000E+00 0.  1.
         23    2    1    2    0    0 -0.22235220265E+01 -0.12186521677E+03  0.56660735506E+03  0.59289574547E+03  0.12500158030E+03 0.  0.
          5    1    3    3  502    0  0.29396367180E+02 -0.21504401249E+02  0.35120728216E+03  0.35312211871E+03  0.47000000000E+01 0. -1.
         -5    1    3    3    0  502 -0.31619889206E+02 -0.10036081552E+03  0.21540007290E+03  0.23977362676E+03  0.47000000000E+01 0. -1.
        -11    1    1    2    0    0 -0.43273641136E+02  0.74178110760E+02  0.33895237339E+03  0.34966228216E+03  0.00000000000E+00 0.  1.
         11    1    1    2    0    0  0.45497163163E+02  0.47687106013E+02  0.31012399498E+03  0.31705038116E+03  0.00000000000E+00 0. -1.
<mgrwt>
<rscale>  0 0.16873791E+03</rscale>
<asrwt>0</asrwt>
<pdfrwt beam="1">  1        3 0.19040703E+00 0.17458943E+03</pdfrwt>
<pdfrwt beam="2">  1       -3 0.33788229E-02 0.17458943E+03</pdfrwt>
<totfact> 0.18836152E+02</totfact>
</mgrwt>
</event>
<event>
 7    1  0.6387485E-006  0.1622672E+03  0.7546771E-02  0.1193506E+00
         -2   -1    0    0    0  501 -0.00000000000E+00  0.00000000000E+00  0.25415431345E+02  0.25415431345E+02  0.00000000000E+00 0.  1.
          2   -1    0    0  501    0  0.00000000000E+00 -0.00000000000E+00 -0.94690441864E+03  0.94690441864E+03  0.00000000000E+00 0. -1.
         23    2    1    2    0    0  0.10166600633E+03 -0.19157455653E+02 -0.37335836445E+03  0.40709596009E+03  0.12501066939E+03 0.  0.
          5    1    3    3  502    0  0.87106178096E+02 -0.53401004941E+02 -0.34564924511E+03  0.36046448401E+03  0.47000000000E+01 0. -1.
         -5    1    3    3    0  502  0.14559828233E+02  0.34243549288E+02 -0.27709119347E+02  0.46631476076E+02  0.47000000000E+01 0. -1.
        -11    1    1    2    0    0 -0.29621196636E+02 -0.27162939674E+02 -0.82351238867E+02  0.91634966714E+02  0.00000000000E+00 0.  1.
         11    1    1    2    0    0 -0.72044809693E+02  0.46320395326E+02 -0.46577938397E+03  0.47358892318E+03  0.00000000000E+00 0. -1.
<mgrwt>
<rscale>  0 0.15581362E+03</rscale>
<asrwt>0</asrwt>
<pdfrwt beam="2">  1        2 0.14567759E+00 0.16226723E+03</pdfrwt>
<pdfrwt beam="1">  1       -2 0.39100666E-02 0.16226723E+03</pdfrwt>
<totfact> 0.78679090E+03</totfact>
</mgrwt>
</event>
<event>
 7    1  0.6387485E-006  0.1277407E+03  0.7546771E-02  0.1242705E+00
          2   -1    0    0  501    0  0.00000000000E+00  0.00000000000E+00  0.21581787702E+02  0.21581787702E+02  0.00000000000E+00 0. -1.
         -2   -1    0    0    0  501 -0.00000000000E+00 -0.00000000000E+00 -0.62757718825E+03  0.62757718825E+03  0.00000000000E+00 0.  1.
         23    2    1    2    0    0 -0.24886038141E+02 -0.84859920098E+01 -0.40278441806E+03  0.42255527872E+03  0.12500539664E+03 0.  0.
          5    1    3    3  502    0 -0.56924202611E+02 -0.28647722007E+02 -0.35831112744E+03  0.36396429889E+03  0.47000000000E+01 0. -1.
         -5    1    3    3    0  502  0.32038164470E+02  0.20161729997E+02 -0.44473290624E+02  0.58590979835E+02  0.47000000000E+01 0. -1.
        -11    1    1    2    0    0  0.53773579221E+02 -0.85751368201E+01 -0.17331058366E+03  0.18166367056E+03  0.00000000000E+00 0.  1.
         11    1    1    2    0    0 -0.28887541081E+02  0.17061128830E+02 -0.29900398821E+02  0.44940026661E+02  0.00000000000E+00 0. -1.
<mgrwt>
<rscale>  0 0.12023810E+03</rscale>
<asrwt>0</asrwt>
<pdfrwt beam="1">  1        2 0.33202749E-02 0.12774066E+03</pdfrwt>
<pdfrwt beam="2">  1       -2 0.96550340E-01 0.12774066E+03</pdfrwt>
<totfact> 0.24173379E+03</totfact>
</mgrwt>
</event>
<event>
 7    1  0.6387485E-006  0.1628324E+03  0.7546771E-02  0.1192802E+00
         -2   -1    0    0    0  501 -0.00000000000E+00  0.00000000000E+00  0.37862429355E+02  0.37862429355E+02  0.00000000000E+00 0.  1.
          2   -1    0    0  501    0  0.00000000000E+00 -0.00000000000E+00 -0.64524543721E+03  0.64524543721E+03  0.00000000000E+00 0. -1.
         23    2    1    2    0    0  0.63188915988E+02 -0.83041647818E+02 -0.23631271477E+03  0.28698100726E+03  0.12500257993E+03 0.  0.
          5    1    3    3  502    0  0.27577151989E+02 -0.11243985532E+03 -0.17901860801E+03  0.21324392698E+03  0.47000000000E+01 0. -1.
         -5    1    3    3    0  502  0.35611763999E+02  0.29398207506E+02 -0.57294106758E+02  0.73737080285E+02  0.47000000000E+01 0. -1.
        -11    1    1    2    0    0  0.20433653356E+01  0.71735013250E+02 -0.17337308018E+03  0.18763878170E+03  0.00000000000E+00 0.  1.
         11    1    1    2    0    0 -0.65232281324E+02  0.11306634568E+02 -0.19769721291E+03  0.20848807760E+03  0.00000000000E+00 0. -1.
<mgrwt>
<rscale>  0 0.15641710E+03</rscale>
<asrwt>0</asrwt>
<pdfrwt beam="2">  1        2 0.99268526E-01 0.16283243E+03</pdfrwt>
<pdfrwt beam="1">  1       -2 0.58249893E-02 0.16283243E+03</pdfrwt>
<totfact> 0.69693589E+03</totfact>
</mgrwt>
</event>
<event>
 6    1  0.6387485E-006  0.1546073E+03  0.7546771E-02  0.1215675E+00
          1   -1    0    0  501    0  0.00000000000E+00  0.00000000000E+00  0.88018978635E+02  0.88018978635E+02  0.00000000000E+00 0. -1.
         -1   -1    0    0    0  501 -0.00000000000E+00 -0.00000000000E+00 -0.36504566522E+03  0.36504566522E+03  0.00000000000E+00 0.  1.
          5    1    1    2  502    0 -0.51803124103E+02 -0.27965468144E+02 -0.18769122162E+03  0.19676309550E+03  0.47000000000E+01 0. -1.
         -5    1    1    2    0  502  0.84116866421E+02  0.19585865052E+02 -0.12426736850E+03  0.15140581957E+03  0.47000000000E+01 0.  1.
        -11    1    1    2    0    0 -0.32229937966E+02 -0.35712374494E+02  0.37100728090E+02  0.60750363110E+02  0.00000000000E+00 0. -1.
         11    1    1    2    0    0 -0.83804352554E-01  0.44091977585E+02 -0.21688245489E+01  0.44145365674E+02  0.00000000000E+00 0.  1.
<mgrwt>
<rscale>  0 0.13827094E+03</rscale>
<asrwt>0</asrwt>
<pdfrwt beam="1">  1        1 0.13541381E-01 0.15460735E+03</pdfrwt>
<pdfrwt beam="2">  1       -1 0.56160872E-01 0.15460735E+03</pdfrwt>
<totfact> 0.13869286E+03</totfact>
</mgrwt>
</event>
<event>
 7    1  0.6387485E-006  0.1483012E+03  0.7546771E-02  0.1211657E+00
         -2   -1    0    0    0  501 -0.00000000000E+00  0.00000000000E+00  0.38400984084E+03  0.38400984084E+03  0.00000000000E+00 0.  1.
          2   -1    0    0  501    0  0.00000000000E+00 -0.00000000000E+00 -0.57784680170E+02  0.57784680170E+02  0.00000000000E+00 0. -1.
         23    2    1    2    0    0 -0.79558023099E+02  0.62482986540E+01  0.26861688746E+03  0.30683589772E+03  0.12499886249E+03 0.  0.
          5    1    3    3  502    0 -0.97786421877E+02  0.43012578882E+02  0.19782634297E+03  0.22487689570E+03  0.47000000000E+01 0. -1.
         -5    1    3    3    0  502  0.18228398778E+02 -0.36764280228E+02  0.70790544496E+02  0.81959002024E+02  0.47000000000E+01 0. -1.
        -11    1    1    2    0    0  0.47689853408E+02  0.48194539232E+01 -0.18758281645E+02  0.51472540101E+02  0.00000000000E+00 0. -1.
         11    1    1    2    0    0  0.31868169691E+02 -0.11067752577E+02  0.76366554849E+02  0.83486083187E+02  0.00000000000E+00 0.  1.
<mgrwt>
<rscale>  0 0.14125015E+03</rscale>
<asrwt>0</asrwt>
<pdfrwt beam="2">  1        2 0.88899510E-02 0.14830117E+03</pdfrwt>
<pdfrwt beam="1">  1       -2 0.59078435E-01 0.14830117E+03</pdfrwt>
<totfact> 0.19693195E+03</totfact>
</mgrwt>
</event>
<event>
 7    1  0.6387485E-006  0.1825073E+03  0.7546771E-02  0.1170824E+00
         -1   -1    0    0    0  501 -0.00000000000E+00  0.00000000000E+00  0.10819712571E+03  0.10819712571E+03  0.00000000000E+00 0.  1.
          1   -1    0    0  501    0  0.00000000000E+00 -0.00000000000E+00 -0.27306244572E+03  0.27306244572E+03  0.00000000000E+00 0. -1.
         23    2    1    2    0    0 -0.12986209590E+03  0.28644958985E+02 -0.82450131727E+02  0.20026718844E+03  0.12499689962E+03 0.  0.
          5    1    3    3  502    0 -0.88104423608E+02 -0.43816582524E+02 -0.49584623350E+02  0.11028602466E+03  0.47000000000E+01 0.  1.
         -5    1    3    3    0  502 -0.41757672297E+02  0.72461541509E+02 -0.32865508376E+02  0.89981163775E+02  0.47000000000E+01 0.  1.
        -11    1    1    2    0    0  0.70728147511E+02  0.15865385682E+02 -0.31641739195E+01  0.72554760766E+02  0.00000000000E+00 0.  1.
         11    1    1    2    0    0  0.59133948394E+02 -0.44510344666E+02 -0.79251014368E+02  0.10843762222E+03  0.00000000000E+00 0. -1.
<mgrwt>
<rscale>  0 0.17691343E+03</rscale>
<asrwt>0</asrwt>
<pdfrwt beam="2">  1        1 0.42009606E-01 0.18250732E+03</pdfrwt>
<pdfrwt beam="1">  1       -1 0.16645712E-01 0.18250732E+03</pdfrwt>
<totfact> 0.26387590E+03</totfact>
</mgrwt>
</event>
<event>
 6    1  0.6387485E-006  0.3580846E+03  0.7546771E-02  0.1099781E+00
         -2   -1    0    0    0  501 -0.00000000000E+00  0.00000000000E+00  0.12687948856E+03  0.12687948856E+03  0.00000000000E+00 0. -1.
          2   -1    0    0  501    0  0.00000000000E+00 -0.00000000000E+00 -0.45809433402E+03  0.45809433402E+03  0.00000000000E+00 0.  1.
          5    1    1    2  502    0  0.12641544394E+03  0.10610865865E+03 -0.29336501857E+02  0.16769803889E+03  0.47000000000E+01 0. -1.
         -5    1    1    2    0  502 -0.16327070700E+03 -0.36688835324E+02 -0.18557887147E+03  0.24992999408E+03  0.47000000000E+01 0.  1.
        -11    1    1    2    0    0 -0.17027292753E+02  0.13295810562E+02 -0.20159931555E+02  0.29548775225E+02  0.00000000000E+00 0.  1.
         11    1    1    2    0    0  0.53882555818E+02 -0.82715633890E+02 -0.96139540576E+02  0.13779701439E+03  0.00000000000E+00 0. -1.
<mgrwt>
<rscale>  0 0.27263505E+03</rscale>
<asrwt>0</asrwt>
<pdfrwt beam="2">  1        2 0.70476053E-01 0.35808457E+03</pdfrwt>
<pdfrwt beam="1">  1       -2 0.19519921E-01 0.35808457E+03</pdfrwt>
<totfact> 0.15100547E+03</totfact>
</mgrwt>
</event>
<event>
 7    1  0.6387485E-006  0.1362687E+03  0.7546771E-02  0.1230748E+00
          2   -1    0    0  501    0  0.00000000000E+00  0.00000000000E+00  0.67707336642E+03  0.67707336642E+03  0.00000000000E+00 0.  1.
         -2   -1    0    0    0  501 -0.00000000000E+00 -0.00000000000E+00 -0.21831662683E+02  0.21831662683E+02  0.00000000000E+00 0. -1.
         23    2    1    2    0    0  0.30747266053E+02 -0.44659339893E+02  0.40668040241E+03  0.42890338644E+03  0.12501725556E+03 0.  0.
          5    1    3    3  502    0  0.77536499089E+02 -0.16030433259E+02  0.27414727520E+03  0.28539043779E+03  0.47000000000E+01 0.  1.
         -5    1    3    3    0  502 -0.46789233036E+02 -0.28628906635E+02  0.13253312721E+03  0.14351294866E+03  0.47000000000E+01 0.  1.
        -11    1    1    2    0    0  0.20200113167E+02  0.35802437756E+02  0.17700524104E+03  0.18171602702E+03  0.00000000000E+00 0.  1.
         11    1    1    2    0    0 -0.50947379220E+02  0.88569021377E+01  0.71556060283E+02  0.88285615635E+02  0.00000000000E+00 0. -1.
<mgrwt>
<rscale>  0 0.12780601E+03</rscale>
<asrwt>0</asrwt>
<pdfrwt beam="1">  1        2 0.10416512E+00 0.13626872E+03</pdfrwt>
<pdfrwt beam="2">  1       -2 0.33587179E-02 0.13626872E+03</pdfrwt>
<totfact> 0.14851499E+04</totfact>
</mgrwt>
</event>
<event>
 7    1  0.6387485E-006  0.1901563E+03  0.7546771E-02  0.1163253E+00
          2   -1    0    0  501    0  0.00000000000E+00  0.00000000000E+00  0.54704788547E+03  0.54704788547E+03  0.00000000000E+00 0. -1.
         -2   -1    0    0    0  501 -0.00000000000E+00 -0.00000000000E+00 -0.59808384415E+02  0.59808384415E+02  0.00000000000E+00 0.  1.
         23    2    1    2    0    0  0.65279078744E+02  0.12756850978E+03  0.22520377649E+03  0.29474761936E+03  0.12499734142E+03 0.  0.
          5    1    3    3  502    0  0.78812126937E+02  0.14649487617E+03  0.19769407688E+03  0.25841272826E+03  0.47000000000E+01 0. -1.
         -5    1    3    3    0  502 -0.13533048193E+02 -0.18926366388E+02  0.27509699610E+02  0.36334891092E+02  0.47000000000E+01 0. -1.
        -11    1    1    2    0    0  0.10259992800E+01  0.13180068596E+02  0.13528553812E+02  0.18915302032E+02  0.00000000000E+00 0. -1.
         11    1    1    2    0    0 -0.66305078024E+02 -0.14074857838E+03  0.24850717075E+03  0.29319334850E+03  0.00000000000E+00 0.  1.
<mgrwt>
<rscale>  0 0.18478259E+03</rscale>
<asrwt>0</asrwt>
<pdfrwt beam="1">  1        2 0.84161210E-01 0.19015630E+03</pdfrwt>
<pdfrwt beam="2">  1       -2 0.92012903E-02 0.19015630E+03</pdfrwt>
<totfact> 0.41847887E+03</totfact>
</mgrwt>
</event>
<event>
 7    1  0.6387485E-006  0.2245043E+03  0.7546771E-02  0.1133770E+00
          2   -1    0    0  501    0  0.00000000000E+00  0.00000000000E+00  0.17545153008E+03  0.17545153008E+03  0.00000000000E+00 0.  1.
         -2   -1    0    0    0  501 -0.00000000000E+00 -0.00000000000E+00 -0.27965632977E+03  0.27965632977E+03  0.00000000000E+00 0. -1.
         23    2    1    2    0    0 -0.18311994510E+03 -0.35348945953E+02 -0.10422209643E+03  0.24751650444E+03  0.12497884746E+03 0.  0.
          5    1    3    3  502    0 -0.66873111045E+02 -0.54408722787E+02 -0.96330626130E+02  0.12935996918E+03  0.47000000000E+01 0. -1.
         -5    1    3    3    0  502 -0.11624683405E+03  0.19059776835E+02 -0.78914702984E+01  0.11815653525E+03  0.47000000000E+01 0. -1.
        -11    1    1    2    0    0  0.13806182940E+03  0.56802391673E+02  0.25667345664E+02  0.15148066896E+03  0.00000000000E+00 0.  1.
         11    1    1    2    0    0  0.45058115699E+02 -0.21453445720E+02 -0.25650048927E+02  0.56110686447E+02  0.00000000000E+00 0. -1.
<mgrwt>
<rscale>  0 0.22015107E+03</rscale>
<asrwt>0</asrwt>
<pdfrwt beam="1">  1        2 0.26992543E-01 0.22450429E+03</pdfrwt>
<pdfrwt beam="2">  1       -2 0.43024051E-01 0.22450429E+03</pdfrwt>
<totfact> 0.10175740E+03</totfact>
</mgrwt>
</event>
<event>
 7    1  0.6387485E-006  0.1408557E+03  0.7546771E-02  0.1220479E+00
         -2   -1    0    0    0  501 -0.00000000000E+00  0.00000000000E+00  0.14342269591E+03  0.14342269591E+03  0.00000000000E+00 0.  1.
          2   -1    0    0  501    0  0.00000000000E+00 -0.00000000000E+00 -0.12728000526E+03  0.12728000526E+03  0.00000000000E+00 0. -1.
         23    2    1    2    0    0 -0.73481927512E+02 -0.11464835372E+02  0.47074723341E+02  0.14851385553E+03  0.11962148463E+03 0.  0.
          5    1    3    3  502    0  0.15949950410E+02 -0.40677957424E+02  0.28845634721E+02  0.52566698400E+02  0.47000000000E+01 0. -1.
         -5    1    3    3    0  502 -0.89431877921E+02  0.29213122052E+02  0.18229088620E+02  0.95947157125E+02  0.47000000000E+01 0.  1.
        -11    1    1    2    0    0  0.56937555930E+02 -0.26494628771E+02 -0.46298045353E+02  0.78021533133E+02  0.00000000000E+00 0. -1.
         11    1    1    2    0    0  0.16544371582E+02  0.37959464143E+02  0.15366012666E+02  0.44167312509E+02  0.00000000000E+00 0.  1.
<mgrwt>
<rscale>  0 0.13481659E+03</rscale>
<asrwt>0</asrwt>
<pdfrwt beam="2">  1        2 0.19581539E-01 0.14085573E+03</pdfrwt>
<pdfrwt beam="1">  1       -2 0.22065030E-01 0.14085573E+03</pdfrwt>
<totfact> 0.48245716E+03</totfact>
</mgrwt>
</event>
<event>
 7    1  0.6387485E-006  0.1619646E+03  0.7546771E-02  0.1193671E+00
         -2   -1    0    0    0  501 -0.00000000000E+00  0.00000000000E+00  0.43444032459E+03  0.43444032459E+03  0.00000000000E+00 0.  1.
          2   -1    0    0  501    0  0.00000000000E+00 -0.00000000000E+00 -0.13634460685E+03  0.13634460685E+03  0.00000000000E+00 0. -1.
         23    2    1    2    0    0 -0.17309791856E+02 -0.10155519011E+03  0.37792099206E+03  0.41116519691E+03  0.12497782755E+03 0.  0.
          5    1    3    3  502    0 -0.47042519785E+02 -0.11509759969E+03  0.25279197000E+03  0.28175579181E+03  0.47000000000E+01 0.  1.
         -5    1    3    3    0  502  0.29732727928E+02  0.13542409578E+02  0.12512902206E+03  0.12940940510E+03  0.47000000000E+01 0.  1.
        -11    1    1    2    0    0  0.20707291568E+02  0.47596313418E+02  0.11802018885E+02  0.53230523432E+02  0.00000000000E+00 0.  1.
         11    1    1    2    0    0 -0.33974997113E+01  0.53958876690E+02 -0.91627293209E+02  0.10638921110E+03  0.00000000000E+00 0. -1.
<mgrwt>
<rscale>  0 0.15567270E+03</rscale>
<asrwt>0</asrwt>
<pdfrwt beam="2">  1        2 0.20976094E-01 0.16196463E+03</pdfrwt>
<pdfrwt beam="1">  1       -2 0.66836972E-01 0.16196463E+03</pdfrwt>
<totfact> 0.55107391E+02</totfact>
</mgrwt>
</event>
<event>
 7    1  0.6387485E-006  0.1437196E+03  0.7546771E-02  0.1217684E+00
         -3   -1    0    0    0  501 -0.00000000000E+00  0.00000000000E+00  0.15469680480E+03  0.15469680480E+03  0.00000000000E+00 0.  1.
          3   -1    0    0  501    0  0.00000000000E+00 -0.00000000000E+00 -0.12930252408E+03  0.12930252408E+03  0.00000000000E+00 0. -1.
         23    2    1    2    0    0  0.70824791886E+02 -0.35080204338E+01  0.67386704244E+02  0.15873340508E+03  0.12500747428E+03 0.  0.
          5    1    3    3  502    0  0.98826808373E+02 -0.23561783141E+02  0.26566844385E+02  0.10511794756E+03  0.47000000000E+01 0.  1.
         -5    1    3    3    0  502 -0.28002016487E+02  0.20053762707E+02  0.40819859859E+02  0.53615457519E+02  0.47000000000E+01 0.  1.
        -11    1    1    2    0    0 -0.28764038535E+02  0.67791296570E+01 -0.69076554563E+02  0.75132528921E+02  0.00000000000E+00 0. -1.
         11    1    1    2    0    0 -0.42060753351E+02 -0.32711092232E+01  0.27084131039E+02  0.50133394880E+02  0.00000000000E+00 0.  1.
<mgrwt>
<rscale>  0 0.13681189E+03</rscale>
<asrwt>0</asrwt>
<pdfrwt beam="2">  1        3 0.19892696E-01 0.14371961E+03</pdfrwt>
<pdfrwt beam="1">  1       -3 0.23799508E-01 0.14371961E+03</pdfrwt>
<totfact> 0.86684534E+02</totfact>
</mgrwt>
</event>
<event>
 7    1  0.6387485E-006  0.1664132E+03  0.7546771E-02  0.1188572E+00
          3   -1    0    0  501    0  0.00000000000E+00  0.00000000000E+00  0.42140684793E+03  0.42140684793E+03  0.00000000000E+00 0. -1.
         -3   -1    0    0    0  501 -0.00000000000E+00 -0.00000000000E+00 -0.72451802872E+02  0.72451802872E+02  0.00000000000E+00 0.  1.
         23    2    1    2    0    0  0.98823615757E+02 -0.47967919433E+02  0.69936295390E+02  0.18051159813E+03  0.12500529317E+03 0.  0.
          5    1    3    3  502    0  0.67565583204E+02 -0.68955065346E+01 -0.24857203256E+02  0.72475006711E+02  0.47000000000E+01 0.  1.
         -5    1    3    3    0  502  0.31258032553E+02 -0.41072412899E+02  0.94793498647E+02  0.10803659142E+03  0.47000000000E+01 0.  1.
        -11    1    1    2    0    0 -0.24493776302E+02  0.54337490463E+02  0.17836940361E+03  0.18806422331E+03  0.00000000000E+00 0. -1.
         11    1    1    2    0    0 -0.74329839455E+02 -0.63695710292E+01  0.10064934606E+03  0.12528282935E+03  0.00000000000E+00 0.  1.
<mgrwt>
<rscale>  0 0.16011098E+03</rscale>
<asrwt>0</asrwt>
<pdfrwt beam="1">  1        3 0.64831821E-01 0.16641320E+03</pdfrwt>
<pdfrwt beam="2">  1       -3 0.11146431E-01 0.16641320E+03</pdfrwt>
<totfact> 0.34441981E+02</totfact>
</mgrwt>
</event>
<event>
 7    1  0.6387485E-006  0.1538473E+03  0.7546771E-02  0.1204137E+00
          1   -1    0    0  501    0  0.00000000000E+00  0.00000000000E+00  0.34432065705E+03  0.34432065705E+03  0.00000000000E+00 0. -1.
         -1   -1    0    0    0  501 -0.00000000000E+00 -0.00000000000E+00 -0.61475943604E+02  0.61475943604E+02  0.00000000000E+00 0.  1.
         23    2    1    2    0    0  0.87754729650E+02 -0.18532288454E+02  0.10434100999E+03  0.18589251206E+03  0.12499856552E+03 0.  0.
          5    1    3    3  502    0  0.11569677424E+03 -0.28726802217E+02  0.99591316921E+02  0.15540750671E+03  0.47000000000E+01 0.  1.
         -5    1    3    3    0  502 -0.27942044591E+02  0.10194513763E+02  0.47496930718E+01  0.30485005348E+02  0.47000000000E+01 0.  1.
        -11    1    1    2    0    0  0.65413212883E+01  0.31403553553E+02  0.32846739237E+02  0.45911657980E+02  0.00000000000E+00 0. -1.
         11    1    1    2    0    0 -0.94296050938E+02 -0.12871265099E+02  0.14565696422E+03  0.17399243062E+03  0.00000000000E+00 0.  1.
<mgrwt>
<rscale>  0 0.14705637E+03</rscale>
<asrwt>0</asrwt>
<pdfrwt beam="1">  1        1 0.52972408E-01 0.15384726E+03</pdfrwt>
<pdfrwt beam="2">  1       -1 0.94578376E-02 0.15384726E+03</pdfrwt>
<totfact> 0.47279717E+03</totfact>
</mgrwt>
</event>
<event>
 7    1  0.6387485E-006  0.1288031E+03  0.7546771E-02  0.1243278E+00
          1   -1    0    0  501    0  0.00000000000E+00  0.00000000000E+00  0.76449360267E+02  0.76449360267E+02  0.00000000000E+00 0. -1.
         -1   -1    0    0    0  501 -0.00000000000E+00 -0.00000000000E+00 -0.30683525709E+03  0.30683525709E+03  0.00000000000E+00 0.  1.
         23    2    1    2    0    0 -0.28223359711E+02  0.13108989467E+02 -0.25308036267E+03  0.28397164603E+03  0.12498728793E+03 0.  0.
          5    1    3    3  502    0  0.16928858623E+02  0.55959447068E+02 -0.74645348893E+02  0.94931891805E+02  0.47000000000E+01 0. -1.
         -5    1    3    3    0  502 -0.45152218333E+02 -0.42850457601E+02 -0.17843501378E+03  0.18903975423E+03  0.47000000000E+01 0. -1.
        -11    1    1    2    0    0  0.28202305041E+02  0.36771983125E+02  0.60855553871E+01  0.46739520076E+02  0.00000000000E+00 0.  1.
         11    1    1    2    0    0  0.21054670121E-01 -0.49880972591E+02  0.16608910457E+02  0.52573451252E+02  0.00000000000E+00 0. -1.
<mgrwt>
<rscale>  0 0.11989046E+03</rscale>
<asrwt>0</asrwt>
<pdfrwt beam="1">  1        1 0.11761440E-01 0.12880305E+03</pdfrwt>
<pdfrwt beam="2">  1       -1 0.47205424E-01 0.12880305E+03</pdfrwt>
<totfact> 0.22798072E+03</totfact>
</mgrwt>
</event>
<event>
 7    1  0.6387485E-006  0.1360646E+03  0.7546771E-02  0.1228314E+00
         -1   -1    0    0    0  501 -0.00000000000E+00  0.00000000000E+00  0.17191528895E+02  0.17191528895E+02  0.00000000000E+00 0.  1.
          1   -1    0    0  501    0  0.00000000000E+00 -0.00000000000E+00 -0.94693979193E+03  0.94693979193E+03  0.00000000000E+00 0. -1.
         23    2    1    2    0    0  0.48400455577E+02  0.23383930665E+02 -0.39123588695E+03  0.41422106629E+03  0.12499664081E+03 0.  0.
          5    1    3    3  502    0  0.84999203856E+02  0.34176791616E+01 -0.18381435259E+03  0.20259899162E+03  0.47000000000E+01 0. -1.
         -5    1    3    3    0  502 -0.36598748279E+02  0.19966251503E+02 -0.20742153435E+03  0.21162207467E+03  0.47000000000E+01 0. -1.
        -11    1    1    2    0    0  0.11490636338E+02  0.28046177993E+02 -0.10579965083E+03  0.11005539032E+03  0.00000000000E+00 0.  1.
         11    1    1    2    0    0 -0.59891091915E+02 -0.51430108658E+02 -0.43271272526E+03  0.43985486421E+03  0.00000000000E+00 0. -1.
<mgrwt>
<rscale>  0 0.12942302E+03</rscale>
<asrwt>0</asrwt>
<pdfrwt beam="2">  1        1 0.14568306E+00 0.13606459E+03</pdfrwt>
<pdfrwt beam="1">  1       -1 0.26448504E-02 0.13606459E+03</pdfrwt>
<totfact> 0.77207101E+03</totfact>
</mgrwt>
</event>
<event>
 7    1  0.6387485E-006  0.1381965E+03  0.7546771E-02  0.1227266E+00
          2   -1    0    0  501    0  0.00000000000E+00  0.00000000000E+00  0.86354662431E+02  0.86354662431E+02  0.00000000000E+00 0. -1.
         -2   -1    0    0    0  501 -0.00000000000E+00 -0.00000000000E+00 -0.17640208078E+03  0.17640208078E+03  0.00000000000E+00 0.  1.
         23    2    1    2    0    0 -0.40265982019E+02  0.43018678178E+02 -0.49302627765E+02  0.14672766748E+03  0.12500521317E+03 0.  0.
          5    1    3    3  502    0 -0.84839468574E+02  0.24444176493E+02 -0.22226105492E+02  0.91166567105E+02  0.47000000000E+01 0. -1.
         -5    1    3    3    0  502  0.44573486555E+02  0.18574501685E+02 -0.27076522273E+02  0.55561100375E+02  0.47000000000E+01 0. -1.
        -11    1    1    2    0    0  0.24621402689E+02 -0.51259941816E+02 -0.64774393904E+02  0.86194647229E+02  0.00000000000E+00 0.  1.
         11    1    1    2    0    0  0.15644579330E+02  0.82412636381E+01  0.24029603316E+02  0.29834428506E+02  0.00000000000E+00 0. -1.
<mgrwt>
<rscale>  0 0.13012775E+03</rscale>
<asrwt>0</asrwt>
<pdfrwt beam="1">  1        2 0.13285333E-01 0.13819645E+03</pdfrwt>
<pdfrwt beam="2">  1       -2 0.27138782E-01 0.13819645E+03</pdfrwt>
<totfact> 0.52725041E+03</totfact>
</mgrwt>
</event>
<event>
 6    1  0.6387485E-006  0.1505937E+03  0.7546771E-02  0.1213176E+00
          2   -1    0    0  501    0  0.00000000000E+00  0.00000000000E+00  0.31642365558E+02  0.31642365558E+02  0.00000000000E+00 0. -1.
         -2   -1    0    0    0  501 -0.00000000000E+00 -0.00000000000E+00 -0.56742114804E+03  0.56742114804E+03  0.00000000000E+00 0.  1.
          5    1    1    2  502    0  0.13137850241E+02  0.19453524043E+02  0.33305803098E+01  0.24170756543E+02  0.47000000000E+01 0. -1.
         -5    1    1    2    0  502  0.40747954613E+02  0.18423269750E+02 -0.36269517642E+03  0.36547187809E+03  0.47000000000E+01 0.  1.
        -11    1    1    2    0    0  0.25450693550E+02 -0.17291857170E+02 -0.52487413210E+02  0.60841389465E+02  0.00000000000E+00 0. -1.
         11    1    1    2    0    0 -0.79336498404E+02 -0.20584936623E+02 -0.12392677316E+03  0.14857948950E+03  0.00000000000E+00 0.  1.
<mgrwt>
<rscale>  0 0.14011371E+03</rscale>
<asrwt>0</asrwt>
<pdfrwt beam="1">  1        2 0.48680559E-02 0.15059372E+03</pdfrwt>
<pdfrwt beam="2">  1       -2 0.87295568E-01 0.15059372E+03</pdfrwt>
<totfact> 0.18477347E+03</totfact>
</mgrwt>
</event>
<event>
 6    1  0.6387485E-006  0.1495296E+03  0.7546771E-02  0.1211538E+00
          1   -1    0    0  501    0  0.00000000000E+00  0.00000000000E+00  0.11453562945E+04  0.11453562945E+04  0.00000000000E+00 0. -1.
         -1   -1    0    0    0  501 -0.00000000000E+00 -0.00000000000E+00 -0.15969757366E+02  0.15969757366E+02  0.00000000000E+00 0.  1.
          5    1    1    2  502    0 -0.35765809542E+02 -0.20529083692E+02  0.49923682817E+03  0.50095921691E+03  0.47000000000E+01 0. -1.
         -5    1    1    2    0  502  0.10620073842E+02 -0.50023824393E+02  0.65462901805E+02  0.83202466839E+02  0.47000000000E+01 0.  1.
        -11    1    1    2    0    0  0.14568715589E+02 -0.18199855810E+02  0.55581996248E+02  0.60273049801E+02  0.00000000000E+00 0. -1.
         11    1    1    2    0    0  0.10577020112E+02  0.88752763895E+02  0.50910481088E+03  0.51689131828E+03  0.00000000000E+00 0.  1.
<mgrwt>
<rscale>  0 0.14133922E+03</rscale>
<asrwt>0</asrwt>
<pdfrwt beam="1">  1        1 0.17620860E+00 0.14952955E+03</pdfrwt>
<pdfrwt beam="2">  1       -1 0.24568866E-02 0.14952955E+03</pdfrwt>
<totfact> 0.62083755E+03</totfact>
</mgrwt>
</event>
<event>
 7    1  0.6387485E-006  0.1299028E+03  0.7546771E-02  0.1242713E+00
         -3   -1    0    0    0  501 -0.00000000000E+00  0.00000000000E+00  0.76678578611E+03  0.76678578611E+03  0.00000000000E+00 0.  1.
          3   -1    0    0  501    0  0.00000000000E+00 -0.00000000000E+00 -0.20139647165E+02  0.20139647165E+02  0.00000000000E+00 0. -1.
         23    2    1    2    0    0  0.28403171750E+02 -0.21048926702E+02  0.58510714364E+03  0.59935391039E+03  0.12499977151E+03 0.  0.
          5    1    3    3  502    0 -0.48396723200E+02  0.23552228520E+01  0.25364662222E+03  0.25827599357E+03  0.47000000000E+01 0.  1.
         -5    1    3    3    0  502  0.76799894950E+02 -0.23404149554E+02  0.33146052142E+03  0.34107791682E+03  0.47000000000E+01 0.  1.
        -11    1    1    2    0    0 -0.56483363967E+02  0.74991059651E+01  0.13534654743E+03  0.14685126794E+03  0.00000000000E+00 0.  1.
         11    1    1    2    0    0  0.28080192217E+02  0.13549820736E+02  0.26192447876E+02  0.40720254944E+02  0.00000000000E+00 0. -1.
<mgrwt>
<rscale>  0 0.12023304E+03</rscale>
<asrwt>0</asrwt>
<pdfrwt beam="2">  1        3 0.30984079E-02 0.12990281E+03</pdfrwt>
<pdfrwt beam="1">  1       -3 0.11796702E+00 0.12990281E+03</pdfrwt>
<totfact> 0.68673855E+02</totfact>
</mgrwt>
</event>
<event>
 7    1  0.6387485E-006  0.1297746E+03  0.7546771E-02  0.1241559E+00
          1   -1    0    0  501    0  0.00000000000E+00  0.00000000000E+00  0.53462637954E+02  0.53462637954E+02  0.00000000000E+00 0. -1.
         -1   -1    0    0    0  501 -0.00000000000E+00 -0.00000000000E+00 -0.28584715221E+03  0.28584715221E+03  0.00000000000E+00 0.  1.
         23    2    1    2    0    0  0.14787199231E+02 -0.31585216450E+02 -0.19563187693E+03  0.23476214736E+03  0.12500058961E+03 0.  0.
          5    1    3    3  502    0  0.60600564713E+02 -0.10586127034E+02 -0.16363834773E+03  0.17488308488E+03  0.47000000000E+01 0. -1.
         -5    1    3    3    0  502 -0.45813365482E+02 -0.20999089416E+02 -0.31993529199E+02  0.59879062482E+02  0.47000000000E+01 0. -1.
        -11    1    1    2    0    0  0.97119020942E+01 -0.27231760669E+02  0.35907806354E+01  0.29133889836E+02  0.00000000000E+00 0. -1.
         11    1    1    2    0    0 -0.24499101325E+02  0.58816977119E+02 -0.40343417957E+02  0.75413752961E+02  0.00000000000E+00 0.  1.
<mgrwt>
<rscale>  0 0.12093715E+03</rscale>
<asrwt>0</asrwt>
<pdfrwt beam="1">  1        1 0.82250213E-02 0.12977455E+03</pdfrwt>
<pdfrwt beam="2">  1       -1 0.43976485E-01 0.12977455E+03</pdfrwt>
<totfact> 0.41589980E+03</totfact>
</mgrwt>
</event>
<event>
 7    1  0.6387485E-006  0.1338682E+03  0.7546771E-02  0.1236483E+00
         -1   -1    0    0    0  501 -0.00000000000E+00  0.00000000000E+00  0.18995378299E+03  0.18995378299E+03  0.00000000000E+00 0.  1.
          1   -1    0    0  501    0  0.00000000000E+00 -0.00000000000E+00 -0.76623231466E+02  0.76623231466E+02  0.00000000000E+00 0. -1.
         23    2    1    2    0    0  0.31818773844E+02  0.35132680543E+02  0.99392398309E+02  0.16673198659E+03  0.12519571438E+03 0.  0.
          5    1    3    3  502    0  0.60427250819E+02  0.60807155333E+02  0.94534912589E+02  0.12770239810E+03  0.47000000000E+01 0.  1.
         -5    1    3    3    0  502 -0.28608476975E+02 -0.25674474790E+02  0.48574857200E+01  0.39029588495E+02  0.47000000000E+01 0.  1.
        -11    1    1    2    0    0  0.14205900805E+02 -0.48281849807E+02  0.13289834525E+01  0.50345911805E+02  0.00000000000E+00 0.  1.
         11    1    1    2    0    0 -0.46024674649E+02  0.13149169264E+02  0.12609169767E+02  0.49499116064E+02  0.00000000000E+00 0. -1.
<mgrwt>
<rscale>  0 0.12409990E+03</rscale>
<asrwt>0</asrwt>
<pdfrwt beam="2">  1        1 0.11788190E-01 0.13386824E+03</pdfrwt>
<pdfrwt beam="1">  1       -1 0.29223659E-01 0.13386824E+03</pdfrwt>
<totfact> 0.52295149E+03</totfact>
</mgrwt>
</event>
<event>
 7    1  0.6387485E-006  0.1329110E+03  0.7546771E-02  0.1230797E+00
          2   -1    0    0  501    0  0.00000000000E+00  0.00000000000E+00  0.43647687454E+03  0.43647687454E+03  0.00000000000E+00 0. -1.
         -2   -1    0    0    0  501 -0.00000000000E+00 -0.00000000000E+00 -0.55986137775E+02  0.55986137775E+02  0.00000000000E+00 0.  1.
         23    2    1    2    0    0 -0.11440803940E+02  0.67101399202E+02  0.48307590595E+02  0.14141771626E+03  0.11415716094E+03 0.  0.
          5    1    3    3  502    0 -0.35499549716E+02  0.11254630574E+02  0.67707849171E+02  0.77416584650E+02  0.47000000000E+01 0. -1.
         -5    1    3    3    0  502  0.24058745777E+02  0.55846768628E+02 -0.19400258576E+02  0.64001131610E+02  0.47000000000E+01 0.  1.
        -11    1    1    2    0    0  0.37183812151E+02 -0.19085013765E+01  0.17539337615E+03  0.17930174193E+03  0.00000000000E+00 0.  1.
         11    1    1    2    0    0 -0.25743008212E+02 -0.65192897826E+02  0.15678977002E+03  0.17174355412E+03  0.00000000000E+00 0. -1.
<mgrwt>
<rscale>  0 0.12777340E+03</rscale>
<asrwt>0</asrwt>
<pdfrwt beam="1">  1        2 0.67150286E-01 0.13291105E+03</pdfrwt>
<pdfrwt beam="2">  1       -2 0.86132523E-02 0.13291105E+03</pdfrwt>
<totfact> 0.58479491E+03</totfact>
</mgrwt>
</event>
<event>
 7    1  0.6387485E-006  0.1275601E+03  0.7546771E-02  0.1250085E+00
         -1   -1    0    0    0  501 -0.00000000000E+00  0.00000000000E+00  0.41735130748E+03  0.41735130748E+03  0.00000000000E+00 0.  1.
          1   -1    0    0  501    0  0.00000000000E+00 -0.00000000000E+00 -0.28937256169E+02  0.28937256169E+02  0.00000000000E+00 0. -1.
         23    2    1    2    0    0  0.47301422728E+01  0.24991046649E+02  0.27768762913E+03  0.30558466633E+03  0.12499856906E+03 0.  0.
          5    1    3    3  502    0 -0.15045311785E+01  0.42155715090E+02  0.28286359111E+03  0.28603018915E+03  0.47000000000E+01 0.  1.
         -5    1    3    3    0  502  0.62346734513E+01 -0.17164668440E+02 -0.51759619762E+01  0.19554477188E+02  0.47000000000E+01 0.  1.
        -11    1    1    2    0    0  0.23314800108E+02 -0.17143807149E+02  0.29814195777E+01  0.29092591674E+02  0.00000000000E+00 0. -1.
         11    1    1    2    0    0 -0.28044942381E+02 -0.78472395002E+01  0.10774500260E+03  0.11161130564E+03  0.00000000000E+00 0.  1.
<mgrwt>
<rscale>  0 0.11586109E+03</rscale>
<asrwt>0</asrwt>
<pdfrwt beam="2">  1        1 0.44518859E-02 0.12756006E+03</pdfrwt>
<pdfrwt beam="1">  1       -1 0.64207889E-01 0.12756006E+03</pdfrwt>
<totfact> 0.47401618E+03</totfact>
</mgrwt>
</event>
<event>
 7    1  0.6387485E-006  0.1387131E+03  0.7546771E-02  0.1225823E+00
         -1   -1    0    0    0  501 -0.00000000000E+00  0.00000000000E+00  0.27340700725E+03  0.27340700725E+03  0.00000000000E+00 0.  1.
          1   -1    0    0  501    0  0.00000000000E+00 -0.00000000000E+00 -0.59311763409E+02  0.59311763409E+02  0.00000000000E+00 0. -1.
         23    2    1    2    0    0 -0.56989429955E+02 -0.19195630533E+02  0.15205556606E+03  0.20582085760E+03  0.12500025158E+03 0.  0.
          5    1    3    3  502    0  0.37398622055E+02 -0.21284904720E+02  0.58986992277E+02  0.73165971315E+02  0.47000000000E+01 0. -1.
         -5    1    3    3    0  502 -0.94388052010E+02  0.20892741865E+01  0.93068573785E+02  0.13265488628E+03  0.47000000000E+01 0. -1.
        -11    1    1    2    0    0 -0.17987283058E+02  0.16850984409E+02  0.42908002628E+02  0.49483277144E+02  0.00000000000E+00 0.  1.
         11    1    1    2    0    0  0.74976713013E+02  0.23446461243E+01  0.19131675149E+02  0.77414635914E+02  0.00000000000E+00 0. -1.
<mgrwt>
<rscale>  0 0.13110631E+03</rscale>
<asrwt>0</asrwt>
<pdfrwt beam="2">  1        1 0.91248868E-02 0.13871312E+03</pdfrwt>
<pdfrwt beam="1">  1       -1 0.42062616E-01 0.13871312E+03</pdfrwt>
<totfact> 0.39339876E+03</totfact>
</mgrwt>
</event>
<event>
 7    1  0.6387485E-006  0.1704720E+03  0.7546771E-02  0.1183797E+00
          1   -1    0    0  501    0  0.00000000000E+00  0.00000000000E+00  0.86520868124E+02  0.86520868124E+02  0.00000000000E+00 0. -1.
         -1   -1    0    0    0  501 -0.00000000000E+00 -0.00000000000E+00 -0.29849150399E+03  0.29849150399E+03  0.00000000000E+00 0.  1.
         23    2    1    2    0    0 -0.33209318893E+02 -0.11105607416E+03 -0.14141104805E+03  0.22148991915E+03  0.12499755720E+03 0.  0.
          5    1    3    3  502    0  0.31518842397E+02 -0.15387090009E+02  0.41243620735E+01  0.35627241368E+02  0.47000000000E+01 0.  1.
         -5    1    3    3    0  502 -0.64728161290E+02 -0.95668984153E+02 -0.14553541012E+03  0.18586267778E+03  0.47000000000E+01 0.  1.
        -11    1    1    2    0    0  0.60331146073E+02  0.55850883259E+02 -0.21863198669E+02  0.85071545204E+02  0.00000000000E+00 0.  1.
         11    1    1    2    0    0 -0.27121827180E+02  0.55205190903E+02 -0.48696389150E+02  0.78450907761E+02  0.00000000000E+00 0. -1.
<mgrwt>
<rscale>  0 0.16441804E+03</rscale>
<asrwt>0</asrwt>
<pdfrwt beam="1">  1        1 0.13310903E-01 0.17047199E+03</pdfrwt>
<pdfrwt beam="2">  1       -1 0.45921770E-01 0.17047199E+03</pdfrwt>
<totfact> 0.20608990E+03</totfact>
</mgrwt>
</event>
<event>
 7    1  0.6387485E-006  0.1856332E+03  0.7546771E-02  0.1167608E+00
          2   -1    0    0  501    0  0.00000000000E+00  0.00000000000E+00  0.34337646557E+03  0.34337646557E+03  0.00000000000E+00 0. -1.
         -2   -1    0    0    0  501 -0.00000000000E+00 -0.00000000000E+00 -0.95344051646E+02  0.95344051646E+02  0.00000000000E+00 0.  1.
         23    2    1    2    0    0 -0.10489957928E+03  0.88502985583E+02  0.76374492464E+02  0.20073056927E+03  0.12499199235E+03 0.  0.
          5    1    3    3  502    0 -0.13852600740E+02  0.92508879119E+02  0.29856699569E+02  0.98302084272E+02  0.47000000000E+01 0.  1.
         -5    1    3    3    0  502 -0.91046978537E+02 -0.40058935365E+01  0.46517792895E+02  0.10242848500E+03  0.47000000000E+01 0.  1.
        -11    1    1    2    0    0  0.94166211185E+02 -0.83129541206E+02  0.18267752076E+03  0.22169544998E+03  0.00000000000E+00 0. -1.
         11    1    1    2    0    0  0.10733368091E+02 -0.53734443768E+01 -0.11019599302E+02  0.16294497962E+02  0.00000000000E+00 0.  1.
<mgrwt>
<rscale>  0 0.18020156E+03</rscale>
<asrwt>0</asrwt>
<pdfrwt beam="1">  1        2 0.52827148E-01 0.18563324E+03</pdfrwt>
<pdfrwt beam="2">  1       -2 0.14668316E-01 0.18563324E+03</pdfrwt>
<totfact> 0.32906813E+03</totfact>
</mgrwt>
</event>
<event>
 6    1  0.6387485E-006  0.2190751E+03  0.7546771E-02  0.1143516E+00
          2   -1    0    0  501    0  0.00000000000E+00  0.00000000000E+00  0.87841536621E+02  0.87841536621E+02  0.00000000000E+00 0. -1.
         -2   -1    0    0    0  501 -0.00000000000E+00 -0.00000000000E+00 -0.86260825939E+03  0.86260825939E+03  0.00000000000E+00 0.  1.
          5    1    1    2  502    0  0.75855639468E+01 -0.38424931545E+02 -0.11071565564E+03  0.11753324019E+03  0.47000000000E+01 0. -1.
         -5    1    1    2    0  502 -0.16565701337E+03  0.67372928579E+02 -0.62771408213E+03  0.65270852337E+03  0.47000000000E+01 0.  1.
        -11    1    1    2    0    0  0.70983451298E+02  0.15970894016E+02  0.69375412137E+01  0.73087955861E+02  0.00000000000E+00 0. -1.
         11    1    1    2    0    0  0.87087998122E+02 -0.44918891049E+02 -0.43274526217E+02  0.10712007659E+03  0.00000000000E+00 0.  1.
<mgrwt>
<rscale>  0 0.20755584E+03</rscale>
<asrwt>0</asrwt>
<pdfrwt beam="1">  1        2 0.13514083E-01 0.21907509E+03</pdfrwt>
<pdfrwt beam="2">  1       -2 0.13270896E+00 0.21907509E+03</pdfrwt>
<totfact> 0.19194786E+02</totfact>
</mgrwt>
</event>
<event>
 7    1  0.6387485E-006  0.2201625E+03  0.7546771E-02  0.1135461E+00
          2   -1    0    0  501    0  0.00000000000E+00  0.00000000000E+00  0.87799206607E+03  0.87799206607E+03  0.00000000000E+00 0. -1.
         -2   -1    0    0    0  501 -0.00000000000E+00 -0.00000000000E+00 -0.55825146735E+02  0.55825146735E+02  0.00000000000E+00 0.  1.
         23    2    1    2    0    0 -0.10821557424E+03  0.15462609829E+03  0.31398554054E+03  0.38348197894E+03  0.11336519625E+03 0.  0.
          5    1    3    3  502    0 -0.10601741987E+03  0.77002398167E+02  0.25177816373E+03  0.28387214793E+03  0.47000000000E+01 0. -1.
         -5    1    3    3    0  502 -0.21981543679E+01  0.77623700126E+02  0.62207376812E+02  0.99609831009E+02  0.47000000000E+01 0.  1.
        -11    1    1    2    0    0  0.68285123052E+02 -0.15616497795E+03  0.42963480795E+03  0.46220820695E+03  0.00000000000E+00 0.  1.
         11    1    1    2    0    0  0.39930451183E+02  0.15388796527E+01  0.78546570843E+02  0.88127026918E+02  0.00000000000E+00 0. -1.
<mgrwt>
<rscale>  0 0.21789603E+03</rscale>
<asrwt>0</asrwt>
<pdfrwt beam="1">  1        2 0.13507569E+00 0.22016246E+03</pdfrwt>
<pdfrwt beam="2">  1       -2 0.85884848E-02 0.22016246E+03</pdfrwt>
<totfact> 0.26417851E+03</totfact>
</mgrwt>
</event>
<event>
 7    1  0.6387485E-006  0.1542261E+03  0.7546771E-02  0.1203765E+00
         -1   -1    0    0    0  501 -0.00000000000E+00  0.00000000000E+00  0.15615231110E+03  0.15615231110E+03  0.00000000000E+00 0.  1.
          1   -1    0    0  501    0  0.00000000000E+00 -0.00000000000E+00 -0.14179304311E+03  0.14179304311E+03  0.00000000000E+00 0. -1.
         23    2    1    2    0    0  0.68387741254E+02  0.59031945423E+02  0.54077556234E+02  0.16343215787E+03  0.12499613756E+03 0.  0.
          5    1    3    3  502    0  0.50176448909E+02  0.67557095574E+01  0.85594649709E+02  0.99558272864E+02  0.47000000000E+01 0.  1.
         -5    1    3    3    0  502  0.18211292345E+02  0.52276235866E+02 -0.31517093476E+02  0.63873885010E+02  0.47000000000E+01 0.  1.
        -11    1    1    2    0    0 -0.36909246608E+02  0.14088265347E+02 -0.38105060811E+02  0.54888681575E+02  0.00000000000E+00 0. -1.
         11    1    1    2    0    0 -0.31478494647E+02 -0.73120210770E+02 -0.16132274300E+01  0.79624514762E+02  0.00000000000E+00 0.  1.
<mgrwt>
<rscale>  0 0.14735245E+03</rscale>
<asrwt>0</asrwt>
<pdfrwt beam="2">  1        1 0.21814314E-01 0.15422609E+03</pdfrwt>
<pdfrwt beam="1">  1       -1 0.24023432E-01 0.15422609E+03</pdfrwt>
<totfact> 0.32949951E+03</totfact>
</mgrwt>
</event>
<event>
 7    1  0.6387485E-006  0.1749363E+03  0.7546771E-02  0.1179877E+00
         -2   -1    0    0    0  501 -0.00000000000E+00  0.00000000000E+00  0.14815477306E+03  0.14815477306E+03  0.00000000000E+00 0.  1.
          2   -1    0    0  501    0  0.00000000000E+00 -0.00000000000E+00 -0.18254531892E+03  0.18254531892E+03  0.00000000000E+00 0. -1.
         23    2    1    2    0    0  0.11347307741E+03  0.45845870122E+02 -0.46959567840E+02  0.18112951723E+03  0.12499887157E+03 0.  0.
          5    1    3    3  502    0  0.69742459498E+02  0.21421649224E+01 -0.83690048015E+02  0.10906288857E+03  0.47000000000E+01 0.  1.
         -5    1    3    3    0  502  0.43730617917E+02  0.43703705200E+02  0.36730480175E+02  0.72066628654E+02  0.47000000000E+01 0.  1.
        -11    1    1    2    0    0 -0.63340649189E+02  0.19731006758E+02  0.89850498432E+01  0.66948350152E+02  0.00000000000E+00 0.  1.
         11    1    1    2    0    0 -0.50132428226E+02 -0.65576876881E+02  0.35839721366E+01  0.82622224598E+02  0.00000000000E+00 0. -1.
<mgrwt>
<rscale>  0 0.16806866E+03</rscale>
<asrwt>0</asrwt>
<pdfrwt beam="2">  1        2 0.28083895E-01 0.17493628E+03</pdfrwt>
<pdfrwt beam="1">  1       -2 0.22793042E-01 0.17493628E+03</pdfrwt>
<totfact> 0.30867758E+03</totfact>
</mgrwt>
</event>
<event>
 7    1  0.6387485E-006  0.1743903E+03  0.7546771E-02  0.1179401E+00
          2   -1    0    0  501    0  0.00000000000E+00  0.00000000000E+00  0.38827038488E+03  0.38827038488E+03  0.00000000000E+00 0. -1.
         -2   -1    0    0    0  501 -0.00000000000E+00 -0.00000000000E+00 -0.70802840353E+02  0.70802840353E+02  0.00000000000E+00 0.  1.
         23    2    1    2    0    0  0.31805113865E+02 -0.11737617662E+03  0.12905231888E+03  0.21694812877E+03  0.12499302966E+03 0.  0.
          5    1    3    3  502    0 -0.46782258804E+02 -0.31837840656E+02  0.55373610880E+02  0.79313016701E+02  0.47000000000E+01 0. -1.
         -5    1    3    3    0  502  0.78587372669E+02 -0.85538335964E+02  0.73678707998E+02  0.13763511207E+03  0.47000000000E+01 0. -1.
        -11    1    1    2    0    0  0.19549807158E+02  0.15966272113E+02  0.40938253494E+01  0.25571003325E+02  0.00000000000E+00 0.  1.
         11    1    1    2    0    0 -0.51354921023E+02  0.10140990451E+03  0.18432140030E+03  0.21655409314E+03  0.00000000000E+00 0. -1.
<mgrwt>
<rscale>  0 0.16851956E+03</rscale>
<asrwt>0</asrwt>
<pdfrwt beam="1">  1        2 0.59733904E-01 0.17439034E+03</pdfrwt>
<pdfrwt beam="2">  1       -2 0.10892745E-01 0.17439034E+03</pdfrwt>
<totfact> 0.46517187E+03</totfact>
</mgrwt>
</event>
<event>
 7    1  0.6387485E-006  0.1422691E+03  0.7546771E-02  0.1220436E+00
         -2   -1    0    0    0  501 -0.00000000000E+00  0.00000000000E+00  0.93336444608E+02  0.93336444608E+02  0.00000000000E+00 0.  1.
          2   -1    0    0  501    0  0.00000000000E+00 -0.00000000000E+00 -0.18339666762E+03  0.18339666762E+03  0.00000000000E+00 0. -1.
         23    2    1    2    0    0 -0.48105962961E+02 -0.47962918122E+02 -0.24051509797E+02  0.14428778344E+03  0.12500345650E+03 0.  0.
          5    1    3    3  502    0 -0.64065993885E+02 -0.56652963101E+02 -0.59422023805E+02  0.10424527190E+03  0.47000000000E+01 0.  1.
         -5    1    3    3    0  502  0.15960030924E+02  0.86900449788E+01  0.35370514008E+02  0.40042511535E+02  0.47000000000E+01 0.  1.
        -11    1    1    2    0    0  0.38205968981E+02 -0.18553656861E+02 -0.71378456162E+01  0.43068353680E+02  0.00000000000E+00 0. -1.
         11    1    1    2    0    0  0.98999939803E+01  0.66516574984E+02 -0.58870867599E+02  0.89376975112E+02  0.00000000000E+00 0.  1.
<mgrwt>
<rscale>  0 0.13484701E+03</rscale>
<asrwt>0</asrwt>
<pdfrwt beam="2">  1        2 0.28214872E-01 0.14226907E+03</pdfrwt>
<pdfrwt beam="1">  1       -2 0.14359453E-01 0.14226907E+03</pdfrwt>
<totfact> 0.65894039E+03</totfact>
</mgrwt>
</event>
<event>
 7    1  0.6387485E-006  0.2211252E+03  0.7546771E-02  0.1136246E+00
         -1   -1    0    0    0  501 -0.00000000000E+00  0.00000000000E+00  0.97223638181E+03  0.97223638181E+03  0.00000000000E+00 0.  1.
          1   -1    0    0  501    0  0.00000000000E+00 -0.00000000000E+00 -0.46738040557E+02  0.46738040557E+02  0.00000000000E+00 0. -1.
         23    2    1    2    0    0  0.33643014825E+02 -0.17926649224E+03  0.45239080657E+03  0.50354125089E+03  0.12501208657E+03 0.  0.
          5    1    3    3  502    0 -0.24885252648E+02 -0.95518342121E+02  0.32765784424E+03  0.34223498122E+03  0.47000000000E+01 0.  1.
         -5    1    3    3    0  502  0.58528267472E+02 -0.83748150122E+02  0.12473296234E+03  0.16130626967E+03  0.47000000000E+01 0.  1.
        -11    1    1    2    0    0  0.29296250330E+02  0.56187303340E+02  0.19176557048E+03  0.20196365357E+03  0.00000000000E+00 0.  1.
         11    1    1    2    0    0 -0.62939265155E+02  0.12307918890E+03  0.28134196420E+03  0.31346951791E+03  0.00000000000E+00 0. -1.
<mgrwt>
<rscale>  0 0.21685948E+03</rscale>
<asrwt>0</asrwt>
<pdfrwt beam="2">  1        1 0.71904685E-02 0.22112519E+03</pdfrwt>
<pdfrwt beam="1">  1       -1 0.14957481E+00 0.22112519E+03</pdfrwt>
<totfact> 0.38379637E+02</totfact>
</mgrwt>
</event>
<event>
 7    1  0.6387485E-006  0.1419533E+03  0.7546771E-02  0.1221591E+00
         -2   -1    0    0    0  501 -0.00000000000E+00  0.00000000000E+00  0.39524911616E+02  0.39524911616E+02  0.00000000000E+00 0.  1.
          2   -1    0    0  501    0  0.00000000000E+00 -0.00000000000E+00 -0.46491949386E+03  0.46491949386E+03  0.00000000000E+00 0. -1.
         23    2    1    2    0    0 -0.19777604875E+02  0.64304147558E+02 -0.14844216212E+03  0.20539185141E+03  0.12499824032E+03 0.  0.
          5    1    3    3  502    0  0.36585328199E+02  0.71295028373E+02 -0.60160133593E+02  0.10031350350E+03  0.47000000000E+01 0.  1.
         -5    1    3    3    0  502 -0.56362933073E+02 -0.69908808153E+01 -0.88282028528E+02  0.10507834791E+03  0.47000000000E+01 0.  1.
        -11    1    1    2    0    0 -0.28196078869E+02 -0.42268254230E+02 -0.77036374023E+02  0.92283406428E+02  0.00000000000E+00 0.  1.
         11    1    1    2    0    0  0.47973683744E+02 -0.22035893328E+02 -0.19991604610E+03  0.20676914764E+03  0.00000000000E+00 0. -1.
<mgrwt>
<rscale>  0 0.13403300E+03</rscale>
<asrwt>0</asrwt>
<pdfrwt beam="2">  1        2 0.71526077E-01 0.14195329E+03</pdfrwt>
<pdfrwt beam="1">  1       -2 0.60807556E-02 0.14195329E+03</pdfrwt>
<totfact> 0.93570822E+03</totfact>
</mgrwt>
</event>
<event>
 7    1  0.6387485E-006  0.2165609E+03  0.7546771E-02  0.1139735E+00
         -3   -1    0    0    0  501 -0.00000000000E+00  0.00000000000E+00  0.16851429133E+03  0.16851429133E+03  0.00000000000E+00 0.  1.
          3   -1    0    0  501    0  0.00000000000E+00 -0.00000000000E+00 -0.53465517589E+03  0.53465517589E+03  0.00000000000E+00 0. -1.
         23    2    1    2    0    0  0.49971925750E+02  0.17089911850E+03  0.66454061766E+02  0.22652760192E+03  0.12326763582E+03 0.  0.
          5    1    3    3  502    0  0.21569003785E+01  0.16623736181E+02 -0.32629829563E+02  0.36983734278E+02  0.47000000000E+01 0. -1.
         -5    1    3    3    0  502  0.47815025372E+02  0.15427538232E+03  0.99083891329E+02  0.18954386764E+03  0.47000000000E+01 0.  1.
        -11    1    1    2    0    0 -0.17582879669E+02 -0.11610205252E+02 -0.89670121893E+01  0.22898948252E+02  0.00000000000E+00 0.  1.
         11    1    1    2    0    0 -0.32389046082E+02 -0.15928891324E+03 -0.42362793413E+03  0.45374291704E+03  0.00000000000E+00 0. -1.
<mgrwt>
<rscale>  0 0.21232888E+03</rscale>
<asrwt>0</asrwt>
<pdfrwt beam="2">  1        3 0.82254644E-01 0.21656087E+03</pdfrwt>
<pdfrwt beam="1">  1       -3 0.25925275E-01 0.21656087E+03</pdfrwt>
<totfact> 0.48510292E+01</totfact>
</mgrwt>
</event>
<event>
 7    1  0.6387485E-006  0.1575475E+03  0.7546771E-02  0.1199347E+00
         -2   -1    0    0    0  501 -0.00000000000E+00  0.00000000000E+00  0.24214810748E+02  0.24214810748E+02  0.00000000000E+00 0.  1.
          2   -1    0    0  501    0  0.00000000000E+00 -0.00000000000E+00 -0.93022361381E+03  0.93022361381E+03  0.00000000000E+00 0. -1.
         23    2    1    2    0    0 -0.95908257262E+02  0.17337430325E+00 -0.36784707634E+03  0.40016581120E+03  0.12499112371E+03 0.  0.
          5    1    3    3  502    0 -0.96513427308E+02 -0.42820856824E+02 -0.31270286132E+03  0.33008125804E+03  0.47000000000E+01 0.  1.
         -5    1    3    3    0  502  0.60517004561E+00  0.42994231128E+02 -0.55144215023E+02  0.70084553159E+02  0.47000000000E+01 0.  1.
        -11    1    1    2    0    0  0.33553897191E+02  0.44661763411E+02 -0.22464146644E+03  0.23148288397E+03  0.00000000000E+00 0.  1.
         11    1    1    2    0    0  0.62354360071E+02 -0.44835137714E+02 -0.31352026027E+03  0.32278972938E+03  0.00000000000E+00 0. -1.
<mgrwt>
<rscale>  0 0.15092039E+03</rscale>
<asrwt>0</asrwt>
<pdfrwt beam="2">  1        2 0.14311134E+00 0.15754747E+03</pdfrwt>
<pdfrwt beam="1">  1       -2 0.37253552E-02 0.15754747E+03</pdfrwt>
<totfact> 0.86476187E+03</totfact>
</mgrwt>
</event>
<event>
 7    1  0.6387485E-006  0.1366085E+03  0.7546771E-02  0.1230500E+00
          1   -1    0    0  501    0  0.00000000000E+00  0.00000000000E+00  0.92674813880E+03  0.92674813880E+03  0.00000000000E+00 0. -1.
         -1   -1    0    0    0  501 -0.00000000000E+00 -0.00000000000E+00 -0.15774049968E+02  0.15774049968E+02  0.00000000000E+00 0.  1.
         23    2    1    2    0    0  0.50029792948E+02  0.23104093805E+02  0.51032523684E+03  0.52829321546E+03  0.12500037923E+03 0.  0.
          5    1    3    3  502    0  0.70655052128E+02  0.34413696338E+02  0.17250029807E+03  0.18961772523E+03  0.47000000000E+01 0.  1.
         -5    1    3    3    0  502 -0.20625259180E+02 -0.11309602533E+02  0.33782493877E+03  0.33867549023E+03  0.47000000000E+01 0.  1.
        -11    1    1    2    0    0 -0.68361202854E+02 -0.39279814453E+02  0.26844513837E+03  0.27978375613E+03  0.00000000000E+00 0. -1.
         11    1    1    2    0    0  0.18331409906E+02  0.16175720648E+02  0.13220371363E+03  0.13444521719E+03  0.00000000000E+00 0.  1.
<mgrwt>
<rscale>  0 0.12796987E+03</rscale>
<asrwt>0</asrwt>
<pdfrwt beam="1">  1        1 0.14257659E+00 0.13660847E+03</pdfrwt>
<pdfrwt beam="2">  1       -1 0.24267776E-02 0.13660847E+03</pdfrwt>
<totfact> 0.90607847E+03</totfact>
</mgrwt>
</event>
<event>
 7    1  0.6387485E-006  0.1615613E+03  0.7546771E-02  0.1194652E+00
          2   -1    0    0  501    0  0.00000000000E+00  0.00000000000E+00  0.21177337434E+03  0.21177337434E+03  0.00000000000E+00 0.  1.
         -2   -1    0    0    0  501 -0.00000000000E+00 -0.00000000000E+00 -0.10479605311E+03  0.10479605311E+03  0.00000000000E+00 0. -1.
         23    2    1    2    0    0 -0.58009080135E+02 -0.84334517288E+02  0.54222627908E+02  0.17041757901E+03  0.12499877469E+03 0.  0.
          5    1    3    3  502    0  0.12186670837E+02 -0.66179395867E+02 -0.16047125637E+02  0.69338500306E+02  0.47000000000E+01 0. -1.
         -5    1    3    3    0  502 -0.70195750972E+02 -0.18155121421E+02  0.70269753545E+02  0.10107907870E+03  0.47000000000E+01 0. -1.
        -11    1    1    2    0    0 -0.12874622695E+02  0.17080766772E+02 -0.15968638788E+02  0.26692806668E+02  0.00000000000E+00 0. -1.
         11    1    1    2    0    0  0.70883702830E+02  0.67253750516E+02  0.68723332113E+02  0.11945904178E+03  0.00000000000E+00 0.  1.
<mgrwt>
<rscale>  0 0.15483740E+03</rscale>
<asrwt>0</asrwt>
<pdfrwt beam="1">  1        2 0.32580519E-01 0.16156131E+03</pdfrwt>
<pdfrwt beam="2">  1       -2 0.16122470E-01 0.16156131E+03</pdfrwt>
<totfact> 0.46976679E+03</totfact>
</mgrwt>
</event>
<event>
 7    1  0.6387485E-006  0.2074886E+03  0.7546771E-02  0.1147313E+00
         -1   -1    0    0    0  501 -0.00000000000E+00  0.00000000000E+00  0.13731586000E+04  0.13731586000E+04  0.00000000000E+00 0.  1.
          1   -1    0    0  501    0  0.00000000000E+00 -0.00000000000E+00 -0.39733159893E+02  0.39733159893E+02  0.00000000000E+00 0. -1.
         23    2    1    2    0    0 -0.15106208491E+03  0.67887534248E+02  0.10597706269E+04  0.10798913306E+04  0.12499213309E+03 0.  0.
          5    1    3    3  502    0 -0.14745979913E+03  0.97261962064E+02  0.93693915003E+03  0.95345757246E+03  0.47000000000E+01 0. -1.
         -5    1    3    3    0  502 -0.36022857813E+01 -0.29374427816E+02  0.12283147689E+03  0.12643375810E+03  0.47000000000E+01 0. -1.
        -11    1    1    2    0    0  0.16375880746E+03 -0.60186469184E+02  0.25769158169E+03  0.31119818342E+03  0.00000000000E+00 0. -1.
         11    1    1    2    0    0 -0.12696722549E+02 -0.77010650641E+01  0.15963231479E+02  0.21802245890E+02  0.00000000000E+00 0.  1.
<mgrwt>
<rscale>  0 0.20290229E+03</rscale>
<asrwt>0</asrwt>
<pdfrwt beam="2">  1        1 0.61127949E-02 0.20748856E+03</pdfrwt>
<pdfrwt beam="1">  1       -1 0.21125513E+00 0.20748856E+03</pdfrwt>
<totfact> 0.17812141E+02</totfact>
</mgrwt>
</event>
<event>
 7    1  0.6387485E-006  0.1642792E+03  0.7546771E-02  0.1191340E+00
         -2   -1    0    0    0  501 -0.00000000000E+00  0.00000000000E+00  0.12612412425E+03  0.12612412425E+03  0.00000000000E+00 0.  1.
          2   -1    0    0  501    0  0.00000000000E+00 -0.00000000000E+00 -0.18361301772E+03  0.18361301772E+03  0.00000000000E+00 0. -1.
         23    2    1    2    0    0  0.93215540014E+02 -0.51738126519E+02 -0.21079313963E+02  0.16562605962E+03  0.12498673334E+03 0.  0.
          5    1    3    3  502    0  0.12337047185E+03 -0.50708825021E+02 -0.20863163261E+02  0.13508893308E+03  0.47000000000E+01 0.  1.
         -5    1    3    3    0  502 -0.30154931840E+02 -0.10293014982E+01 -0.21615070232E+00  0.30537126535E+02  0.47000000000E+01 0.  1.
        -11    1    1    2    0    0 -0.78968177392E+02  0.53429219638E+02  0.96846964658E+01  0.95835525237E+02  0.00000000000E+00 0.  1.
         11    1    1    2    0    0 -0.14247362622E+02 -0.16910931194E+01 -0.46094275966E+02  0.48275557111E+02  0.00000000000E+00 0. -1.
<mgrwt>
<rscale>  0 0.15768142E+03</rscale>
<asrwt>0</asrwt>
<pdfrwt beam="2">  1        2 0.28248157E-01 0.16427920E+03</pdfrwt>
<pdfrwt beam="1">  1       -2 0.19403711E-01 0.16427920E+03</pdfrwt>
<totfact> 0.40283654E+03</totfact>
</mgrwt>
</event>
<event>
 6    1  0.6387485E-006  0.3906689E+03  0.7546771E-02  0.1094544E+00
         -1   -1    0    0    0  501 -0.00000000000E+00  0.00000000000E+00  0.69441062402E+02  0.69441062402E+02  0.00000000000E+00 0.  1.
          1   -1    0    0  501    0  0.00000000000E+00 -0.00000000000E+00 -0.94930750492E+03  0.94930750492E+03  0.00000000000E+00 0. -1.
          5    1    1    2  502    0  0.25137328486E+02  0.15589496885E+03 -0.53805352885E+03  0.56076627618E+03  0.47000000000E+01 0. -1.
         -5    1    1    2    0  502 -0.51282708411E+02 -0.11449429309E+03 -0.30710364422E+02  0.12924424867E+03  0.47000000000E+01 0.  1.
        -11    1    1    2    0    0 -0.70650188166E+01 -0.60325525392E+02 -0.12788426579E+03  0.14157495874E+03  0.00000000000E+00 0.  1.
         11    1    1    2    0    0  0.33210398742E+02  0.18924849638E+02 -0.18321828346E+03  0.18716308373E+03  0.00000000000E+00 0. -1.
<mgrwt>
<rscale>  0 0.28210710E+03</rscale>
<asrwt>0</asrwt>
<pdfrwt beam="2">  1        1 0.14604731E+00 0.39066886E+03</pdfrwt>
<pdfrwt beam="1">  1       -1 0.10683240E-01 0.39066886E+03</pdfrwt>
<totfact> 0.95877240E+02</totfact>
</mgrwt>
</event>
<event>
 7    1  0.6387485E-006  0.1389707E+03  0.7546771E-02  0.1225615E+00
          4   -1    0    0  501    0  0.00000000000E+00  0.00000000000E+00  0.14434655617E+03  0.14434655617E+03  0.00000000000E+00 0. -1.
         -4   -1    0    0    0  501 -0.00000000000E+00 -0.00000000000E+00 -0.12510343418E+03  0.12510343418E+03  0.00000000000E+00 0.  1.
         23    2    1    2    0    0 -0.44500075901E+02  0.41390498899E+02 -0.39197208717E+02  0.14439275314E+03  0.12497766134E+03 0.  0.
          5    1    3    3  502    0  0.16512390498E+01  0.75250639151E+02 -0.43037687862E+02  0.86831548757E+02  0.47000000000E+01 0.  1.
         -5    1    3    3    0  502 -0.46151314951E+02 -0.33860140252E+02  0.38404791452E+01  0.57561204380E+02  0.47000000000E+01 0.  1.
        -11    1    1    2    0    0  0.25339471440E+02 -0.32123887427E+01 -0.22174182625E+02  0.33824586167E+02  0.00000000000E+00 0.  1.
         11    1    1    2    0    0  0.19160604461E+02 -0.38178110156E+02  0.80614513324E+02  0.91232651046E+02  0.00000000000E+00 0. -1.
<mgrwt>
<rscale>  0 0.13124846E+03</rscale>
<asrwt>0</asrwt>
<pdfrwt beam="1">  1        4 0.22207162E-01 0.13897067E+03</pdfrwt>
<pdfrwt beam="2">  1       -4 0.19246682E-01 0.13897067E+03</pdfrwt>
<totfact> 0.74931795E+02</totfact>
</mgrwt>
</event>
<event>
 7    1  0.6387485E-006  0.1754620E+03  0.7546771E-02  0.1178942E+00
         -1   -1    0    0    0  501 -0.00000000000E+00  0.00000000000E+00  0.11979559066E+03  0.11979559066E+03  0.00000000000E+00 0.  1.
          1   -1    0    0  501    0  0.00000000000E+00 -0.00000000000E+00 -0.22564645866E+03  0.22564645866E+03  0.00000000000E+00 0. -1.
         23    2    1    2    0    0 -0.91710687851E+02 -0.82165129609E+02 -0.35582881665E+02  0.17903370706E+03  0.12499987203E+03 0.  0.
          5    1    3    3  502    0 -0.45403072180E+02 -0.96291730775E+02 -0.62400697106E+02  0.12348875811E+03  0.47000000000E+01 0.  1.
         -5    1    3    3    0  502 -0.46307615671E+02  0.14126601167E+02  0.26817815441E+02  0.55544948958E+02  0.47000000000E+01 0.  1.
        -11    1    1    2    0    0  0.70944620778E+02  0.40149167959E+02 -0.84516342525E+02  0.11742277062E+03  0.00000000000E+00 0. -1.
         11    1    1    2    0    0  0.20766067073E+02  0.42015961649E+02  0.14248356194E+02  0.48985571643E+02  0.00000000000E+00 0.  1.
<mgrwt>
<rscale>  0 0.16895457E+03</rscale>
<asrwt>0</asrwt>
<pdfrwt beam="2">  1        1 0.34714839E-01 0.17546204E+03</pdfrwt>
<pdfrwt beam="1">  1       -1 0.18430091E-01 0.17546204E+03</pdfrwt>
<totfact> 0.28405432E+03</totfact>
</mgrwt>
</event>
<event>
 7    1  0.6387485E-006  0.1308565E+03  0.7546771E-02  0.1239431E+00
          2   -1    0    0  501    0  0.00000000000E+00  0.00000000000E+00  0.63989325513E+02  0.63989325513E+02  0.00000000000E+00 0. -1.
         -2   -1    0    0    0  501 -0.00000000000E+00 -0.00000000000E+00 -0.24697891247E+03  0.24697891247E+03  0.00000000000E+00 0.  1.
         23    2    1    2    0    0  0.27107402886E+02 -0.27548249467E+02 -0.16347060540E+03  0.20939453055E+03  0.12501885159E+03 0.  0.
          5    1    3    3  502    0  0.21828649046E+02  0.17755494376E+02 -0.16096597362E+03  0.16347440828E+03  0.47000000000E+01 0.  1.
         -5    1    3    3    0  502  0.52787538404E+01 -0.45303743843E+02 -0.25046317818E+01  0.45920122263E+02  0.47000000000E+01 0.  1.
        -11    1    1    2    0    0 -0.97948283885E+01  0.17087043626E+02 -0.56273558539E+02  0.59620626579E+02  0.00000000000E+00 0.  1.
         11    1    1    2    0    0 -0.17312574498E+02  0.10461205841E+02  0.36754576990E+02  0.41953080854E+02  0.00000000000E+00 0. -1.
<mgrwt>
<rscale>  0 0.12225010E+03</rscale>
<asrwt>0</asrwt>
<pdfrwt beam="1">  1        2 0.98445117E-02 0.13085653E+03</pdfrwt>
<pdfrwt beam="2">  1       -2 0.37996755E-01 0.13085653E+03</pdfrwt>
<totfact> 0.40906881E+03</totfact>
</mgrwt>
</event>
<event>
 7    1  0.6387485E-006  0.1376668E+03  0.7546771E-02  0.1228064E+00
          2   -1    0    0  501    0  0.00000000000E+00  0.00000000000E+00  0.43612299674E+03  0.43612299674E+03  0.00000000000E+00 0. -1.
         -2   -1    0    0    0  501 -0.00000000000E+00 -0.00000000000E+00 -0.35072632116E+02  0.35072632116E+02  0.00000000000E+00 0.  1.
         23    2    1    2    0    0  0.45003720603E+02  0.36090646148E+02  0.19786365918E+03  0.24104394423E+03  0.12499714324E+03 0.  0.
          5    1    3    3  502    0 -0.31870377375E+02 -0.19177395524E+02  0.29024932022E+02  0.47413396124E+02  0.47000000000E+01 0.  1.
         -5    1    3    3    0  502  0.76874097978E+02  0.55268041672E+02  0.16883872716E+03  0.19363054811E+03  0.47000000000E+01 0.  1.
        -11    1    1    2    0    0 -0.33854433981E+02  0.14420805586E+02  0.24696160867E+02  0.44316844377E+02  0.00000000000E+00 0.  1.
         11    1    1    2    0    0 -0.11149286622E+02 -0.50511451734E+02  0.17849054457E+03  0.18583484025E+03  0.00000000000E+00 0. -1.
<mgrwt>
<rscale>  0 0.12959116E+03</rscale>
<asrwt>0</asrwt>
<pdfrwt beam="1">  1        2 0.67095842E-01 0.13766683E+03</pdfrwt>
<pdfrwt beam="2">  1       -2 0.53957898E-02 0.13766683E+03</pdfrwt>
<totfact> 0.11990160E+04</totfact>
</mgrwt>
</event>
<event>
 7    1  0.6387485E-006  0.2349581E+03  0.7546771E-02  0.1126058E+00
          1   -1    0    0  501    0  0.00000000000E+00  0.00000000000E+00  0.49942228622E+03  0.49942228622E+03  0.00000000000E+00 0. -1.
         -1   -1    0    0    0  501 -0.00000000000E+00 -0.00000000000E+00 -0.10706387171E+03  0.10706387171E+03  0.00000000000E+00 0.  1.
         23    2    1    2    0    0 -0.19209694342E+03  0.51769203202E+02  0.14455462628E+03  0.27586472775E+03  0.12499608781E+03 0.  0.
          5    1    3    3  502    0 -0.10078823755E+02 -0.75040288711E+01 -0.19530438832E+02  0.23694327983E+02  0.47000000000E+01 0. -1.
         -5    1    3    3    0  502 -0.18201811967E+03  0.59273232073E+02  0.16408506511E+03  0.25217039977E+03  0.47000000000E+01 0. -1.
        -11    1    1    2    0    0  0.13844078987E+03 -0.21785360569E+02  0.10488772216E+03  0.17504824619E+03  0.00000000000E+00 0.  1.
         11    1    1    2    0    0  0.53656153548E+02 -0.29983842633E+02  0.14291606607E+03  0.15557318398E+03  0.00000000000E+00 0. -1.
<mgrwt>
<rscale>  0 0.23082831E+03</rscale>
<asrwt>0</asrwt>
<pdfrwt beam="1">  1        1 0.76834197E-01 0.23495810E+03</pdfrwt>
<pdfrwt beam="2">  1       -1 0.16471365E-01 0.23495810E+03</pdfrwt>
<totfact> 0.12498389E+03</totfact>
</mgrwt>
</event>
<event>
 7    1  0.6387485E-006  0.1259049E+03  0.7546771E-02  0.1249060E+00
          2   -1    0    0  501    0  0.00000000000E+00  0.00000000000E+00  0.68696728870E+02  0.68696728870E+02  0.00000000000E+00 0. -1.
         -2   -1    0    0    0  501 -0.00000000000E+00 -0.00000000000E+00 -0.17320705121E+03  0.17320705121E+03  0.00000000000E+00 0.  1.
         23    2    1    2    0    0  0.76146064739E+01 -0.13011445585E+02 -0.56691347062E+02  0.13807953838E+03  0.12499908056E+03 0.  0.
          5    1    3    3  502    0 -0.47972805113E+02 -0.41093166117E+02 -0.31410702385E+02  0.70701913385E+02  0.47000000000E+01 0. -1.
         -5    1    3    3    0  502  0.55587411587E+02  0.28081720533E+02 -0.25280644677E+02  0.67377624997E+02  0.47000000000E+01 0. -1.
        -11    1    1    2    0    0  0.53160777331E+01  0.50632814553E+02 -0.17602728410E+02  0.53868345431E+02  0.00000000000E+00 0.  1.
         11    1    1    2    0    0 -0.12930684207E+02 -0.37621368968E+02 -0.30216246872E+02  0.49955896270E+02  0.00000000000E+00 0. -1.
<mgrwt>
<rscale>  0 0.11645644E+03</rscale>
<asrwt>0</asrwt>
<pdfrwt beam="1">  1        2 0.10568728E-01 0.12590492E+03</pdfrwt>
<pdfrwt beam="2">  1       -2 0.26647238E-01 0.12590492E+03</pdfrwt>
<totfact> 0.71207770E+03</totfact>
</mgrwt>
</event>
<event>
 7    1  0.6387485E-006  0.1453761E+03  0.7546771E-02  0.1214803E+00
          1   -1    0    0  501    0  0.00000000000E+00  0.00000000000E+00  0.66504111087E+03  0.66504111087E+03  0.00000000000E+00 0. -1.
         -1   -1    0    0    0  501 -0.00000000000E+00 -0.00000000000E+00 -0.28056337049E+02  0.28056337049E+02  0.00000000000E+00 0.  1.
         23    2    1    2    0    0 -0.52812942410E+02 -0.52153003589E+02  0.27042046884E+03  0.30702024729E+03  0.12500023843E+03 0.  0.
          5    1    3    3  502    0  0.21215247928E+01 -0.79487080819E+02  0.11529922187E+03  0.14013813702E+03  0.47000000000E+01 0. -1.
         -5    1    3    3    0  502 -0.54934467203E+02  0.27334077230E+02  0.15512124697E+03  0.16688211027E+03  0.47000000000E+01 0. -1.
        -11    1    1    2    0    0  0.40418907176E+02 -0.19689978044E+02  0.18586102003E+03  0.19122160459E+03  0.00000000000E+00 0. -1.
         11    1    1    2    0    0  0.12394035234E+02  0.71842981632E+02  0.18070328495E+03  0.19485559605E+03  0.00000000000E+00 0.  1.
<mgrwt>
<rscale>  0 0.13890998E+03</rscale>
<asrwt>0</asrwt>
<pdfrwt beam="1">  1        1 0.10231401E+00 0.14537607E+03</pdfrwt>
<pdfrwt beam="2">  1       -1 0.43163600E-02 0.14537607E+03</pdfrwt>
<totfact> 0.64526170E+03</totfact>
</mgrwt>
</event>
<event>
 7    1  0.6387485E-006  0.1382332E+03  0.7546771E-02  0.1227154E+00
          2   -1    0    0  501    0  0.00000000000E+00  0.00000000000E+00  0.10826346578E+04  0.10826346578E+04  0.00000000000E+00 0. -1.
         -2   -1    0    0    0  501 -0.00000000000E+00 -0.00000000000E+00 -0.14390905102E+02  0.14390905102E+02  0.00000000000E+00 0.  1.
         23    2    1    2    0    0  0.24401349000E+01  0.58970650012E+02  0.67484592978E+03  0.68885807790E+03  0.12499972288E+03 0.  0.
          5    1    3    3  502    0  0.55596105709E+02  0.20906728486E+02  0.17801140176E+03  0.18771831936E+03  0.47000000000E+01 0.  1.
         -5    1    3    3    0  502 -0.53155970809E+02  0.38063921526E+02  0.49683452802E+03  0.50113975854E+03  0.47000000000E+01 0.  1.
        -11    1    1    2    0    0 -0.34668546117E+02  0.68111345285E+01  0.11605100881E+03  0.12131008322E+03  0.00000000000E+00 0. -1.
         11    1    1    2    0    0  0.32228411217E+02 -0.65781784540E+02  0.27734681407E+03  0.28685740175E+03  0.00000000000E+00 0.  1.
<mgrwt>
<rscale>  0 0.13020360E+03</rscale>
<asrwt>0</asrwt>
<pdfrwt beam="1">  1        2 0.16655911E+00 0.13823322E+03</pdfrwt>
<pdfrwt beam="2">  1       -2 0.22139862E-02 0.13823322E+03</pdfrwt>
<totfact> 0.14959578E+04</totfact>
</mgrwt>
</event>
<event>
 7    1  0.6387485E-006  0.1526974E+03  0.7546771E-02  0.1205783E+00
          3   -1    0    0  501    0  0.00000000000E+00  0.00000000000E+00  0.10728597236E+03  0.10728597236E+03  0.00000000000E+00 0. -1.
         -3   -1    0    0    0  501 -0.00000000000E+00 -0.00000000000E+00 -0.23653943770E+03  0.23653943770E+03  0.00000000000E+00 0.  1.
         23    2    1    2    0    0  0.14210250126E+02 -0.86540190435E+02 -0.15150846585E+03  0.21510765705E+03  0.12500141250E+03 0.  0.
          5    1    3    3  502    0 -0.19332119706E+02 -0.10870013505E+03 -0.12439603618E+03  0.16639084720E+03  0.47000000000E+01 0. -1.
         -5    1    3    3    0  502  0.33542369832E+02  0.22159944620E+02 -0.27112429668E+02  0.48716809850E+02  0.47000000000E+01 0. -1.
        -11    1    1    2    0    0 -0.33542016663E+02  0.17320094487E+02 -0.22601972541E+02  0.43998883141E+02  0.00000000000E+00 0.  1.
         11    1    1    2    0    0  0.19331766538E+02  0.69220095948E+02  0.44856973056E+02  0.84718869871E+02  0.00000000000E+00 0. -1.
<mgrwt>
<rscale>  0 0.14575911E+03</rscale>
<asrwt>0</asrwt>
<pdfrwt beam="1">  1        3 0.16505534E-01 0.15269738E+03</pdfrwt>
<pdfrwt beam="2">  1       -3 0.36390682E-01 0.15269738E+03</pdfrwt>
<totfact> 0.55240476E+02</totfact>
</mgrwt>
</event>
<event>
 7    1  0.6387485E-006  0.2668886E+03  0.7546771E-02  0.1106936E+00
          2   -1    0    0  501    0  0.00000000000E+00  0.00000000000E+00  0.65220001385E+03  0.65220001385E+03  0.00000000000E+00 0. -1.
         -2   -1    0    0    0  501 -0.00000000000E+00 -0.00000000000E+00 -0.12531432051E+03  0.12531432051E+03  0.00000000000E+00 0.  1.
         23    2    1    2    0    0  0.14216376496E+03  0.18812806622E+03  0.96266018102E+02  0.28371935402E+03  0.12500728075E+03 0.  0.
          5    1    3    3  502    0  0.65561770161E+01  0.92437582865E+02  0.20446816398E+01  0.92811426592E+02  0.47000000000E+01 0. -1.
         -5    1    3    3    0  502  0.13560758794E+03  0.95690483352E+02  0.94221336462E+02  0.19090792743E+03  0.47000000000E+01 0. -1.
        -11    1    1    2    0    0 -0.23332121591E+02 -0.44482249569E+02  0.13776638143E+03  0.14663776552E+03  0.00000000000E+00 0. -1.
         11    1    1    2    0    0 -0.11883164337E+03 -0.14364581665E+03  0.29285329381E+03  0.34715721482E+03  0.00000000000E+00 0.  1.
<mgrwt>
<rscale>  0 0.26034503E+03</rscale>
<asrwt>0</asrwt>
<pdfrwt beam="1">  1        2 0.10033846E+00 0.26688860E+03</pdfrwt>
<pdfrwt beam="2">  1       -2 0.19279127E-01 0.26688860E+03</pdfrwt>
<totfact> 0.10251224E+03</totfact>
</mgrwt>
</event>
<event>
 7    1  0.6387485E-006  0.1259254E+03  0.7546771E-02  0.1247801E+00
         -2   -1    0    0    0  501 -0.00000000000E+00  0.00000000000E+00  0.20343670967E+02  0.20343670967E+02  0.00000000000E+00 0.  1.
          2   -1    0    0  501    0  0.00000000000E+00 -0.00000000000E+00 -0.65298963088E+03  0.65298963088E+03  0.00000000000E+00 0. -1.
         23    2    1    2    0    0  0.52416446219E+01  0.14364564437E+02 -0.25984340754E+03  0.28874870189E+03  0.12499360324E+03 0.  0.
          5    1    3    3  502    0 -0.18575531119E+02  0.96399926712E+01  0.55899064017E+01  0.22165668694E+02  0.47000000000E+01 0. -1.
         -5    1    3    3    0  502  0.23817175741E+02  0.47245717654E+01 -0.26543331394E+03  0.26658303319E+03  0.47000000000E+01 0. -1.
        -11    1    1    2    0    0  0.41994206508E+02  0.69149234040E+01 -0.15949258248E+03  0.16507335767E+03  0.00000000000E+00 0.  1.
         11    1    1    2    0    0 -0.47235851130E+02 -0.21279487841E+02 -0.21330996989E+03  0.21951124229E+03  0.00000000000E+00 0. -1.
<mgrwt>
<rscale>  0 0.11719321E+03</rscale>
<asrwt>0</asrwt>
<pdfrwt beam="2">  1        2 0.10045994E+00 0.12592544E+03</pdfrwt>
<pdfrwt beam="1">  1       -2 0.31297957E-02 0.12592544E+03</pdfrwt>
<totfact> 0.17085431E+04</totfact>
</mgrwt>
</event>
<event>
 7    1  0.6639947E-006  0.2296197E+03  0.7546771E-02  0.1129846E+00
          1   -1    0    0  501    0  0.00000000000E+00  0.00000000000E+00  0.91197094814E+03  0.91197094814E+03  0.00000000000E+00 0. -1.
         -1   -1    0    0    0  501 -0.00000000000E+00 -0.00000000000E+00 -0.57542490113E+02  0.57542490113E+02  0.00000000000E+00 0.  1.
         23    2    1    2    0    0  0.13731092104E+03 -0.13507953017E+03  0.31893490790E+03  0.39299448163E+03  0.12499767441E+03 0.  0.
          5    1    3    3  502    0  0.46664849350E+01 -0.86601281055E+02  0.10038928453E+03  0.13274658719E+03  0.47000000000E+01 0.  1.
         -5    1    3    3    0  502  0.13264443611E+03 -0.48478249112E+02  0.21854562337E+03  0.26024789444E+03  0.47000000000E+01 0.  1.
        -11    1    1    2    0    0 -0.12933599061E+03  0.80815020226E+02  0.44808311981E+03  0.47332583726E+03  0.00000000000E+00 0. -1.
         11    1    1    2    0    0 -0.79749304323E+01  0.54264509941E+02  0.87410430322E+02  0.10319311936E+03  0.00000000000E+00 0.  1.
<mgrwt>
<rscale>  0 0.22550289E+03</rscale>
<asrwt>0</asrwt>
<pdfrwt beam="1">  1        1 0.14030321E+00 0.22961966E+03</pdfrwt>
<pdfrwt beam="2">  1       -1 0.88526915E-02 0.22961966E+03</pdfrwt>
<totfact> 0.13767012E+03</totfact>
</mgrwt>
</event>
<event>
 7    1  0.6387485E-006  0.2013571E+03  0.7546771E-02  0.1152766E+00
          2   -1    0    0  501    0  0.00000000000E+00  0.00000000000E+00  0.41784163924E+02  0.41784163924E+02  0.00000000000E+00 0. -1.
         -2   -1    0    0    0  501 -0.00000000000E+00 -0.00000000000E+00 -0.91460202758E+03  0.91460202758E+03  0.00000000000E+00 0.  1.
         23    2    1    2    0    0 -0.64365625386E+02  0.14414166552E+03 -0.54820099428E+03  0.58401114646E+03  0.12499974238E+03 0.  0.
          5    1    3    3  502    0 -0.66688118366E+02  0.67001345202E+02 -0.44558715973E+03  0.45552880514E+03  0.47000000000E+01 0. -1.
         -5    1    3    3    0  502  0.23224929801E+01  0.77140320321E+02 -0.10261383454E+03  0.12848234132E+03  0.47000000000E+01 0. -1.
        -11    1    1    2    0    0  0.19906121123E+02 -0.40911945100E+01 -0.54986611536E+01  0.21052952410E+02  0.00000000000E+00 0. -1.
         11    1    1    2    0    0  0.44459504263E+02 -0.14005047101E+03 -0.31911820823E+03  0.35132209263E+03  0.00000000000E+00 0.  1.
<mgrwt>
<rscale>  0 0.19645346E+03</rscale>
<asrwt>0</asrwt>
<pdfrwt beam="1">  1        2 0.64283333E-02 0.20135712E+03</pdfrwt>
<pdfrwt beam="2">  1       -2 0.14070800E+00 0.20135712E+03</pdfrwt>
<totfact> 0.41924086E+02</totfact>
</mgrwt>
</event>
<event>
 7    1  0.6387485E-006  0.1695826E+03  0.7546771E-02  0.1184453E+00
          2   -1    0    0  501    0  0.00000000000E+00  0.00000000000E+00  0.52942801950E+03  0.52942801950E+03  0.00000000000E+00 0. -1.
         -2   -1    0    0    0  501 -0.00000000000E+00 -0.00000000000E+00 -0.48021427935E+02  0.48021427935E+02  0.00000000000E+00 0.  1.
         23    2    1    2    0    0 -0.88751106136E+02 -0.72500379526E+02  0.22795116858E+03  0.28411263386E+03  0.12500075836E+03 0.  0.
          5    1    3    3  502    0 -0.80506011808E+02 -0.10579024785E+03  0.16188707945E+03  0.20952878316E+03  0.47000000000E+01 0.  1.
         -5    1    3    3    0  502 -0.82450943279E+01  0.33289868324E+02  0.66064089124E+02  0.74583850700E+02  0.47000000000E+01 0.  1.
        -11    1    1    2    0    0  0.10555803094E+03  0.69739486332E+02  0.24115733911E+03  0.27232876465E+03  0.00000000000E+00 0. -1.
         11    1    1    2    0    0 -0.16806924808E+02  0.27608931942E+01  0.12298083887E+02  0.21008048934E+02  0.00000000000E+00 0.  1.
<mgrwt>
<rscale>  0 0.16381740E+03</rscale>
<asrwt>0</asrwt>
<pdfrwt beam="1">  1        2 0.81450460E-01 0.16958259E+03</pdfrwt>
<pdfrwt beam="2">  1       -2 0.73879124E-02 0.16958259E+03</pdfrwt>
<totfact> 0.60806925E+03</totfact>
</mgrwt>
</event>
<event>
 7    1  0.6387485E-006  0.1378004E+03  0.7546771E-02  0.1227012E+00
         -2   -1    0    0    0  501 -0.00000000000E+00  0.00000000000E+00  0.68845542926E+02  0.68845542926E+02  0.00000000000E+00 0.  1.
          2   -1    0    0  501    0  0.00000000000E+00 -0.00000000000E+00 -0.22613834961E+03  0.22613834961E+03  0.00000000000E+00 0. -1.
         23    2    1    2    0    0  0.53725567225E+02 -0.21855416649E+02 -0.70782378961E+02  0.15491637262E+03  0.12499936610E+03 0.  0.
          5    1    3    3  502    0 -0.31635697742E+02 -0.23806574709E+02 -0.55044622231E+02  0.67967424606E+02  0.47000000000E+01 0.  1.
         -5    1    3    3    0  502  0.85361264967E+02  0.19511580603E+01 -0.15737756730E+02  0.86948948018E+02  0.47000000000E+01 0.  1.
        -11    1    1    2    0    0  0.14743322840E+02 -0.20775364783E+02 -0.38619592493E+02  0.46265043765E+02  0.00000000000E+00 0.  1.
         11    1    1    2    0    0 -0.68468890065E+02  0.42630781432E+02 -0.47890835228E+02  0.93802476146E+02  0.00000000000E+00 0. -1.
<mgrwt>
<rscale>  0 0.13029930E+03</rscale>
<asrwt>0</asrwt>
<pdfrwt beam="2">  1        2 0.34790516E-01 0.13780035E+03</pdfrwt>
<pdfrwt beam="1">  1       -2 0.10591622E-01 0.13780035E+03</pdfrwt>
<totfact> 0.85390237E+03</totfact>
</mgrwt>
</event>
<event>
 7    1  0.6387485E-006  0.1338291E+03  0.7546771E-02  0.1238373E+00
          3   -1    0    0  501    0  0.00000000000E+00  0.00000000000E+00  0.30619386137E+02  0.30619386137E+02  0.00000000000E+00 0. -1.
         -3   -1    0    0    0  501 -0.00000000000E+00 -0.00000000000E+00 -0.55237488746E+03  0.55237488746E+03  0.00000000000E+00 0.  1.
         23    2    1    2    0    0  0.25209493729E+02  0.40622790383E+02 -0.43159668257E+03  0.45186936509E+03  0.12499798812E+03 0.  0.
          5    1    3    3  502    0 -0.30088300277E+02 -0.30711222425E+02 -0.12837881195E+03  0.13546842567E+03  0.47000000000E+01 0.  1.
         -5    1    3    3    0  502  0.55297794006E+02  0.71334012808E+02 -0.30321787062E+03  0.31640093942E+03  0.47000000000E+01 0.  1.
        -11    1    1    2    0    0  0.30105201582E+02 -0.14930529992E+02 -0.39331133583E+02  0.51731827312E+02  0.00000000000E+00 0.  1.
         11    1    1    2    0    0 -0.55314695310E+02 -0.25692260391E+02 -0.50827685176E+02  0.79393081195E+02  0.00000000000E+00 0. -1.
<mgrwt>
<rscale>  0 0.12290927E+03</rscale>
<asrwt>0</asrwt>
<pdfrwt beam="1">  1        3 0.47106747E-02 0.13382910E+03</pdfrwt>
<pdfrwt beam="2">  1       -3 0.84980753E-01 0.13382910E+03</pdfrwt>
<totfact> 0.75501929E+02</totfact>
</mgrwt>
</event>
<event>
 7    1  0.6387485E-006  0.1288201E+03  0.7546771E-02  0.1242968E+00
          2   -1    0    0  501    0  0.00000000000E+00  0.00000000000E+00  0.27827336483E+03  0.27827336483E+03  0.00000000000E+00 0. -1.
         -2   -1    0    0    0  501 -0.00000000000E+00 -0.00000000000E+00 -0.46998424730E+02  0.46998424730E+02  0.00000000000E+00 0.  1.
         23    2    1    2    0    0  0.13251827355E+02 -0.28179892265E+02  0.10696909449E+03  0.16744250656E+03  0.12499955428E+03 0.  0.
          5    1    3    3  502    0 -0.31127088685E+02 -0.19906566329E+02  0.11541483466E+03  0.12127588834E+03  0.47000000000E+01 0. -1.
         -5    1    3    3    0  502  0.44378916040E+02 -0.82733259359E+01 -0.84457401686E+01  0.46166618220E+02  0.47000000000E+01 0. -1.
        -11    1    1    2    0    0 -0.40269878520E+02 -0.17597068330E+02  0.51905182216E+02  0.68010792310E+02  0.00000000000E+00 0. -1.
         11    1    1    2    0    0  0.27018051165E+02  0.45776960595E+02  0.72400663391E+02  0.89818490688E+02  0.00000000000E+00 0.  1.
<mgrwt>
<rscale>  0 0.12007796E+03</rscale>
<asrwt>0</asrwt>
<pdfrwt beam="1">  1        2 0.42811286E-01 0.12882005E+03</pdfrwt>
<pdfrwt beam="2">  1       -2 0.72305270E-02 0.12882005E+03</pdfrwt>
<totfact> 0.12329378E+04</totfact>
</mgrwt>
</event>
<event>
 7    1  0.6387485E-006  0.1612644E+03  0.7546771E-02  0.1194919E+00
         -1   -1    0    0    0  501 -0.00000000000E+00  0.00000000000E+00  0.54842451225E+03  0.54842451225E+03  0.00000000000E+00 0.  1.
          1   -1    0    0  501    0  0.00000000000E+00 -0.00000000000E+00 -0.40995255933E+02  0.40995255933E+02  0.00000000000E+00 0. -1.
         23    2    1    2    0    0 -0.73920771323E+02  0.70108732861E+02  0.31154780726E+03  0.35081081730E+03  0.12500671369E+03 0.  0.
          5    1    3    3  502    0 -0.80849279944E+02  0.92395886247E+01  0.25350799620E+03  0.26629001146E+03  0.47000000000E+01 0.  1.
         -5    1    3    3    0  502  0.69285086205E+01  0.60869144236E+02  0.58039811068E+02  0.84520805844E+02  0.47000000000E+01 0.  1.
        -11    1    1    2    0    0  0.45769387056E+02  0.26205196533E+01  0.28579773664E+02  0.54023211469E+02  0.00000000000E+00 0. -1.
         11    1    1    2    0    0  0.28151384267E+02 -0.72729252514E+02  0.16730167539E+03  0.18458573941E+03  0.00000000000E+00 0.  1.
<mgrwt>
<rscale>  0 0.15461077E+03</rscale>
<asrwt>0</asrwt>
<pdfrwt beam="2">  1        1 0.63069629E-02 0.16126436E+03</pdfrwt>
<pdfrwt beam="1">  1       -1 0.84372996E-01 0.16126436E+03</pdfrwt>
<totfact> 0.17256552E+03</totfact>
</mgrwt>
</event>
<event>
 7    1  0.6387485E-006  0.1333602E+03  0.7546771E-02  0.1234889E+00
         -2   -1    0    0    0  501 -0.00000000000E+00  0.00000000000E+00  0.15866734458E+03  0.15866734458E+03  0.00000000000E+00 0.  1.
          2   -1    0    0  501    0  0.00000000000E+00 -0.00000000000E+00 -0.88318415077E+02  0.88318415077E+02  0.00000000000E+00 0. -1.
         23    2    1    2    0    0 -0.45055304462E+02  0.11427659491E+02  0.36481974119E+02  0.13826013222E+03  0.12499743143E+03 0.  0.
          5    1    3    3  502    0 -0.84779612917E+01  0.23915950204E+02 -0.42774795445E+02  0.49956197085E+02  0.47000000000E+01 0.  1.
         -5    1    3    3    0  502 -0.36577343170E+02 -0.12488290713E+02  0.79256769563E+02  0.88303935133E+02  0.47000000000E+01 0.  1.
        -11    1    1    2    0    0  0.63464845399E+02  0.20222133293E+02  0.24054902404E+02  0.70819203654E+02  0.00000000000E+00 0. -1.
         11    1    1    2    0    0 -0.18409540937E+02 -0.31649792783E+02  0.98120529841E+01  0.37906423790E+02  0.00000000000E+00 0.  1.
<mgrwt>
<rscale>  0 0.12511574E+03</rscale>
<asrwt>0</asrwt>
<pdfrwt beam="2">  1        2 0.13587448E-01 0.13336015E+03</pdfrwt>
<pdfrwt beam="1">  1       -2 0.24410361E-01 0.13336015E+03</pdfrwt>
<totfact> 0.61670975E+03</totfact>
</mgrwt>
</event>
<event>
 6    1  0.6387485E-006  0.1767746E+03  0.7546771E-02  0.1184184E+00
          1   -1    0    0  501    0  0.00000000000E+00  0.00000000000E+00  0.37366454178E+03  0.37366454178E+03  0.00000000000E+00 0. -1.
         -1   -1    0    0    0  501 -0.00000000000E+00 -0.00000000000E+00 -0.12274540947E+03  0.12274540947E+03  0.00000000000E+00 0.  1.
          5    1    1    2  502    0 -0.20062253534E+02 -0.30044997842E+02  0.34164273938E+02  0.49944804794E+02  0.47000000000E+01 0. -1.
         -5    1    1    2    0  502  0.10911812162E+03  0.11185625674E+02 -0.70643537009E+02  0.13055451738E+03  0.47000000000E+01 0.  1.
        -11    1    1    2    0    0 -0.39700039677E+02 -0.38155389288E+02  0.10562726577E+03  0.11911778270E+03  0.00000000000E+00 0.  1.
         11    1    1    2    0    0 -0.49355828412E+02  0.57014761456E+02  0.18177112961E+03  0.19679284637E+03  0.00000000000E+00 0. -1.
<mgrwt>
<rscale>  0 0.16406326E+03</rscale>
<asrwt>0</asrwt>
<pdfrwt beam="1">  1        1 0.57486852E-01 0.17677463E+03</pdfrwt>
<pdfrwt beam="2">  1       -1 0.18883909E-01 0.17677463E+03</pdfrwt>
<totfact> 0.14543716E+03</totfact>
</mgrwt>
</event>
<event>
 7    1  0.6387485E-006  0.2237091E+03  0.7546771E-02  0.1134344E+00
         -2   -1    0    0    0  501 -0.00000000000E+00  0.00000000000E+00  0.36998247410E+02  0.36998247410E+02  0.00000000000E+00 0.  1.
          2   -1    0    0  501    0  0.00000000000E+00 -0.00000000000E+00 -0.13326732037E+04  0.13326732037E+04  0.00000000000E+00 0. -1.
         23    2    1    2    0    0  0.14201669794E+03 -0.11938199053E+03 -0.50420728350E+03  0.55160742626E+03  0.12499986327E+03 0.  0.
          5    1    3    3  502    0  0.39671315423E+02 -0.76425012267E+02 -0.98270057531E+02  0.13074283910E+03  0.47000000000E+01 0. -1.
         -5    1    3    3    0  502  0.10234538251E+03 -0.42956978261E+02 -0.40593722597E+03  0.42086458717E+03  0.47000000000E+01 0. -1.
        -11    1    1    2    0    0 -0.11518147331E+02  0.53047632049E+02 -0.13568867444E+03  0.14614422793E+03  0.00000000000E+00 0.  1.
         11    1    1    2    0    0 -0.13049855061E+03  0.66334358479E+02 -0.65577899834E+03  0.67191979692E+03  0.00000000000E+00 0. -1.
<mgrwt>
<rscale>  0 0.21938299E+03</rscale>
<asrwt>0</asrwt>
<pdfrwt beam="2">  1        2 0.20502661E+00 0.22370911E+03</pdfrwt>
<pdfrwt beam="1">  1       -2 0.56920391E-02 0.22370911E+03</pdfrwt>
<totfact> 0.26977491E+03</totfact>
</mgrwt>
</event>
<event>
 7    1  0.6387485E-006  0.1415046E+03  0.7546771E-02  0.1222448E+00
          1   -1    0    0  501    0  0.00000000000E+00  0.00000000000E+00  0.56978378543E+02  0.56978378543E+02  0.00000000000E+00 0. -1.
         -1   -1    0    0    0  501 -0.00000000000E+00 -0.00000000000E+00 -0.29172913988E+03  0.29172913988E+03  0.00000000000E+00 0.  1.
         23    2    1    2    0    0  0.26058728958E+02  0.60979051182E+02 -0.16273930717E+03  0.21565627453E+03  0.12500417836E+03 0.  0.
          5    1    3    3  502    0  0.67754254173E+02  0.22261601085E+02 -0.44070118573E+02  0.83967155439E+02  0.47000000000E+01 0. -1.
         -5    1    3    3    0  502 -0.41695525215E+02  0.38717450096E+02 -0.11866918860E+03  0.13168911909E+03  0.47000000000E+01 0. -1.
        -11    1    1    2    0    0  0.10269248172E+02 -0.36978644266E+02 -0.80050898754E+02  0.88775131546E+02  0.00000000000E+00 0.  1.
         11    1    1    2    0    0 -0.36327977130E+02 -0.24000406915E+02  0.80394445931E+01  0.44276112339E+02  0.00000000000E+00 0. -1.
<mgrwt>
<rscale>  0 0.13343364E+03</rscale>
<asrwt>0</asrwt>
<pdfrwt beam="1">  1        1 0.87659043E-02 0.14150458E+03</pdfrwt>
<pdfrwt beam="2">  1       -1 0.44881407E-01 0.14150458E+03</pdfrwt>
<totfact> 0.37022859E+03</totfact>
</mgrwt>
</event>
<event>
 6    1  0.6387485E-006  0.6957469E+03  0.7546771E-02  0.1006202E+00
         -1   -1    0    0    0  501 -0.00000000000E+00  0.00000000000E+00  0.77316139788E+03  0.77316139788E+03  0.00000000000E+00 0.  1.
          1   -1    0    0  501    0  0.00000000000E+00 -0.00000000000E+00 -0.55322488233E+03  0.55322488233E+03  0.00000000000E+00 0. -1.
          5    1    1    2  502    0 -0.11963209242E+03  0.29316255848E+03  0.13202463177E+03  0.34308703942E+03  0.47000000000E+01 0. -1.
         -5    1    1    2    0  502  0.29608220669E+03 -0.17130557339E+03  0.44179756500E+03  0.55876421775E+03  0.47000000000E+01 0.  1.
        -11    1    1    2    0    0 -0.57405643865E+02 -0.83587859230E+02 -0.10481401150E+03  0.14583660433E+03  0.00000000000E+00 0.  1.
         11    1    1    2    0    0 -0.11904447041E+03 -0.38269125858E+02 -0.24907166972E+03  0.27869841870E+03  0.00000000000E+00 0. -1.
<mgrwt>
<rscale>  0 0.53012561E+03</rscale>
<asrwt>0</asrwt>
<pdfrwt beam="2">  1        1 0.85111520E-01 0.69574692E+03</pdfrwt>
<pdfrwt beam="1">  1       -1 0.11894791E+00 0.69574692E+03</pdfrwt>
<totfact> 0.25090183E+01</totfact>
</mgrwt>
</event>
<event>
 7    1  0.6387485E-006  0.1334709E+03  0.7546771E-02  0.1234183E+00
         -3   -1    0    0    0  501 -0.00000000000E+00  0.00000000000E+00  0.56365952963E+02  0.56365952963E+02  0.00000000000E+00 0.  1.
          3   -1    0    0  501    0  0.00000000000E+00 -0.00000000000E+00 -0.25151312748E+03  0.25151312748E+03  0.00000000000E+00 0. -1.
         23    2    1    2    0    0 -0.46601978551E+02  0.43137075800E+01 -0.11388765353E+03  0.17545617594E+03  0.12499647824E+03 0.  0.
          5    1    3    3  502    0 -0.88917160082E+01 -0.52509117579E+01  0.26964589112E+02  0.29254294622E+02  0.47000000000E+01 0. -1.
         -5    1    3    3    0  502 -0.37710262543E+02  0.95646193380E+01 -0.14085224264E+03  0.14620188132E+03  0.47000000000E+01 0. -1.
        -11    1    1    2    0    0 -0.22956756029E+02 -0.19687320756E+02 -0.10494615413E+02  0.32011563514E+02  0.00000000000E+00 0. -1.
         11    1    1    2    0    0  0.69558734580E+02  0.15373613176E+02 -0.70764905576E+02  0.10041134099E+03  0.00000000000E+00 0.  1.
<mgrwt>
<rscale>  0 0.12556855E+03</rscale>
<asrwt>0</asrwt>
<pdfrwt beam="2">  1        3 0.38694327E-01 0.13347087E+03</pdfrwt>
<pdfrwt beam="1">  1       -3 0.86716851E-02 0.13347087E+03</pdfrwt>
<totfact> 0.14194551E+03</totfact>
</mgrwt>
</event>
<event>
 6    1  0.6387485E-006  0.2959022E+03  0.7546771E-02  0.1108571E+00
         -1   -1    0    0    0  501 -0.00000000000E+00  0.00000000000E+00  0.13644934304E+03  0.13644934304E+03  0.00000000000E+00 0.  1.
          1   -1    0    0  501    0  0.00000000000E+00 -0.00000000000E+00 -0.55365955198E+03  0.55365955198E+03  0.00000000000E+00 0. -1.
          5    1    1    2  502    0  0.33333077716E+02 -0.55668995433E+02 -0.15105220429E+03  0.16446577012E+03  0.47000000000E+01 0. -1.
         -5    1    1    2    0  502 -0.84721494358E+02 -0.76918482440E+02  0.80182063134E+02  0.13980499918E+03  0.47000000000E+01 0.  1.
        -11    1    1    2    0    0  0.50855532582E+02  0.15782448752E+02 -0.10955473203E+03  0.12180972946E+03  0.00000000000E+00 0.  1.
         11    1    1    2    0    0  0.53288405941E+00  0.11680502912E+03 -0.23678533577E+03  0.26402839625E+03  0.00000000000E+00 0. -1.
<mgrwt>
<rscale>  0 0.25763819E+03</rscale>
<asrwt>0</asrwt>
<pdfrwt beam="2">  1        1 0.85178392E-01 0.29590222E+03</pdfrwt>
<pdfrwt beam="1">  1       -1 0.20992207E-01 0.29590222E+03</pdfrwt>
<totfact> 0.73428074E+02</totfact>
</mgrwt>
</event>
<event>
 7    1  0.6387485E-006  0.1434733E+03  0.7546771E-02  0.1219036E+00
          3   -1    0    0  501    0  0.00000000000E+00  0.00000000000E+00  0.27214225116E+03  0.27214225116E+03  0.00000000000E+00 0. -1.
         -3   -1    0    0    0  501 -0.00000000000E+00 -0.00000000000E+00 -0.61606177829E+02  0.61606177829E+02  0.00000000000E+00 0.  1.
         23    2    1    2    0    0  0.98718940049E+01  0.69742187230E+02  0.11031354923E+03  0.18097972379E+03  0.12499261702E+03 0.  0.
          5    1    3    3  502    0 -0.18031759073E+02  0.98910649626E+02  0.63589913512E+02  0.11905556705E+03  0.47000000000E+01 0.  1.
         -5    1    3    3    0  502  0.27903653078E+02 -0.29168462396E+02  0.46723635713E+02  0.61924156739E+02  0.47000000000E+01 0.  1.
        -11    1    1    2    0    0 -0.29125749837E+02 -0.74866973699E+02  0.10507182456E+03  0.13226284955E+03  0.00000000000E+00 0. -1.
         11    1    1    2    0    0  0.19253855832E+02  0.51247864692E+01 -0.48493004632E+01  0.20505855645E+02  0.00000000000E+00 0.  1.
<mgrwt>
<rscale>  0 0.13584201E+03</rscale>
<asrwt>0</asrwt>
<pdfrwt beam="1">  1        3 0.41868038E-01 0.14347328E+03</pdfrwt>
<pdfrwt beam="2">  1       -3 0.94778736E-02 0.14347328E+03</pdfrwt>
<totfact> 0.10659384E+03</totfact>
</mgrwt>
</event>
<event>
 7    1  0.6387485E-006  0.1467616E+03  0.7546771E-02  0.1214755E+00
         -1   -1    0    0    0  501 -0.00000000000E+00  0.00000000000E+00  0.71006091233E+02  0.71006091233E+02  0.00000000000E+00 0.  1.
          1   -1    0    0  501    0  0.00000000000E+00 -0.00000000000E+00 -0.24663040191E+03  0.24663040191E+03  0.00000000000E+00 0. -1.
         23    2    1    2    0    0  0.71644678796E+02 -0.27937104312E+02 -0.97372184719E+02  0.17612587432E+03  0.12500215778E+03 0.  0.
          5    1    3    3  502    0  0.31618565754E+02  0.83619059571E+01  0.25551061407E+02  0.41768431986E+02  0.47000000000E+01 0.  1.
         -5    1    3    3    0  502  0.40026113042E+02 -0.36299010269E+02 -0.12292324613E+03  0.13435744233E+03  0.47000000000E+01 0.  1.
        -11    1    1    2    0    0  0.13283464026E+02 -0.52396905401E+01  0.76850738046E+01  0.16216199705E+02  0.00000000000E+00 0.  1.
         11    1    1    2    0    0 -0.84928142822E+02  0.33176794852E+02 -0.85937199767E+02  0.12529441912E+03  0.00000000000E+00 0. -1.
<mgrwt>
<rscale>  0 0.13894520E+03</rscale>
<asrwt>0</asrwt>
<pdfrwt beam="2">  1        1 0.37943139E-01 0.14676165E+03</pdfrwt>
<pdfrwt beam="1">  1       -1 0.10924014E-01 0.14676165E+03</pdfrwt>
<totfact> 0.57237596E+03</totfact>
</mgrwt>
</event>
<event>
 7    1  0.6387485E-006  0.1374337E+03  0.7546771E-02  0.1220574E+00
          4   -1    0    0  501    0  0.00000000000E+00  0.00000000000E+00  0.64897322132E+03  0.64897322132E+03  0.00000000000E+00 0. -1.
         -4   -1    0    0    0  501 -0.00000000000E+00 -0.00000000000E+00 -0.27473840005E+02  0.27473840005E+02  0.00000000000E+00 0.  1.
         23    2    1    2    0    0 -0.60013910865E+01  0.56809967540E+02  0.27557463992E+03  0.30794383367E+03  0.12499853368E+03 0.  0.
          5    1    3    3  502    0 -0.42038144092E+02  0.54074268177E+02  0.25893200425E+03  0.26787889963E+03  0.47000000000E+01 0. -1.
         -5    1    3    3    0  502  0.36036753005E+02  0.27356993626E+01  0.16642635667E+02  0.40064934046E+02  0.47000000000E+01 0. -1.
        -11    1    1    2    0    0 -0.42373302479E+02 -0.61751794915E+02  0.24970895170E+03  0.26069779726E+03  0.00000000000E+00 0. -1.
         11    1    1    2    0    0  0.48374693565E+02  0.49418273752E+01  0.96215789692E+02  0.10780543039E+03  0.00000000000E+00 0.  1.
<mgrwt>
<rscale>  0 0.13474932E+03</rscale>
<asrwt>0</asrwt>
<pdfrwt beam="1">  1        4 0.99842022E-01 0.13743370E+03</pdfrwt>
<pdfrwt beam="2">  1       -4 0.42267451E-02 0.13743370E+03</pdfrwt>
<totfact> 0.44808529E+02</totfact>
</mgrwt>
</event>
<event>
 7    1  0.6387485E-006  0.1303699E+03  0.7546771E-02  0.1240892E+00
         -2   -1    0    0    0  501 -0.00000000000E+00  0.00000000000E+00  0.34397180371E+02  0.34397180371E+02  0.00000000000E+00 0.  1.
          2   -1    0    0  501    0  0.00000000000E+00 -0.00000000000E+00 -0.37857431569E+03  0.37857431569E+03  0.00000000000E+00 0. -1.
         23    2    1    2    0    0  0.32727116569E+02 -0.17244013055E+02 -0.19561394260E+03  0.23507686028E+03  0.12501158167E+03 0.  0.
          5    1    3    3  502    0 -0.39691961318E+02  0.13126157277E+02 -0.29823512391E+02  0.51568204249E+02  0.47000000000E+01 0. -1.
         -5    1    3    3    0  502  0.72419077887E+02 -0.30370170331E+02 -0.16579043021E+03  0.18350865603E+03  0.47000000000E+01 0. -1.
        -11    1    1    2    0    0 -0.15719694070E+02 -0.37357359774E+02 -0.57041630865E+02  0.69974486512E+02  0.00000000000E+00 0.  1.
         11    1    1    2    0    0 -0.17007422499E+02  0.54601372828E+02 -0.91521561854E+02  0.10792014927E+03  0.00000000000E+00 0. -1.
<mgrwt>
<rscale>  0 0.12134674E+03</rscale>
<asrwt>0</asrwt>
<pdfrwt beam="2">  1        2 0.58242206E-01 0.13036992E+03</pdfrwt>
<pdfrwt beam="1">  1       -2 0.52918735E-02 0.13036992E+03</pdfrwt>
<totfact> 0.14303938E+04</totfact>
</mgrwt>
</event>
<event>
 7    1  0.6387485E-006  0.1520112E+03  0.7546771E-02  0.1207488E+00
          1   -1    0    0  501    0  0.00000000000E+00  0.00000000000E+00  0.16478963818E+03  0.16478963818E+03  0.00000000000E+00 0. -1.
         -1   -1    0    0    0  501 -0.00000000000E+00 -0.00000000000E+00 -0.11727268100E+03  0.11727268100E+03  0.00000000000E+00 0.  1.
         23    2    1    2    0    0  0.21461622735E+02  0.85200137740E+02  0.87843178738E+01  0.15226483766E+03  0.12404737734E+03 0.  0.
          5    1    3    3  502    0  0.52982004202E+02  0.10269331824E+03  0.60984992623E+01  0.11581145053E+03  0.47000000000E+01 0. -1.
         -5    1    3    3    0  502 -0.31520381467E+02 -0.17493180495E+02  0.26858186115E+01  0.36453387130E+02  0.47000000000E+01 0.  1.
        -11    1    1    2    0    0  0.25823028456E+02 -0.52737010385E+01  0.24238963983E+02  0.35807374886E+02  0.00000000000E+00 0. -1.
         11    1    1    2    0    0 -0.47284651192E+02 -0.79926436702E+02  0.14493675323E+02  0.93990106642E+02  0.00000000000E+00 0.  1.
<mgrwt>
<rscale>  0 0.14443096E+03</rscale>
<asrwt>0</asrwt>
<pdfrwt beam="1">  1        1 0.25352252E-01 0.15201124E+03</pdfrwt>
<pdfrwt beam="2">  1       -1 0.18041951E-01 0.15201124E+03</pdfrwt>
<totfact> 0.43263345E+03</totfact>
</mgrwt>
</event>
<event>
 7    1  0.6387485E-006  0.1338867E+03  0.7546771E-02  0.1234146E+00
         -1   -1    0    0    0  501 -0.00000000000E+00  0.00000000000E+00  0.19831432240E+03  0.19831432240E+03  0.00000000000E+00 0.  1.
          1   -1    0    0  501    0  0.00000000000E+00 -0.00000000000E+00 -0.75758421259E+02  0.75758421259E+02  0.00000000000E+00 0. -1.
         23    2    1    2    0    0 -0.26976385596E+02 -0.39650284425E+02  0.10217550806E+03  0.16842051707E+03  0.12500306271E+03 0.  0.
          5    1    3    3  502    0 -0.62350867390E+02  0.17778628390E+02  0.38544930256E+02  0.75574545584E+02  0.47000000000E+01 0. -1.
         -5    1    3    3    0  502  0.35374481794E+02 -0.57428912815E+02  0.63630577800E+02  0.92845971482E+02  0.47000000000E+01 0. -1.
        -11    1    1    2    0    0  0.52980584759E+02  0.21518798813E+02 -0.14014703965E+02  0.58876251502E+02  0.00000000000E+00 0. -1.
         11    1    1    2    0    0 -0.26004199163E+02  0.18131485612E+02  0.34395097050E+02  0.46775975091E+02  0.00000000000E+00 0.  1.
<mgrwt>
<rscale>  0 0.12559260E+03</rscale>
<asrwt>0</asrwt>
<pdfrwt beam="2">  1        1 0.11655142E-01 0.13388665E+03</pdfrwt>
<pdfrwt beam="1">  1       -1 0.30509896E-01 0.13388665E+03</pdfrwt>
<totfact> 0.49379491E+03</totfact>
</mgrwt>
</event>
<event>
 7    1  0.6387485E-006  0.1392346E+03  0.7546771E-02  0.1226095E+00
         -2   -1    0    0    0  501 -0.00000000000E+00  0.00000000000E+00  0.12935706271E+03  0.12935706271E+03  0.00000000000E+00 0. -1.
          2   -1    0    0  501    0  0.00000000000E+00 -0.00000000000E+00 -0.13534567240E+03  0.13534567240E+03  0.00000000000E+00 0.  1.
         23    2    1    2    0    0  0.61339101645E+02  0.20650884131E+01  0.42457559142E+02  0.14556415497E+03  0.12497811370E+03 0.  0.
          5    1    3    3  502    0  0.51181984970E+02  0.13514126094E+02 -0.36841225255E+02  0.64665238481E+02  0.47000000000E+01 0.  1.
         -5    1    3    3    0  502  0.10157116676E+02 -0.11449037681E+02  0.79298784396E+02  0.80898916493E+02  0.47000000000E+01 0.  1.
        -11    1    1    2    0    0  0.13324917856E+02  0.25854232637E+02 -0.14468987624E+02  0.32486095241E+02  0.00000000000E+00 0.  1.
         11    1    1    2    0    0 -0.74664019501E+02 -0.27919321050E+02 -0.33977181207E+02  0.86652484897E+02  0.00000000000E+00 0. -1.
<mgrwt>
<rscale>  0 0.13092161E+03</rscale>
<asrwt>0</asrwt>
<pdfrwt beam="2">  1        2 0.20822411E-01 0.13923462E+03</pdfrwt>
<pdfrwt beam="1">  1       -2 0.19901087E-01 0.13923462E+03</pdfrwt>
<totfact> 0.53625769E+03</totfact>
</mgrwt>
</event>
<event>
 7    1  0.6387485E-006  0.1654015E+03  0.7546771E-02  0.1188836E+00
          2   -1    0    0  501    0  0.00000000000E+00  0.00000000000E+00  0.91517940000E+03  0.91517940000E+03  0.00000000000E+00 0. -1.
         -2   -1    0    0    0  501 -0.00000000000E+00 -0.00000000000E+00 -0.28223461273E+02  0.28223461273E+02  0.00000000000E+00 0.  1.
         23    2    1    2    0    0 -0.23198120416E+02  0.10580153302E+03  0.34587279997E+03  0.38338709437E+03  0.12500221276E+03 0.  0.
          5    1    3    3  502    0  0.48252302675E+02  0.26395638525E+02  0.15599888012E+03  0.16547735508E+03  0.47000000000E+01 0.  1.
         -5    1    3    3    0  502 -0.71450423091E+02  0.79405894493E+02  0.18987391985E+03  0.21790973929E+03  0.47000000000E+01 0.  1.
        -11    1    1    2    0    0  0.48257810256E+02 -0.42152891048E+02  0.37438437972E+03  0.37982804827E+03  0.00000000000E+00 0. -1.
         11    1    1    2    0    0 -0.25059689840E+02 -0.63648641970E+02  0.16669875905E+03  0.18018771864E+03  0.00000000000E+00 0.  1.
<mgrwt>
<rscale>  0 0.15987639E+03</rscale>
<asrwt>0</asrwt>
<pdfrwt beam="1">  1        2 0.14079681E+00 0.16540154E+03</pdfrwt>
<pdfrwt beam="2">  1       -2 0.43420717E-02 0.16540154E+03</pdfrwt>
<totfact> 0.70469176E+03</totfact>
</mgrwt>
</event>
<event>
 7    1  0.6387485E-006  0.1280523E+03  0.7546771E-02  0.1243924E+00
         -2   -1    0    0    0  501 -0.00000000000E+00  0.00000000000E+00  0.33756243188E+02  0.33756243188E+02  0.00000000000E+00 0. -1.
          2   -1    0    0  501    0  0.00000000000E+00 -0.00000000000E+00 -0.46586914531E+03  0.46586914531E+03  0.00000000000E+00 0.  1.
         23    2    1    2    0    0 -0.14463710498E+02  0.23729714928E+02 -0.13079670850E+03  0.18304417335E+03  0.12500036860E+03 0.  0.
          5    1    3    3  502    0 -0.57575762409E+01  0.60005285186E+02 -0.16431938522E+02  0.62656863455E+02  0.47000000000E+01 0.  1.
         -5    1    3    3    0  502 -0.87061342569E+01 -0.36275570258E+02 -0.11436476998E+03  0.12038730989E+03  0.47000000000E+01 0.  1.
        -11    1    1    2    0    0 -0.10911564274E+02 -0.53896534798E+02 -0.13748840885E+03  0.14807755153E+03  0.00000000000E+00 0.  1.
         11    1    1    2    0    0  0.25375274772E+02  0.30166819870E+02 -0.16382778477E+03  0.16850366362E+03  0.00000000000E+00 0. -1.
<mgrwt>
<rscale>  0 0.11949982E+03</rscale>
<asrwt>0</asrwt>
<pdfrwt beam="2">  1        2 0.71672166E-01 0.12805230E+03</pdfrwt>
<pdfrwt beam="1">  1       -2 0.51932689E-02 0.12805230E+03</pdfrwt>
<totfact> 0.11762169E+04</totfact>
</mgrwt>
</event>
<event>
 7    1  0.6387485E-006  0.1338728E+03  0.7546771E-02  0.1234159E+00
         -2   -1    0    0    0  501 -0.00000000000E+00  0.00000000000E+00  0.53162597502E+02  0.53162597502E+02  0.00000000000E+00 0.  1.
          2   -1    0    0  501    0  0.00000000000E+00 -0.00000000000E+00 -0.35761880604E+03  0.35761880604E+03  0.00000000000E+00 0. -1.
         23    2    1    2    0    0 -0.27228989884E+02 -0.39436064458E+02 -0.62890602788E+02  0.14790924611E+03  0.12500118438E+03 0.  0.
          5    1    3    3  502    0 -0.74007248703E+02 -0.36967439406E+02 -0.22453002580E+02  0.85848073722E+02  0.47000000000E+01 0. -1.
         -5    1    3    3    0  502  0.46778258819E+02 -0.24686250522E+01 -0.40437600207E+02  0.62061172389E+02  0.47000000000E+01 0. -1.
        -11    1    1    2    0    0  0.51766709648E+02 -0.29814502880E+01 -0.15442497315E+03  0.16289798528E+03  0.00000000000E+00 0. -1.
         11    1    1    2    0    0 -0.24537719764E+02  0.42417514746E+02 -0.87140632596E+02  0.99974172153E+02  0.00000000000E+00 0.  1.
<mgrwt>
<rscale>  0 0.12558399E+03</rscale>
<asrwt>0</asrwt>
<pdfrwt beam="2">  1        2 0.55018278E-01 0.13387276E+03</pdfrwt>
<pdfrwt beam="1">  1       -2 0.81788612E-02 0.13387276E+03</pdfrwt>
<totfact> 0.78422340E+03</totfact>
</mgrwt>
</event>
<event>
 7    1  0.6387485E-006  0.1276666E+03  0.7546771E-02  0.1245626E+00
         -2   -1    0    0    0  501 -0.00000000000E+00  0.00000000000E+00  0.47108258095E+02  0.47108258095E+02  0.00000000000E+00 0.  1.
          2   -1    0    0  501    0  0.00000000000E+00 -0.00000000000E+00 -0.35375769907E+03  0.35375769907E+03  0.00000000000E+00 0. -1.
         23    2    1    2    0    0 -0.10781071287E+02 -0.23610676515E+02 -0.69168489536E+02  0.14520004262E+03  0.12500030756E+03 0.  0.
          5    1    3    3  502    0 -0.48836864734E+02 -0.56264263602E+02 -0.55475818589E+02  0.93007328549E+02  0.47000000000E+01 0.  1.
         -5    1    3    3    0  502  0.38055793447E+02  0.32653587087E+02 -0.13692670947E+02  0.52192714072E+02  0.47000000000E+01 0.  1.
        -11    1    1    2    0    0  0.19297092941E+02  0.47308647454E+02 -0.21778066997E+03  0.22369377759E+03  0.00000000000E+00 0. -1.
         11    1    1    2    0    0 -0.85160216544E+01 -0.23697970939E+02 -0.19700281470E+02  0.31972136955E+02  0.00000000000E+00 0.  1.
<mgrwt>
<rscale>  0 0.11847976E+03</rscale>
<asrwt>0</asrwt>
<pdfrwt beam="2">  1        2 0.54424262E-01 0.12766665E+03</pdfrwt>
<pdfrwt beam="1">  1       -2 0.72474242E-02 0.12766665E+03</pdfrwt>
<totfact> 0.95231525E+03</totfact>
</mgrwt>
</event>
<event>
 7    1  0.6387485E-006  0.1306537E+03  0.7546771E-02  0.1238363E+00
         -3   -1    0    0    0  501 -0.00000000000E+00  0.00000000000E+00  0.22719276824E+03  0.22719276824E+03  0.00000000000E+00 0.  1.
          3   -1    0    0  501    0  0.00000000000E+00 -0.00000000000E+00 -0.10592020607E+03  0.10592020607E+03  0.00000000000E+00 0. -1.
         23    2    1    2    0    0 -0.42734123174E+01 -0.37771466651E+02  0.17431112233E+03  0.21784110585E+03  0.12500173713E+03 0.  0.
          5    1    3    3  502    0 -0.53688847562E+02 -0.55873811245E+02  0.97950263732E+02  0.12498287603E+03  0.47000000000E+01 0. -1.
         -5    1    3    3    0  502  0.49415435244E+02  0.18102344594E+02  0.76360858599E+02  0.92858229825E+02  0.47000000000E+01 0. -1.
        -11    1    1    2    0    0  0.13157112193E+02  0.61763850148E+02 -0.82434302252E+01  0.63685453035E+02  0.00000000000E+00 0.  1.
         11    1    1    2    0    0 -0.88836998756E+01 -0.23992383497E+02 -0.44795129940E+02  0.51586415418E+02  0.00000000000E+00 0. -1.
<mgrwt>
<rscale>  0 0.12291586E+03</rscale>
<asrwt>0</asrwt>
<pdfrwt beam="2">  1        3 0.16295416E-01 0.13065366E+03</pdfrwt>
<pdfrwt beam="1">  1       -3 0.34952733E-01 0.13065366E+03</pdfrwt>
<totfact> 0.59620706E+02</totfact>
</mgrwt>
</event>
<event>
 7    1  0.6387485E-006  0.1329939E+03  0.7546771E-02  0.1236468E+00
          3   -1    0    0  501    0  0.00000000000E+00  0.00000000000E+00  0.24368731869E+03  0.24368731869E+03  0.00000000000E+00 0. -1.
         -3   -1    0    0    0  501 -0.00000000000E+00 -0.00000000000E+00 -0.73886482886E+02  0.73886482886E+02  0.00000000000E+00 0.  1.
         23    2    1    2    0    0  0.44862445839E+02  0.70430733415E+01  0.16422627979E+02  0.13400406678E+03  0.12500057310E+03 0.  0.
          5    1    3    3  502    0  0.75176682215E+02 -0.10064847736E+02 -0.24715342690E+02  0.79911030985E+02  0.47000000000E+01 0.  1.
         -5    1    3    3    0  502 -0.30314236376E+02  0.17107921077E+02  0.41137970669E+02  0.54093035794E+02  0.47000000000E+01 0.  1.
        -11    1    1    2    0    0  0.95727210013E+01 -0.81603159435E+01 -0.68643433466E+01  0.14329932074E+02  0.00000000000E+00 0.  1.
         11    1    1    2    0    0 -0.54435166841E+02  0.11172426020E+01  0.16024255117E+03  0.16923980272E+03  0.00000000000E+00 0. -1.
<mgrwt>
<rscale>  0 0.12410945E+03</rscale>
<asrwt>0</asrwt>
<pdfrwt beam="1">  1        3 0.37490356E-01 0.13299394E+03</pdfrwt>
<pdfrwt beam="2">  1       -3 0.11367151E-01 0.13299394E+03</pdfrwt>
<totfact> 0.96383294E+02</totfact>
</mgrwt>
</event>
<event>
 7    1  0.6387485E-006  0.1689191E+03  0.7546771E-02  0.1185685E+00
          2   -1    0    0  501    0  0.00000000000E+00  0.00000000000E+00  0.75221313014E+03  0.75221313014E+03  0.00000000000E+00 0.  1.
         -2   -1    0    0    0  501 -0.00000000000E+00 -0.00000000000E+00 -0.33573659680E+02  0.33573659680E+02  0.00000000000E+00 0. -1.
         23    2    1    2    0    0  0.96225421130E+02  0.60526945042E+02  0.44395940911E+03  0.47500905644E+03  0.12494320313E+03 0.  0.
          5    1    3    3  502    0  0.32762336073E+02  0.59505266689E+02  0.77924758019E+02  0.10348239145E+03  0.47000000000E+01 0.  1.
         -5    1    3    3    0  502  0.63463085058E+02  0.10216783528E+01  0.36603465110E+03  0.37152666498E+03  0.47000000000E+01 0.  1.
        -11    1    1    2    0    0 -0.65302086782E+02 -0.41234522179E+02  0.26043487788E+03  0.27164494101E+03  0.00000000000E+00 0.  1.
         11    1    1    2    0    0 -0.30923334348E+02 -0.19292422862E+02  0.14245183462E+02  0.39132792374E+02  0.00000000000E+00 0. -1.
<mgrwt>
<rscale>  0 0.16269748E+03</rscale>
<asrwt>0</asrwt>
<pdfrwt beam="1">  1        2 0.11572508E+00 0.16891905E+03</pdfrwt>
<pdfrwt beam="2">  1       -2 0.51651790E-02 0.16891905E+03</pdfrwt>
<totfact> 0.69737778E+03</totfact>
</mgrwt>
</event>
<event>
 7    1  0.6387485E-006  0.1355756E+03  0.7546771E-02  0.1231781E+00
          1   -1    0    0  501    0  0.00000000000E+00  0.00000000000E+00  0.52692705481E+02  0.52692705481E+02  0.00000000000E+00 0. -1.
         -1   -1    0    0    0  501 -0.00000000000E+00 -0.00000000000E+00 -0.27844610908E+03  0.27844610908E+03  0.00000000000E+00 0.  1.
         23    2    1    2    0    0 -0.48839606252E+02  0.20158488970E+02 -0.14745795279E+03  0.20031122235E+03  0.12485618183E+03 0.  0.
          5    1    3    3  502    0  0.31498640037E+01  0.12451456795E+02  0.20284737299E+02  0.24464688570E+02  0.47000000000E+01 0.  1.
         -5    1    3    3    0  502 -0.51989470256E+02  0.77070321757E+01 -0.16774269009E+03  0.17584653378E+03  0.47000000000E+01 0.  1.
        -11    1    1    2    0    0 -0.14099883788E+02 -0.35608619654E+02 -0.40779415543E+02  0.55944090381E+02  0.00000000000E+00 0.  1.
         11    1    1    2    0    0  0.62939490041E+02  0.15450130684E+02 -0.37516035264E+02  0.74883501832E+02  0.00000000000E+00 0. -1.
<mgrwt>
<rscale>  0 0.12712749E+03</rscale>
<asrwt>0</asrwt>
<pdfrwt beam="1">  1        1 0.81065701E-02 0.13557558E+03</pdfrwt>
<pdfrwt beam="2">  1       -1 0.42837863E-01 0.13557558E+03</pdfrwt>
<totfact> 0.44552399E+03</totfact>
</mgrwt>
</event>
<event>
 7    1  0.6387485E-006  0.1654288E+03  0.7546771E-02  0.1189756E+00
          2   -1    0    0  501    0  0.00000000000E+00  0.00000000000E+00  0.13933533446E+03  0.13933533446E+03  0.00000000000E+00 0. -1.
         -2   -1    0    0    0  501 -0.00000000000E+00 -0.00000000000E+00 -0.17229348000E+03  0.17229348000E+03  0.00000000000E+00 0.  1.
         23    2    1    2    0    0 -0.17027380877E+02 -0.10699767222E+03 -0.39467932285E+02  0.17007172069E+03  0.12501295509E+03 0.  0.
          5    1    3    3  502    0  0.33912840987E+02  0.11237710081E+02 -0.14525344645E+02  0.38851544998E+02  0.47000000000E+01 0.  1.
         -5    1    3    3    0  502 -0.50940221864E+02 -0.11823538230E+03 -0.24942587639E+02  0.13122017569E+03  0.47000000000E+01 0.  1.
        -11    1    1    2    0    0  0.35463678815E+02  0.39546898589E+02  0.37551223804E+02  0.65051703377E+02  0.00000000000E+00 0. -1.
         11    1    1    2    0    0 -0.18436297937E+02  0.67450773628E+02 -0.31041437063E+02  0.76505390395E+02  0.00000000000E+00 0.  1.
<mgrwt>
<rscale>  0 0.15906559E+03</rscale>
<asrwt>0</asrwt>
<pdfrwt beam="1">  1        2 0.21436205E-01 0.16542875E+03</pdfrwt>
<pdfrwt beam="2">  1       -2 0.26506689E-01 0.16542875E+03</pdfrwt>
<totfact> 0.31925952E+03</totfact>
</mgrwt>
</event>
<event>
 7    1  0.6387485E-006  0.1388036E+03  0.7546771E-02  0.1226429E+00
          3   -1    0    0  501    0  0.00000000000E+00  0.00000000000E+00  0.39747805699E+02  0.39747805699E+02  0.00000000000E+00 0. -1.
         -3   -1    0    0    0  501 -0.00000000000E+00 -0.00000000000E+00 -0.84435646284E+03  0.84435646284E+03  0.00000000000E+00 0.  1.
         23    2    1    2    0    0  0.32077574909E+00  0.60344139941E+02 -0.74880409829E+03  0.76156024682E+03  0.12499965515E+03 0.  0.
          5    1    3    3  502    0  0.21511552974E+02  0.81737675783E+02 -0.69144252706E+03  0.69660509099E+03  0.47000000000E+01 0.  1.
         -5    1    3    3    0  502 -0.21190777225E+02 -0.21393535842E+02 -0.57361571228E+02  0.64955155831E+02  0.47000000000E+01 0.  1.
        -11    1    1    2    0    0  0.14199688669E+00  0.14848051403E+02  0.13659132936E+02  0.20175646363E+02  0.00000000000E+00 0. -1.
         11    1    1    2    0    0 -0.46277263577E+00 -0.75192191344E+02 -0.69463691785E+02  0.10236837536E+03  0.00000000000E+00 0.  1.
<mgrwt>
<rscale>  0 0.13069442E+03</rscale>
<asrwt>0</asrwt>
<pdfrwt beam="1">  1        3 0.61150470E-02 0.13880357E+03</pdfrwt>
<pdfrwt beam="2">  1       -3 0.12990099E+00 0.13880357E+03</pdfrwt>
<totfact> 0.18932235E+02</totfact>
</mgrwt>
</event>
<event>
 6    1  0.6387485E-006  0.1540831E+03  0.7546771E-02  0.1217477E+00
         -2   -1    0    0    0  501 -0.00000000000E+00  0.00000000000E+00  0.57547426100E+02  0.57547426100E+02  0.00000000000E+00 0.  1.
          2   -1    0    0  501    0  0.00000000000E+00 -0.00000000000E+00 -0.37557622183E+03  0.37557622183E+03  0.00000000000E+00 0. -1.
          5    1    1    2  502    0 -0.30795936205E+02  0.23349263170E+02 -0.10422444305E+03  0.11125826849E+03  0.47000000000E+01 0. -1.
         -5    1    1    2    0  502  0.16560191424E+02 -0.48743437042E+02  0.30002421577E+02  0.59769539861E+02  0.47000000000E+01 0.  1.
        -11    1    1    2    0    0  0.15112850775E+02  0.59569258323E+02 -0.14288284380E+03  0.15553906856E+03  0.00000000000E+00 0. -1.
         11    1    1    2    0    0 -0.87710599411E+00 -0.34175084451E+02 -0.10092393046E+03  0.10655677103E+03  0.00000000000E+00 0.  1.
<mgrwt>
<rscale>  0 0.13696152E+03</rscale>
<asrwt>0</asrwt>
<pdfrwt beam="2">  1        2 0.57780955E-01 0.15408310E+03</pdfrwt>
<pdfrwt beam="1">  1       -2 0.88534505E-02 0.15408310E+03</pdfrwt>
<totfact> 0.66393551E+03</totfact>
</mgrwt>
</event>
<event>
 7    1  0.6387485E-006  0.1686129E+03  0.7546771E-02  0.1179700E+00
         -2   -1    0    0    0  501 -0.00000000000E+00  0.00000000000E+00  0.53546372278E+03  0.53546372278E+03  0.00000000000E+00 0.  1.
          2   -1    0    0  501    0  0.00000000000E+00 -0.00000000000E+00 -0.53001804856E+02  0.53001804856E+02  0.00000000000E+00 0. -1.
         23    2    1    2    0    0 -0.18131946161E+02  0.11205385464E+03  0.26716907484E+03  0.31592663607E+03  0.12468155844E+03 0.  0.
          5    1    3    3  502    0  0.33728679835E+01  0.13594609921E+03  0.21886408473E+03  0.25771359241E+03  0.47000000000E+01 0.  1.
         -5    1    3    3    0  502 -0.21504814144E+02 -0.23892244571E+02  0.48304990116E+02  0.58213043659E+02  0.47000000000E+01 0.  1.
        -11    1    1    2    0    0  0.19171135767E+02 -0.62316729538E+02  0.16003742356E+02  0.67134395032E+02  0.00000000000E+00 0. -1.
         11    1    1    2    0    0 -0.10391896069E+01 -0.49737125105E+02  0.19928910073E+03  0.20540449654E+03  0.00000000000E+00 0.  1.
<mgrwt>
<rscale>  0 0.16823646E+03</rscale>
<asrwt>0</asrwt>
<pdfrwt beam="2">  1        2 0.81541242E-02 0.16861294E+03</pdfrwt>
<pdfrwt beam="1">  1       -2 0.82379030E-01 0.16861294E+03</pdfrwt>
<totfact> 0.10875998E+03</totfact>
</mgrwt>
</event>
<event>
 6    1  0.6387485E-006  0.1910299E+03  0.7546771E-02  0.1180238E+00
          1   -1    0    0  501    0  0.00000000000E+00  0.00000000000E+00  0.72287109528E+02  0.72287109528E+02  0.00000000000E+00 0. -1.
         -1   -1    0    0    0  501 -0.00000000000E+00 -0.00000000000E+00 -0.34715913597E+03  0.34715913597E+03  0.00000000000E+00 0.  1.
          5    1    1    2  502    0 -0.88988328915E+02  0.31694887638E+01 -0.10931741723E+03  0.14107216611E+03  0.47000000000E+01 0. -1.
         -5    1    1    2    0  502  0.74447766411E+02 -0.69265315499E+02 -0.11647258462E+03  0.15468712559E+03  0.47000000000E+01 0.  1.
        -11    1    1    2    0    0 -0.68452825863E+01  0.68535080702E+02 -0.66694296296E+02  0.95875149747E+02  0.00000000000E+00 0.  1.
         11    1    1    2    0    0  0.21385845090E+02 -0.24392539663E+01  0.17612271702E+02  0.27811804052E+02  0.00000000000E+00 0. -1.
<mgrwt>
<rscale>  0 0.16772787E+03</rscale>
<asrwt>0</asrwt>
<pdfrwt beam="1">  1        1 0.11121094E-01 0.19102993E+03</pdfrwt>
<pdfrwt beam="2">  1       -1 0.53409099E-01 0.19102993E+03</pdfrwt>
<totfact> 0.19891729E+03</totfact>
</mgrwt>
</event>
<event>
 6    1  0.6387485E-006  0.1559845E+03  0.7546771E-02  0.1213361E+00
         -2   -1    0    0    0  501 -0.00000000000E+00  0.00000000000E+00  0.82983279936E+03  0.82983279936E+03  0.00000000000E+00 0. -1.
          2   -1    0    0  501    0  0.00000000000E+00 -0.00000000000E+00 -0.21803915691E+03  0.21803915691E+03  0.00000000000E+00 0.  1.
          5    1    1    2  502    0 -0.40812352113E+02  0.44676901796E+02  0.21790457970E+03  0.22619940206E+03  0.47000000000E+01 0. -1.
         -5    1    1    2    0  502  0.25225495524E+02 -0.84758419029E+02  0.59234323538E+03  0.59892646771E+03  0.47000000000E+01 0.  1.
        -11    1    1    2    0    0  0.15030768351E+02 -0.27843668458E+02 -0.82509428875E+02  0.88368544877E+02  0.00000000000E+00 0. -1.
         11    1    1    2    0    0  0.55608823725E+00  0.67925185691E+02 -0.11594474376E+03  0.13437754162E+03  0.00000000000E+00 0.  1.
<mgrwt>
<rscale>  0 0.13997645E+03</rscale>
<asrwt>0</asrwt>
<pdfrwt beam="2">  1        2 0.33544486E-01 0.15598455E+03</pdfrwt>
<pdfrwt beam="1">  1       -2 0.12766658E+00 0.15598455E+03</pdfrwt>
<totfact> 0.75601394E+01</totfact>
</mgrwt>
</event>
<event>
 7    1  0.6387485E-006  0.1517265E+03  0.7546771E-02  0.1207282E+00
         -3   -1    0    0    0  501 -0.00000000000E+00  0.00000000000E+00  0.39990722992E+03  0.39990722992E+03  0.00000000000E+00 0.  1.
          3   -1    0    0  501    0  0.00000000000E+00 -0.00000000000E+00 -0.49306149008E+02  0.49306149008E+02  0.00000000000E+00 0. -1.
         23    2    1    2    0    0 -0.79692196889E+02  0.32345670153E+02  0.22916995311E+03  0.27484505292E+03  0.12499538823E+03 0.  0.
          5    1    3    3  502    0 -0.48818120180E+02  0.19257746394E+01  0.22585054286E+03  0.23112220831E+03  0.47000000000E+01 0. -1.
         -5    1    3    3    0  502 -0.30874076709E+02  0.30419895513E+02  0.33194102552E+01  0.43722844602E+02  0.47000000000E+01 0. -1.
        -11    1    1    2    0    0 -0.10045905157E+02 -0.28188548168E+02  0.55090097775E+02  0.62693168137E+02  0.00000000000E+00 0. -1.
         11    1    1    2    0    0  0.89738102046E+02 -0.41571219845E+01  0.66341030024E+02  0.11167515788E+03  0.00000000000E+00 0.  1.
<mgrwt>
<rscale>  0 0.14459088E+03</rscale>
<asrwt>0</asrwt>
<pdfrwt beam="2">  1        3 0.75855617E-02 0.15172652E+03</pdfrwt>
<pdfrwt beam="1">  1       -3 0.61524187E-01 0.15172652E+03</pdfrwt>
<totfact> 0.71490974E+02</totfact>
</mgrwt>
</event>
<event>
 7    1  0.6387485E-006  0.1470325E+03  0.7546771E-02  0.1213610E+00
          2   -1    0    0  501    0  0.00000000000E+00  0.00000000000E+00  0.54445444265E+03  0.54445444265E+03  0.00000000000E+00 0. -1.
         -2   -1    0    0    0  501 -0.00000000000E+00 -0.00000000000E+00 -0.32778485046E+02  0.32778485046E+02  0.00000000000E+00 0.  1.
         23    2    1    2    0    0  0.51511691661E+01 -0.77244262325E+02  0.28422399597E+03  0.32000287171E+03  0.12500138964E+03 0.  0.
          5    1    3    3  502    0 -0.19503829020E+02 -0.76277390728E+02  0.28414171629E+03  0.29488513801E+03  0.47000000000E+01 0. -1.
         -5    1    3    3    0  502  0.24654998186E+02 -0.96687159641E+00  0.82279679160E-01  0.25117733699E+02  0.47000000000E+01 0. -1.
        -11    1    1    2    0    0 -0.10953491913E+02 -0.67183001664E+00 -0.49552407297E+01  0.12040961396E+02  0.00000000000E+00 0.  1.
         11    1    1    2    0    0  0.58023227468E+01  0.77916092341E+02  0.23240720236E+03  0.24518909458E+03  0.00000000000E+00 0. -1.
<mgrwt>
<rscale>  0 0.13979101E+03</rscale>
<asrwt>0</asrwt>
<pdfrwt beam="1">  1        2 0.83762215E-01 0.14703251E+03</pdfrwt>
<pdfrwt beam="2">  1       -2 0.50428443E-02 0.14703251E+03</pdfrwt>
<totfact> 0.10458089E+04</totfact>
</mgrwt>
</event>
<event>
 7    1  0.6387485E-006  0.1459282E+03  0.7546771E-02  0.1216249E+00
          1   -1    0    0  501    0  0.00000000000E+00  0.00000000000E+00  0.32931677722E+02  0.32931677722E+02  0.00000000000E+00 0. -1.
         -1   -1    0    0    0  501 -0.00000000000E+00 -0.00000000000E+00 -0.56569206699E+03  0.56569206699E+03  0.00000000000E+00 0.  1.
         23    2    1    2    0    0  0.65758421463E+02  0.36684692083E+02 -0.37724885176E+03  0.40448946948E+03  0.12500039257E+03 0.  0.
          5    1    3    3  502    0 -0.34396845862E+02  0.18728111210E+02 -0.64859260625E+02  0.75912441955E+02  0.47000000000E+01 0.  1.
         -5    1    3    3    0  502  0.10015526732E+03  0.17956580873E+02 -0.31238959113E+03  0.32857702753E+03  0.47000000000E+01 0.  1.
        -11    1    1    2    0    0 -0.68552277420E+02  0.71064339273E+01 -0.11680598951E+03  0.13562284221E+03  0.00000000000E+00 0.  1.
         11    1    1    2    0    0  0.27938559568E+01 -0.43791126011E+02 -0.38705547989E+02  0.58511433015E+02  0.00000000000E+00 0. -1.
<mgrwt>
<rscale>  0 0.13785207E+03</rscale>
<asrwt>0</asrwt>
<pdfrwt beam="1">  1        1 0.50664119E-02 0.14592818E+03</pdfrwt>
<pdfrwt beam="2">  1       -1 0.87029549E-01 0.14592818E+03</pdfrwt>
<totfact> 0.21715391E+03</totfact>
</mgrwt>
</event>
<event>
 6    1  0.6387485E-006  0.3022028E+03  0.7546771E-02  0.1087604E+00
          3   -1    0    0  501    0  0.00000000000E+00  0.00000000000E+00  0.46185318648E+03  0.46185318648E+03  0.00000000000E+00 0. -1.
         -3   -1    0    0    0  501 -0.00000000000E+00 -0.00000000000E+00 -0.35145472285E+03  0.35145472285E+03  0.00000000000E+00 0.  1.
          5    1    1    2  502    0  0.55182096671E+02  0.11320971089E+02 -0.84554783414E+01  0.57156043367E+02  0.47000000000E+01 0. -1.
         -5    1    1    2    0  502  0.37912227473E+02  0.23174781461E+03 -0.21832193647E+03  0.32067264384E+03  0.47000000000E+01 0.  1.
        -11    1    1    2    0    0 -0.40094026969E+02 -0.11942057217E+03  0.23468671394E+03  0.26635813814E+03  0.00000000000E+00 0. -1.
         11    1    1    2    0    0 -0.53000297175E+02 -0.12364821353E+03  0.10248916449E+03  0.16912108398E+03  0.00000000000E+00 0.  1.
<mgrwt>
<rscale>  0 0.29532016E+03</rscale>
<asrwt>0</asrwt>
<pdfrwt beam="1">  1        3 0.71054337E-01 0.30220278E+03</pdfrwt>
<pdfrwt beam="2">  1       -3 0.54069957E-01 0.30220278E+03</pdfrwt>
<totfact> 0.16372736E+01</totfact>
</mgrwt>
</event>
<event>
 7    1  0.6387485E-006  0.1711878E+03  0.7546771E-02  0.1180561E+00
         -1   -1    0    0    0  501 -0.00000000000E+00  0.00000000000E+00  0.21431511730E+03  0.21431511730E+03  0.00000000000E+00 0.  1.
          1   -1    0    0  501    0  0.00000000000E+00 -0.00000000000E+00 -0.13413911780E+03  0.13413911780E+03  0.00000000000E+00 0. -1.
         23    2    1    2    0    0  0.85152976778E+02 -0.80183785149E+02  0.86303584877E+02  0.19171220684E+03  0.12499917054E+03 0.  0.
          5    1    3    3  502    0  0.76697957220E+02 -0.22441541257E+02  0.10335680472E+03  0.13073223970E+03  0.47000000000E+01 0.  1.
         -5    1    3    3    0  502  0.84550195574E+01 -0.57742243892E+02 -0.17053219844E+02  0.60979967141E+02  0.47000000000E+01 0.  1.
        -11    1    1    2    0    0 -0.57604008205E+02 -0.28699947217E+01  0.26344857053E+02  0.63407492650E+02  0.00000000000E+00 0. -1.
         11    1    1    2    0    0 -0.27548968573E+02  0.83053779871E+02 -0.32472442429E+02  0.93334535610E+02  0.00000000000E+00 0.  1.
<mgrwt>
<rscale>  0 0.16742409E+03</rscale>
<asrwt>0</asrwt>
<pdfrwt beam="2">  1        1 0.20636787E-01 0.17118780E+03</pdfrwt>
<pdfrwt beam="1">  1       -1 0.32971557E-01 0.17118780E+03</pdfrwt>
<totfact> 0.20902916E+03</totfact>
</mgrwt>
</event>
<event>
 7    1  0.6387485E-006  0.1349569E+03  0.7546771E-02  0.1226964E+00
          3   -1    0    0  501    0  0.00000000000E+00  0.00000000000E+00  0.86293112182E+02  0.86293112182E+02  0.00000000000E+00 0. -1.
         -3   -1    0    0    0  501 -0.00000000000E+00 -0.00000000000E+00 -0.21323702929E+03  0.21323702929E+03  0.00000000000E+00 0.  1.
         23    2    1    2    0    0  0.50749254986E+02 -0.37256655486E+01 -0.12217718616E+03  0.18204565357E+03  0.12499595075E+03 0.  0.
          5    1    3    3  502    0  0.90143465293E+01  0.33217652818E+01  0.25870893510E+02  0.27994386919E+02  0.47000000000E+01 0. -1.
         -5    1    3    3    0  502  0.41734908457E+02 -0.70474308304E+01 -0.14804807967E+03  0.15405126666E+03  0.47000000000E+01 0. -1.
        -11    1    1    2    0    0 -0.63126583185E+02  0.39937310027E+02  0.12084151436E+02  0.75670211793E+02  0.00000000000E+00 0. -1.
         11    1    1    2    0    0  0.12377328199E+02 -0.36211644479E+02 -0.16850882391E+02  0.41814276110E+02  0.00000000000E+00 0.  1.
<mgrwt>
<rscale>  0 0.13033226E+03</rscale>
<asrwt>0</asrwt>
<pdfrwt beam="1">  1        3 0.13275863E-01 0.13495686E+03</pdfrwt>
<pdfrwt beam="2">  1       -3 0.32805697E-01 0.13495686E+03</pdfrwt>
<totfact> 0.95753875E+02</totfact>
</mgrwt>
</event>
<event>
 7    1  0.6387485E-006  0.1359203E+03  0.7546771E-02  0.1229215E+00
         -1   -1    0    0    0  501 -0.00000000000E+00  0.00000000000E+00  0.11889541067E+03  0.11889541067E+03  0.00000000000E+00 0.  1.
          1   -1    0    0  501    0  0.00000000000E+00 -0.00000000000E+00 -0.14183245017E+03  0.14183245017E+03  0.00000000000E+00 0. -1.
         23    2    1    2    0    0  0.35789904400E+02  0.39671520057E+02  0.29621622676E+02  0.13911064419E+03  0.12497833426E+03 0.  0.
          5    1    3    3  502    0  0.12912696361E+02 -0.30056259563E+02  0.52554876194E+02  0.62082376549E+02  0.47000000000E+01 0.  1.
         -5    1    3    3    0  502  0.22877208039E+02  0.69727779620E+02 -0.22933253518E+02  0.77028267638E+02  0.47000000000E+01 0.  1.
        -11    1    1    2    0    0 -0.38487224811E+02 -0.15005469860E+02  0.19299965835E+02  0.45595167294E+02  0.00000000000E+00 0.  1.
         11    1    1    2    0    0  0.26973204104E+01 -0.24666050197E+02 -0.71858628012E+02  0.76022049364E+02  0.00000000000E+00 0. -1.
<mgrwt>
<rscale>  0 0.12882168E+03</rscale>
<asrwt>0</asrwt>
<pdfrwt beam="2">  1        1 0.21820377E-01 0.13592031E+03</pdfrwt>
<pdfrwt beam="1">  1       -1 0.18291602E-01 0.13592031E+03</pdfrwt>
<totfact> 0.50810518E+03</totfact>
</mgrwt>
</event>
<event>
 7    1  0.6387485E-006  0.1698630E+03  0.7546771E-02  0.1184545E+00
          1   -1    0    0  501    0  0.00000000000E+00  0.00000000000E+00  0.42700382881E+02  0.42700382881E+02  0.00000000000E+00 0. -1.
         -1   -1    0    0    0  501 -0.00000000000E+00 -0.00000000000E+00 -0.60263584312E+03  0.60263584312E+03  0.00000000000E+00 0.  1.
         23    2    1    2    0    0  0.26133507454E+02  0.11202228040E+03 -0.35261793344E+03  0.39139856798E+03  0.12498592127E+03 0.  0.
          5    1    3    3  502    0  0.67058239379E+02  0.10056392529E+03 -0.30084185736E+03  0.32424963173E+03  0.47000000000E+01 0.  1.
         -5    1    3    3    0  502 -0.40924731925E+02  0.11458355108E+02 -0.51776076079E+02  0.67148936247E+02  0.47000000000E+01 0.  1.
        -11    1    1    2    0    0  0.12768780487E+02 -0.10660116007E+03 -0.15155796034E+03  0.18573277693E+03  0.00000000000E+00 0.  1.
         11    1    1    2    0    0 -0.38902287942E+02 -0.54211203280E+01 -0.55759566465E+02  0.68204881094E+02  0.00000000000E+00 0. -1.
<mgrwt>
<rscale>  0 0.16373382E+03</rscale>
<asrwt>0</asrwt>
<pdfrwt beam="1">  1        1 0.65692898E-02 0.16986298E+03</pdfrwt>
<pdfrwt beam="2">  1       -1 0.92713204E-01 0.16986298E+03</pdfrwt>
<totfact> 0.13391317E+03</totfact>
</mgrwt>
</event>
<event>
 7    1  0.6387485E-006  0.1400088E+03  0.7546771E-02  0.1223933E+00
         -2   -1    0    0    0  501 -0.00000000000E+00  0.00000000000E+00  0.62335526277E+02  0.62335526277E+02  0.00000000000E+00 0.  1.
          2   -1    0    0  501    0  0.00000000000E+00 -0.00000000000E+00 -0.28918228120E+03  0.28918228120E+03  0.00000000000E+00 0. -1.
         23    2    1    2    0    0 -0.26672015604E+02  0.57156347079E+02 -0.64136796089E+02  0.15399997293E+03  0.12499687444E+03 0.  0.
          5    1    3    3  502    0 -0.16202230968E+02  0.96480614903E+02 -0.53814965007E+02  0.11175491846E+03  0.47000000000E+01 0.  1.
         -5    1    3    3    0  502 -0.10469784636E+02 -0.39324267824E+02 -0.10321831082E+02  0.42245054470E+02  0.47000000000E+01 0.  1.
        -11    1    1    2    0    0 -0.11339899393E+02  0.19462270666E+02 -0.58601656562E+02  0.62781585274E+02  0.00000000000E+00 0. -1.
         11    1    1    2    0    0  0.38011914997E+02 -0.76618617745E+02 -0.10410830227E+03  0.13473624927E+03  0.00000000000E+00 0.  1.
<mgrwt>
<rscale>  0 0.13240315E+03</rscale>
<asrwt>0</asrwt>
<pdfrwt beam="2">  1        2 0.44489582E-01 0.14000880E+03</pdfrwt>
<pdfrwt beam="1">  1       -2 0.95900809E-02 0.14000880E+03</pdfrwt>
<totfact> 0.76911184E+03</totfact>
</mgrwt>
</event>
<event>
 7    1  0.6387485E-006  0.1357583E+03  0.7546771E-02  0.1231879E+00
          3   -1    0    0  501    0  0.00000000000E+00  0.00000000000E+00  0.55102043738E+02  0.55102043738E+02  0.00000000000E+00 0. -1.
         -3   -1    0    0    0  501 -0.00000000000E+00 -0.00000000000E+00 -0.27547094498E+03  0.27547094498E+03  0.00000000000E+00 0.  1.
         23    2    1    2    0    0  0.51047427877E+02  0.14128270503E+02 -0.16124347880E+03  0.21078369573E+03  0.12499943605E+03 0.  0.
          5    1    3    3  502    0  0.55013225536E+01 -0.53503749611E+02 -0.68023027782E+02  0.86845483940E+02  0.47000000000E+01 0.  1.
         -5    1    3    3    0  502  0.45546105323E+02  0.67632020114E+02 -0.93220451017E+02  0.12393821179E+03  0.47000000000E+01 0.  1.
        -11    1    1    2    0    0 -0.60741092976E+02  0.17102870150E+02 -0.14989183674E+02  0.64858801796E+02  0.00000000000E+00 0. -1.
         11    1    1    2    0    0  0.96936650985E+01 -0.31231140653E+02 -0.44136238768E+02  0.54930491188E+02  0.00000000000E+00 0.  1.
<mgrwt>
<rscale>  0 0.12706377E+03</rscale>
<asrwt>0</asrwt>
<pdfrwt beam="1">  1        3 0.84772376E-02 0.13575827E+03</pdfrwt>
<pdfrwt beam="2">  1       -3 0.42380145E-01 0.13575827E+03</pdfrwt>
<totfact> 0.12388620E+03</totfact>
</mgrwt>
</event>
<event>
 7    1  0.6387485E-006  0.1370544E+03  0.7546771E-02  0.1229299E+00
          1   -1    0    0  501    0  0.00000000000E+00  0.00000000000E+00  0.72484972152E+03  0.72484972152E+03  0.00000000000E+00 0. -1.
         -1   -1    0    0    0  501 -0.00000000000E+00 -0.00000000000E+00 -0.20967309901E+02  0.20967309901E+02  0.00000000000E+00 0.  1.
         23    2    1    2    0    0  0.19707058866E+02 -0.52627518734E+02  0.33984574580E+03  0.36644102911E+03  0.12500349186E+03 0.  0.
          5    1    3    3  502    0  0.37193717495E+02 -0.16750814469E+02  0.31811621273E+03  0.32075532296E+03  0.47000000000E+01 0.  1.
         -5    1    3    3    0  502 -0.17486658628E+02 -0.35876704265E+02  0.21729533078E+02  0.45685706153E+02  0.47000000000E+01 0.  1.
        -11    1    1    2    0    0 -0.45585997745E+02  0.97161923921E+01  0.96259054423E+02  0.10694995626E+03  0.00000000000E+00 0.  1.
         11    1    1    2    0    0  0.25878938878E+02  0.42911326342E+02  0.26777761140E+03  0.27242604606E+03  0.00000000000E+00 0. -1.
<mgrwt>
<rscale>  0 0.12876541E+03</rscale>
<asrwt>0</asrwt>
<pdfrwt beam="1">  1        1 0.11151532E+00 0.13705436E+03</pdfrwt>
<pdfrwt beam="2">  1       -1 0.32257405E-02 0.13705436E+03</pdfrwt>
<totfact> 0.87181428E+03</totfact>
</mgrwt>
</event>
<event>
 7    1  0.6387485E-006  0.2377874E+03  0.7546771E-02  0.1123982E+00
         -2   -1    0    0    0  501 -0.00000000000E+00  0.00000000000E+00  0.15598263367E+03  0.15598263367E+03  0.00000000000E+00 0. -1.
          2   -1    0    0  501    0  0.00000000000E+00 -0.00000000000E+00 -0.35857147696E+03  0.35857147696E+03  0.00000000000E+00 0.  1.
         23    2    1    2    0    0 -0.38004918784E+02  0.19867654810E+03 -0.44853252792E+02  0.24198070725E+03  0.12500441504E+03 0.  0.
          5    1    3    3  502    0 -0.59659527581E+02  0.30127387053E+02 -0.21614188933E+02  0.70400155150E+02  0.47000000000E+01 0.  1.
         -5    1    3    3    0  502  0.21654608798E+02  0.16854916104E+03 -0.23239063859E+02  0.17158055210E+03  0.47000000000E+01 0.  1.
        -11    1    1    2    0    0 -0.18258508319E+02 -0.40725287150E+01 -0.21243971941E+02  0.28306623960E+02  0.00000000000E+00 0.  1.
         11    1    1    2    0    0  0.56263427103E+02 -0.19460401938E+03 -0.13649161856E+03  0.24426677942E+03  0.00000000000E+00 0. -1.
<mgrwt>
<rscale>  0 0.23381631E+03</rscale>
<asrwt>0</asrwt>
<pdfrwt beam="2">  1        2 0.55164843E-01 0.23778740E+03</pdfrwt>
<pdfrwt beam="1">  1       -2 0.23997328E-01 0.23778740E+03</pdfrwt>
<totfact> 0.13725702E+03</totfact>
</mgrwt>
</event>
<event>
 6    1  0.6387485E-006  0.1495479E+03  0.7546771E-02  0.1213536E+00
          3   -1    0    0  501    0  0.00000000000E+00  0.00000000000E+00  0.11962485929E+03  0.11962485929E+03  0.00000000000E+00 0. -1.
         -3   -1    0    0    0  501 -0.00000000000E+00 -0.00000000000E+00 -0.19245628649E+03  0.19245628649E+03  0.00000000000E+00 0.  1.
          5    1    1    2  502    0 -0.58174608985E+02  0.81722190336E+02 -0.64457283012E+02  0.11932993278E+03  0.47000000000E+01 0. -1.
         -5    1    1    2    0  502 -0.33733621967E+00 -0.46917129859E+02 -0.52144545396E+02  0.70302734545E+02  0.47000000000E+01 0.  1.
        -11    1    1    2    0    0 -0.21505451669E+02 -0.12475308630E+02 -0.60401974049E+01  0.25585186370E+02  0.00000000000E+00 0. -1.
         11    1    1    2    0    0  0.80017396873E+02 -0.22329751847E+02  0.49810598607E+02  0.96863292084E+02  0.00000000000E+00 0.  1.
<mgrwt>
<rscale>  0 0.13984660E+03</rscale>
<asrwt>0</asrwt>
<pdfrwt beam="1">  1        3 0.18403825E-01 0.14954786E+03</pdfrwt>
<pdfrwt beam="2">  1       -3 0.29608659E-01 0.14954786E+03</pdfrwt>
<totfact> 0.67117233E+02</totfact>
</mgrwt>
</event>
<event>
 7    1  0.6387485E-006  0.1274718E+03  0.7546771E-02  0.1248950E+00
         -2   -1    0    0    0  501 -0.00000000000E+00  0.00000000000E+00  0.24254079421E+02  0.24254079421E+02  0.00000000000E+00 0.  1.
          2   -1    0    0  501    0  0.00000000000E+00 -0.00000000000E+00 -0.48305107816E+03  0.48305107816E+03  0.00000000000E+00 0. -1.
         23    2    1    2    0    0 -0.18884873732E+01 -0.24925650887E+02 -0.26732452314E+03  0.29616120531E+03  0.12499681756E+03 0.  0.
          5    1    3    3  502    0  0.53134835550E+02 -0.16659945579E+02 -0.20500379115E+03  0.21248413805E+03  0.47000000000E+01 0. -1.
         -5    1    3    3    0  502 -0.55023322923E+02 -0.82657053088E+01 -0.62320731991E+02  0.83677067263E+02  0.47000000000E+01 0. -1.
        -11    1    1    2    0    0 -0.17898227628E+01 -0.15660312156E+02 -0.39306676345E+00  0.15767160297E+02  0.00000000000E+00 0.  1.
         11    1    1    2    0    0  0.36783101360E+01  0.40585963043E+02 -0.19107940884E+03  0.19537679198E+03  0.00000000000E+00 0. -1.
<mgrwt>
<rscale>  0 0.11652031E+03</rscale>
<asrwt>0</asrwt>
<pdfrwt beam="2">  1        2 0.74315540E-01 0.12747180E+03</pdfrwt>
<pdfrwt beam="1">  1       -2 0.37313973E-02 0.12747180E+03</pdfrwt>
<totfact> 0.18500667E+04</totfact>
</mgrwt>
</event>
<event>
 6    1  0.6387485E-006  0.1510482E+03  0.7546771E-02  0.1211014E+00
         -2   -1    0    0    0  501 -0.00000000000E+00  0.00000000000E+00  0.41557026788E+03  0.41557026788E+03  0.00000000000E+00 0.  1.
          2   -1    0    0  501    0  0.00000000000E+00 -0.00000000000E+00 -0.61938080577E+02  0.61938080577E+02  0.00000000000E+00 0. -1.
          5    1    1    2  502    0  0.79112155188E+02  0.39614717188E+02  0.15496223491E+03  0.17850334217E+03  0.47000000000E+01 0. -1.
         -5    1    1    2    0  502 -0.17731894597E+02 -0.56017027256E+02  0.16787535215E+03  0.17792288017E+03  0.47000000000E+01 0.  1.
        -11    1    1    2    0    0 -0.49299267992E+02  0.56639133841E+02  0.19781674448E+02  0.77651297161E+02  0.00000000000E+00 0. -1.
         11    1    1    2    0    0 -0.12080992599E+02 -0.40236823773E+02  0.11012925794E+02  0.43430828959E+02  0.00000000000E+00 0.  1.
<mgrwt>
<rscale>  0 0.14173478E+03</rscale>
<asrwt>0</asrwt>
<pdfrwt beam="2">  1        2 0.95289357E-02 0.15104815E+03</pdfrwt>
<pdfrwt beam="1">  1       -2 0.63933886E-01 0.15104815E+03</pdfrwt>
<totfact> 0.15358835E+03</totfact>
</mgrwt>
</event>
<event>
 6    1  0.6387485E-006  0.2309512E+03  0.7546771E-02  0.1131460E+00
          3   -1    0    0  501    0  0.00000000000E+00  0.00000000000E+00  0.42996228921E+03  0.42996228921E+03  0.00000000000E+00 0. -1.
         -3   -1    0    0    0  501 -0.00000000000E+00 -0.00000000000E+00 -0.12526813771E+03  0.12526813771E+03  0.00000000000E+00 0.  1.
          5    1    1    2  502    0 -0.89557828670E+02 -0.96650961650E+02  0.88873607292E+01  0.13214797859E+03  0.47000000000E+01 0. -1.
         -5    1    1    2    0  502 -0.81822845545E+02  0.44216109443E+02  0.52152691889E+02  0.10673347956E+03  0.47000000000E+01 0.  1.
        -11    1    1    2    0    0  0.15306897856E+03  0.13185166958E+02  0.15808042807E+03  0.22043906769E+03  0.00000000000E+00 0. -1.
         11    1    1    2    0    0  0.18311695653E+02  0.39249685249E+02  0.85573670809E+02  0.95909901082E+02  0.00000000000E+00 0.  1.
<mgrwt>
<rscale>  0 0.22328110E+03</rscale>
<asrwt>0</asrwt>
<pdfrwt beam="1">  1        3 0.66148044E-01 0.23095121E+03</pdfrwt>
<pdfrwt beam="2">  1       -3 0.19272021E-01 0.23095121E+03</pdfrwt>
<totfact> 0.13321081E+02</totfact>
</mgrwt>
</event>
<event>
 6    1  0.6387485E-006  0.1722703E+03  0.7546771E-02  0.1204213E+00
         -1   -1    0    0    0  501 -0.00000000000E+00  0.00000000000E+00  0.70345006513E+02  0.70345006513E+02  0.00000000000E+00 0.  1.
          1   -1    0    0  501    0  0.00000000000E+00 -0.00000000000E+00 -0.29132626275E+03  0.29132626275E+03  0.00000000000E+00 0. -1.
          5    1    1    2  502    0  0.33938356694E+02 -0.52633264122E+02 -0.10070575142E+03  0.11868365901E+03  0.47000000000E+01 0. -1.
         -5    1    1    2    0  502 -0.25022118928E+02  0.55723726926E+02  0.29163323124E+02  0.67851526098E+02  0.47000000000E+01 0.  1.
        -11    1    1    2    0    0 -0.77714485225E+01 -0.25574123707E+02 -0.15024973714E+03  0.15260869807E+03  0.00000000000E+00 0. -1.
         11    1    1    2    0    0 -0.11447892433E+01  0.22483660903E+02  0.81090920193E+00  0.22527386083E+02  0.00000000000E+00 0.  1.
<mgrwt>
<rscale>  0 0.14699685E+03</rscale>
<asrwt>0</asrwt>
<pdfrwt beam="2">  1        1 0.44819425E-01 0.17227030E+03</pdfrwt>
<pdfrwt beam="1">  1       -1 0.10822309E-01 0.17227030E+03</pdfrwt>
<totfact> 0.47641344E+03</totfact>
</mgrwt>
</event>
<event>
 7    1  0.6387485E-006  0.1530893E+03  0.7546771E-02  0.1204586E+00
         -1   -1    0    0    0  501 -0.00000000000E+00  0.00000000000E+00  0.12379902890E+03  0.12379902890E+03  0.00000000000E+00 0.  1.
          1   -1    0    0  501    0  0.00000000000E+00 -0.00000000000E+00 -0.25249528189E+03  0.25249528189E+03  0.00000000000E+00 0. -1.
         23    2    1    2    0    0  0.60727957320E+02  0.64204865659E+02  0.45289593973E+02  0.15964798057E+03  0.12500472313E+03 0.  0.
          5    1    3    3  502    0  0.50730874762E+02  0.57842430152E+02 -0.30424626181E+02  0.82868065370E+02  0.47000000000E+01 0. -1.
         -5    1    3    3    0  502  0.99970825579E+01  0.63624355068E+01  0.75714220154E+02  0.76779915204E+02  0.47000000000E+01 0. -1.
        -11    1    1    2    0    0 -0.21442380285E+02 -0.82805157740E+02 -0.11153211069E+03  0.14055561723E+03  0.00000000000E+00 0. -1.
         11    1    1    2    0    0 -0.39285577035E+02  0.18600292081E+02 -0.62453736270E+02  0.76090712985E+02  0.00000000000E+00 0.  1.
<mgrwt>
<rscale>  0 0.14670092E+03</rscale>
<asrwt>0</asrwt>
<pdfrwt beam="2">  1        1 0.38845427E-01 0.15308929E+03</pdfrwt>
<pdfrwt beam="1">  1       -1 0.19046005E-01 0.15308929E+03</pdfrwt>
<totfact> 0.23306229E+03</totfact>
</mgrwt>
</event>
<event>
 7    1  0.6387485E-006  0.1429388E+03  0.7546771E-02  0.1219742E+00
          2   -1    0    0  501    0  0.00000000000E+00  0.00000000000E+00  0.44199885605E+02  0.44199885605E+02  0.00000000000E+00 0.  1.
         -2   -1    0    0    0  501 -0.00000000000E+00 -0.00000000000E+00 -0.43677962211E+03  0.43677962211E+03  0.00000000000E+00 0. -1.
         23    2    1    2    0    0  0.26033230671E+02  0.64263568377E+02 -0.30395689026E+03  0.33588881965E+03  0.12499589078E+03 0.  0.
          5    1    3    3  502    0  0.72821965852E+02  0.60681903752E+02 -0.18498732620E+03  0.20791280145E+03  0.47000000000E+01 0. -1.
         -5    1    3    3    0  502 -0.46788735181E+02  0.35816646250E+01 -0.11896956406E+03  0.12797601820E+03  0.47000000000E+01 0. -1.
        -11    1    1    2    0    0  0.99034601387E+01 -0.27093607386E+02  0.12561093598E+02  0.31463044294E+02  0.00000000000E+00 0.  1.
         11    1    1    2    0    0 -0.35936690810E+02 -0.37169960991E+02 -0.10118393985E+03  0.11362764377E+03  0.00000000000E+00 0. -1.
<mgrwt>
<rscale>  0 0.13533910E+03</rscale>
<asrwt>0</asrwt>
<pdfrwt beam="1">  1        2 0.67999824E-02 0.14293883E+03</pdfrwt>
<pdfrwt beam="2">  1       -2 0.67196865E-01 0.14293883E+03</pdfrwt>
<totfact> 0.21087015E+03</totfact>
</mgrwt>
</event>
<event>
 7    1  0.6387485E-006  0.1454499E+03  0.7546771E-02  0.1215896E+00
         -1   -1    0    0    0  501 -0.00000000000E+00  0.00000000000E+00  0.34619001497E+03  0.34619001497E+03  0.00000000000E+00 0.  1.
          1   -1    0    0  501    0  0.00000000000E+00 -0.00000000000E+00 -0.52383886099E+02  0.52383886099E+02  0.00000000000E+00 0. -1.
         23    2    1    2    0    0 -0.74841737925E+01  0.73970718347E+02  0.20181542231E+03  0.24876724116E+03  0.12501198166E+03 0.  0.
          5    1    3    3  502    0 -0.22463440987E+02 -0.27397754270E+02  0.22640992638E+02  0.42307773135E+02  0.47000000000E+01 0.  1.
         -5    1    3    3    0  502  0.14979267194E+02  0.10136847262E+03  0.17917442968E+03  0.20645946802E+03  0.47000000000E+01 0.  1.
        -11    1    1    2    0    0 -0.30422335828E+02 -0.72059737667E+02  0.74483394360E+02  0.10800879754E+03  0.00000000000E+00 0.  1.
         11    1    1    2    0    0  0.37906509620E+02 -0.19109806798E+01  0.17507312196E+02  0.41797862374E+02  0.00000000000E+00 0. -1.
<mgrwt>
<rscale>  0 0.13810916E+03</rscale>
<asrwt>0</asrwt>
<pdfrwt beam="2">  1        1 0.80590596E-02 0.14544991E+03</pdfrwt>
<pdfrwt beam="1">  1       -1 0.53260001E-01 0.14544991E+03</pdfrwt>
<totfact> 0.30390503E+03</totfact>
</mgrwt>
</event>
<event>
 7    1  0.6387485E-006  0.1262618E+03  0.7546771E-02  0.1248486E+00
         -1   -1    0    0    0  501 -0.00000000000E+00  0.00000000000E+00  0.46229590696E+03  0.46229590696E+03  0.00000000000E+00 0.  1.
          1   -1    0    0  501    0  0.00000000000E+00 -0.00000000000E+00 -0.26808815278E+02  0.26808815278E+02  0.00000000000E+00 0. -1.
         23    2    1    2    0    0 -0.26004794997E+01  0.17628341380E+02  0.29561721040E+03  0.32145228360E+03  0.12499805851E+03 0.  0.
          5    1    3    3  502    0  0.29193355755E+02 -0.82629167926E+01  0.91629793001E+01  0.32040255989E+02  0.47000000000E+01 0. -1.
         -5    1    3    3    0  502 -0.31793835255E+02  0.25891258172E+02  0.28645423110E+03  0.28941202761E+03  0.47000000000E+01 0. -1.
        -11    1    1    2    0    0 -0.85298293590E+01 -0.27896403466E+02  0.14773570903E+03  0.15058820352E+03  0.00000000000E+00 0.  1.
         11    1    1    2    0    0  0.11130308859E+02  0.10268062086E+02 -0.78658277469E+01  0.17064235126E+02  0.00000000000E+00 0. -1.
<mgrwt>
<rscale>  0 0.11679117E+03</rscale>
<asrwt>0</asrwt>
<pdfrwt beam="2">  1        1 0.41244335E-02 0.12626177E+03</pdfrwt>
<pdfrwt beam="1">  1       -1 0.71122441E-01 0.12626177E+03</pdfrwt>
<totfact> 0.43077855E+03</totfact>
</mgrwt>
</event>
<event>
 6    1  0.6387485E-006  0.1908060E+03  0.7546771E-02  0.1163509E+00
          1   -1    0    0  501    0  0.00000000000E+00  0.00000000000E+00  0.19827012645E+03  0.19827012645E+03  0.00000000000E+00 0. -1.
         -1   -1    0    0    0  501 -0.00000000000E+00 -0.00000000000E+00 -0.16131667301E+03  0.16131667301E+03  0.00000000000E+00 0.  1.
          5    1    1    2  502    0  0.92881578834E+02 -0.11324490250E+03  0.15980529929E+02  0.14740713336E+03  0.47000000000E+01 0. -1.
         -5    1    1    2    0  502 -0.40636977079E+02 -0.16594449448E+02  0.10597827223E+01  0.44158269871E+02  0.47000000000E+01 0.  1.
        -11    1    1    2    0    0 -0.62254564740E+02  0.13654596417E+03  0.68128677820E+01  0.15022265585E+03  0.00000000000E+00 0.  1.
         11    1    1    2    0    0  0.10009962985E+02 -0.67066122249E+01  0.13100273004E+02  0.17798740385E+02  0.00000000000E+00 0. -1.
<mgrwt>
<rscale>  0 0.18450888E+03</rscale>
<asrwt>0</asrwt>
<pdfrwt beam="1">  1        1 0.30503096E-01 0.19080600E+03</pdfrwt>
<pdfrwt beam="2">  1       -1 0.24817950E-01 0.19080600E+03</pdfrwt>
<totfact> 0.20633161E+03</totfact>
</mgrwt>
</event>
<event>
 7    1  0.6387485E-006  0.1278074E+03  0.7546771E-02  0.1245421E+00
          3   -1    0    0  501    0  0.00000000000E+00  0.00000000000E+00  0.77617078571E+02  0.77617078571E+02  0.00000000000E+00 0. -1.
         -3   -1    0    0    0  501 -0.00000000000E+00 -0.00000000000E+00 -0.17662470268E+03  0.17662470268E+03  0.00000000000E+00 0.  1.
         23    2    1    2    0    0  0.16684612288E+02  0.20064447150E+02 -0.95237141117E+02  0.15938896228E+03  0.12511502676E+03 0.  0.
          5    1    3    3  502    0  0.25351078334E+02  0.45727035415E+02 -0.11440588700E+03  0.12587468340E+03  0.47000000000E+01 0. -1.
         -5    1    3    3    0  502 -0.86664660463E+01 -0.25662588264E+02  0.19168745884E+02  0.33514278881E+02  0.47000000000E+01 0. -1.
        -11    1    1    2    0    0 -0.21307431090E+02 -0.51898530461E+02  0.14382169258E+02  0.57916412840E+02  0.00000000000E+00 0.  1.
         11    1    1    2    0    0  0.46228188021E+01  0.31834083311E+02 -0.18152652246E+02  0.36936406126E+02  0.00000000000E+00 0. -1.
<mgrwt>
<rscale>  0 0.11860246E+03</rscale>
<asrwt>0</asrwt>
<pdfrwt beam="1">  1        3 0.11941089E-01 0.12780739E+03</pdfrwt>
<pdfrwt beam="2">  1       -3 0.27173031E-01 0.12780739E+03</pdfrwt>
<totfact> 0.16060424E+03</totfact>
</mgrwt>
</event>
<event>
 7    1  0.9009950E-006  0.1803505E+03  0.7546771E-02  0.1173202E+00
         -2   -1    0    0    0  501 -0.00000000000E+00  0.00000000000E+00  0.17243257333E+02  0.17243257333E+02  0.00000000000E+00 0.  1.
          2   -1    0    0  501    0  0.00000000000E+00 -0.00000000000E+00 -0.17022842946E+04  0.17022842946E+04  0.00000000000E+00 0. -1.
         23    2    1    2    0    0  0.96242887835E+01  0.12964557888E+03 -0.76365966581E+03  0.78466705488E+03  0.12500279503E+03 0.  0.
          5    1    3    3  502    0 -0.57382432217E+02  0.64499059785E+02 -0.39009058378E+03  0.39955678670E+03  0.47000000000E+01 0. -1.
         -5    1    3    3    0  502  0.67006721001E+02  0.65146519093E+02 -0.37356908203E+03  0.38511026818E+03  0.47000000000E+01 0. -1.
        -11    1    1    2    0    0 -0.49082402558E+02 -0.55369550506E+02 -0.41640740777E+03  0.42293025266E+03  0.00000000000E+00 0.  1.
         11    1    1    2    0    0  0.39458113774E+02 -0.74276028371E+02 -0.50497396370E+03  0.51193024442E+03  0.00000000000E+00 0. -1.
<mgrwt>
<rscale>  0 0.17453199E+03</rscale>
<asrwt>0</asrwt>
<pdfrwt beam="2">  1        2 0.26189004E+00 0.18035050E+03</pdfrwt>
<pdfrwt beam="1">  1       -2 0.26528073E-02 0.18035050E+03</pdfrwt>
<totfact> 0.53857481E+03</totfact>
</mgrwt>
</event>
<event>
 7    1  0.6387485E-006  0.1498650E+03  0.7546771E-02  0.1209597E+00
          4   -1    0    0  501    0  0.00000000000E+00  0.00000000000E+00  0.47180917950E+02  0.47180917950E+02  0.00000000000E+00 0. -1.
         -4   -1    0    0    0  501 -0.00000000000E+00 -0.00000000000E+00 -0.39681327888E+03  0.39681327888E+03  0.00000000000E+00 0.  1.
         23    2    1    2    0    0 -0.64070164628E+02  0.52241856319E+02 -0.18284713657E+03  0.23641616134E+03  0.12500131377E+03 0.  0.
          5    1    3    3  502    0 -0.81886744337E+02 -0.90203766490E+01 -0.77724344992E+02  0.11335770771E+03  0.47000000000E+01 0. -1.
         -5    1    3    3    0  502  0.17816579709E+02  0.61262232968E+02 -0.10512279158E+03  0.12305845363E+03  0.47000000000E+01 0. -1.
        -11    1    1    2    0    0 -0.29324524655E+01 -0.18414304986E+02  0.56763705602E+01  0.19491205409E+02  0.00000000000E+00 0. -1.
         11    1    1    2    0    0  0.67002617094E+02 -0.33827551333E+02 -0.17246159492E+03  0.18808683007E+03  0.00000000000E+00 0.  1.
<mgrwt>
<rscale>  0 0.14281040E+03</rscale>
<asrwt>0</asrwt>
<pdfrwt beam="1">  1        4 0.72586028E-02 0.14986503E+03</pdfrwt>
<pdfrwt beam="2">  1       -4 0.61048197E-01 0.14986503E+03</pdfrwt>
<totfact> 0.56129375E+02</totfact>
</mgrwt>
</event>
<event>
 7    1  0.6387485E-006  0.1549731E+03  0.7546771E-02  0.1203240E+00
          1   -1    0    0  501    0  0.00000000000E+00  0.00000000000E+00  0.10639014970E+03  0.10639014970E+03  0.00000000000E+00 0. -1.
         -1   -1    0    0    0  501 -0.00000000000E+00 -0.00000000000E+00 -0.18871797196E+03  0.18871797196E+03  0.00000000000E+00 0.  1.
         23    2    1    2    0    0 -0.90455789285E+02  0.14450917798E+02 -0.38190502421E+02  0.15960944644E+03  0.12500232828E+03 0.  0.
          5    1    3    3  502    0  0.31549425025E+01 -0.35875885887E+02 -0.38902776144E+02  0.53221695221E+02  0.47000000000E+01 0. -1.
         -5    1    3    3    0  502 -0.93610731788E+02  0.50326803686E+02  0.71227372397E+00  0.10638775122E+03  0.47000000000E+01 0. -1.
        -11    1    1    2    0    0  0.29693141505E+02 -0.49674534841E+02 -0.19567108560E+02  0.61091028813E+02  0.00000000000E+00 0.  1.
         11    1    1    2    0    0  0.60762647781E+02  0.35223617042E+02 -0.24570211279E+02  0.74407646416E+02  0.00000000000E+00 0. -1.
<mgrwt>
<rscale>  0 0.14777015E+03</rscale>
<asrwt>0</asrwt>
<pdfrwt beam="1">  1        1 0.16367715E-01 0.15497310E+03</pdfrwt>
<pdfrwt beam="2">  1       -1 0.29033534E-01 0.15497310E+03</pdfrwt>
<totfact> 0.34773386E+03</totfact>
</mgrwt>
</event>
<event>
 7    1  0.6387485E-006  0.1371660E+03  0.7546771E-02  0.1231331E+00
         -1   -1    0    0    0  501 -0.00000000000E+00  0.00000000000E+00  0.25565246570E+02  0.25565246570E+02  0.00000000000E+00 0.  1.
          1   -1    0    0  501    0  0.00000000000E+00 -0.00000000000E+00 -0.56762182902E+03  0.56762182902E+03  0.00000000000E+00 0. -1.
         23    2    1    2    0    0  0.54291409016E+02 -0.15495970580E+02 -0.27631037739E+03  0.30848329275E+03  0.12500734000E+03 0.  0.
          5    1    3    3  502    0  0.13195914863E+02 -0.22463954711E+02 -0.26321140538E+03  0.26453940227E+03  0.47000000000E+01 0.  1.
         -5    1    3    3    0  502  0.41095494153E+02  0.69679841316E+01 -0.13098972009E+02  0.43943890476E+02  0.47000000000E+01 0.  1.
        -11    1    1    2    0    0  0.29148588752E+01  0.38931312922E+02 -0.81616175037E+02  0.90472888512E+02  0.00000000000E+00 0.  1.
         11    1    1    2    0    0 -0.57206267891E+02 -0.23435342342E+02 -0.18413003002E+03  0.19423089433E+03  0.00000000000E+00 0. -1.
<mgrwt>
<rscale>  0 0.12742290E+03</rscale>
<asrwt>0</asrwt>
<pdfrwt beam="2">  1        1 0.87326435E-01 0.13716602E+03</pdfrwt>
<pdfrwt beam="1">  1       -1 0.39331149E-02 0.13716602E+03</pdfrwt>
<totfact> 0.91647808E+03</totfact>
</mgrwt>
</event>
<event>
 7    1  0.6387485E-006  0.1317805E+03  0.7546771E-02  0.1235581E+00
         -2   -1    0    0    0  501 -0.00000000000E+00  0.00000000000E+00  0.37262825936E+03  0.37262825936E+03  0.00000000000E+00 0.  1.
          2   -1    0    0  501    0  0.00000000000E+00 -0.00000000000E+00 -0.84568582545E+02  0.84568582545E+02  0.00000000000E+00 0. -1.
         23    2    1    2    0    0 -0.17761943202E+02 -0.37757697609E+02  0.32068037309E+03  0.34670159557E+03  0.12499985732E+03 0.  0.
          5    1    3    3  502    0 -0.10250939615E+01 -0.25493929343E+02  0.32411480132E+03  0.32515148114E+03  0.47000000000E+01 0. -1.
         -5    1    3    3    0  502 -0.16736849241E+02 -0.12263768265E+02 -0.34344282351E+01  0.21550114428E+02  0.47000000000E+01 0. -1.
        -11    1    1    2    0    0 -0.15660631934E+02  0.36349481201E+02  0.22862115692E+02  0.45707947997E+02  0.00000000000E+00 0.  1.
         11    1    1    2    0    0  0.33422575136E+02  0.14082164071E+01 -0.55482811967E+02  0.64787298338E+02  0.00000000000E+00 0. -1.
<mgrwt>
<rscale>  0 0.12467339E+03</rscale>
<asrwt>0</asrwt>
<pdfrwt beam="2">  1        2 0.13010551E-01 0.13178048E+03</pdfrwt>
<pdfrwt beam="1">  1       -2 0.57327424E-01 0.13178048E+03</pdfrwt>
<totfact> 0.13097962E+03</totfact>
</mgrwt>
</event>
<event>
 7    1  0.6387485E-006  0.1509374E+03  0.7546771E-02  0.1207711E+00
          1   -1    0    0  501    0  0.00000000000E+00  0.00000000000E+00  0.41812175140E+03  0.41812175140E+03  0.00000000000E+00 0. -1.
         -1   -1    0    0    0  501 -0.00000000000E+00 -0.00000000000E+00 -0.51716008282E+02  0.51716008282E+02  0.00000000000E+00 0.  1.
         23    2    1    2    0    0  0.83877923481E+01  0.84193843001E+02  0.11894431396E+03  0.19217142040E+03  0.12499258672E+03 0.  0.
          5    1    3    3  502    0 -0.35394017980E+02  0.89119272963E+02  0.45139197360E+02  0.10608778658E+03  0.47000000000E+01 0. -1.
         -5    1    3    3    0  502  0.43781810328E+02 -0.49254299618E+01  0.73805116597E+02  0.86083633821E+02  0.47000000000E+01 0. -1.
        -11    1    1    2    0    0 -0.13016369854E+02  0.17007890471E+02  0.23143680946E+02  0.31532906466E+02  0.00000000000E+00 0.  1.
         11    1    1    2    0    0  0.46285775063E+01 -0.10120173347E+03  0.22431774822E+03  0.24613343282E+03  0.00000000000E+00 0. -1.
<mgrwt>
<rscale>  0 0.14425820E+03</rscale>
<asrwt>0</asrwt>
<pdfrwt beam="1">  1        1 0.64326421E-01 0.15093742E+03</pdfrwt>
<pdfrwt beam="2">  1       -1 0.79563092E-02 0.15093742E+03</pdfrwt>
<totfact> 0.48086120E+03</totfact>
</mgrwt>
</event>
<event>
 7    1  0.6387485E-006  0.2217620E+03  0.7546771E-02  0.1135781E+00
          2   -1    0    0  501    0  0.00000000000E+00  0.00000000000E+00  0.16888771982E+04  0.16888771982E+04  0.00000000000E+00 0. -1.
         -2   -1    0    0    0  501 -0.00000000000E+00 -0.00000000000E+00 -0.27702595172E+02  0.27702595172E+02  0.00000000000E+00 0.  1.
         23    2    1    2    0    0 -0.16701032981E+03  0.75536667430E+02  0.72286074286E+03  0.75611244781E+03  0.12482043811E+03 0.  0.
          5    1    3    3  502    0  0.31109307090E+01  0.39985977114E+02  0.22922290104E+03  0.23275262537E+03  0.47000000000E+01 0.  1.
         -5    1    3    3    0  502 -0.17012126052E+03  0.35550690316E+02  0.49363784181E+03  0.52335982243E+03  0.47000000000E+01 0.  1.
        -11    1    1    2    0    0  0.13975416870E+03 -0.72700133465E+02  0.89805433989E+03  0.91176649120E+03  0.00000000000E+00 0.  1.
         11    1    1    2    0    0  0.27256161114E+02 -0.28365339655E+01  0.40259520298E+02  0.48700854389E+02  0.00000000000E+00 0. -1.
<mgrwt>
<rscale>  0 0.21747280E+03</rscale>
<asrwt>0</asrwt>
<pdfrwt beam="1">  1        2 0.25982718E+00 0.22176199E+03</pdfrwt>
<pdfrwt beam="2">  1       -2 0.42619390E-02 0.22176199E+03</pdfrwt>
<totfact> 0.27044136E+03</totfact>
</mgrwt>
</event>
<event>
 7    1  0.6387485E-006  0.2352934E+03  0.7546771E-02  0.1125721E+00
         -1   -1    0    0    0  501 -0.00000000000E+00  0.00000000000E+00  0.17295153235E+03  0.17295153235E+03  0.00000000000E+00 0. -1.
          1   -1    0    0  501    0  0.00000000000E+00 -0.00000000000E+00 -0.33227712643E+03  0.33227712643E+03  0.00000000000E+00 0.  1.
         23    2    1    2    0    0  0.76448419705E+02 -0.18410807424E+03 -0.25986467132E+01  0.23530773411E+03  0.12499133126E+03 0.  0.
          5    1    3    3  502    0 -0.31507699689E+02 -0.20807093466E+02  0.91692033266E+01  0.39138658227E+02  0.47000000000E+01 0.  1.
         -5    1    3    3    0  502  0.10795611939E+03 -0.16330098078E+03 -0.11767850040E+02  0.19616907588E+03  0.47000000000E+01 0.  1.
        -11    1    1    2    0    0 -0.62359684983E+02  0.16965498150E+03 -0.16802752988E+03  0.24678896624E+03  0.00000000000E+00 0.  1.
         11    1    1    2    0    0 -0.14088734722E+02  0.14453092744E+02  0.11300582506E+02  0.23131958433E+02  0.00000000000E+00 0. -1.
<mgrwt>
<rscale>  0 0.23130973E+03</rscale>
<asrwt>0</asrwt>
<pdfrwt beam="2">  1        1 0.51119558E-01 0.23529338E+03</pdfrwt>
<pdfrwt beam="1">  1       -1 0.26607928E-01 0.23529338E+03</pdfrwt>
<totfact> 0.96492202E+02</totfact>
</mgrwt>
</event>
<event>
 7    1  0.6387485E-006  0.1389216E+03  0.7546771E-02  0.1230238E+00
          2   -1    0    0  501    0  0.00000000000E+00  0.00000000000E+00  0.94811709340E+03  0.94811709340E+03  0.00000000000E+00 0. -1.
         -2   -1    0    0    0  501 -0.00000000000E+00 -0.00000000000E+00 -0.15862936319E+02  0.15862936319E+02  0.00000000000E+00 0.  1.
         23    2    1    2    0    0 -0.58261385546E+02 -0.16853798512E+02  0.64006990598E+03  0.65497229469E+03  0.12498312968E+03 0.  0.
          5    1    3    3  502    0 -0.63932695421E+02 -0.54898168905E+02  0.27011978649E+03  0.28299821120E+03  0.47000000000E+01 0. -1.
         -5    1    3    3    0  502  0.56713098747E+01  0.38044370393E+02  0.36995011949E+03  0.37197408349E+03  0.47000000000E+01 0. -1.
        -11    1    1    2    0    0  0.14761277003E+02  0.26997859688E+02  0.29752282127E+02  0.42801612333E+02  0.00000000000E+00 0.  1.
         11    1    1    2    0    0  0.43500108543E+02 -0.10144061176E+02  0.26243196897E+03  0.26620612269E+03  0.00000000000E+00 0. -1.
<mgrwt>
<rscale>  0 0.12814261E+03</rscale>
<asrwt>0</asrwt>
<pdfrwt beam="1">  1        2 0.14586412E+00 0.13892164E+03</pdfrwt>
<pdfrwt beam="2">  1       -2 0.24404525E-02 0.13892164E+03</pdfrwt>
<totfact> 0.15605859E+04</totfact>
</mgrwt>
</event>
<event>
 6    1  0.6387485E-006  0.2242266E+03  0.7546771E-02  0.1154936E+00
          2   -1    0    0  501    0  0.00000000000E+00  0.00000000000E+00  0.31642714235E+03  0.31642714235E+03  0.00000000000E+00 0. -1.
         -2   -1    0    0    0  501 -0.00000000000E+00 -0.00000000000E+00 -0.10426715973E+03  0.10426715973E+03  0.00000000000E+00 0.  1.
          5    1    1    2  502    0  0.37433551885E+02  0.35271304056E+02  0.13554947591E+03  0.14505545876E+03  0.47000000000E+01 0. -1.
         -5    1    1    2    0  502 -0.54131302762E+02  0.49635355336E+02 -0.56411737164E+02  0.92726698032E+02  0.47000000000E+01 0.  1.
        -11    1    1    2    0    0 -0.12739744701E+02  0.13467607952E+02  0.58089661134E+01  0.19427342750E+02  0.00000000000E+00 0.  1.
         11    1    1    2    0    0  0.29437495578E+02 -0.98374267345E+02  0.12721327776E+03  0.16348480254E+03  0.00000000000E+00 0. -1.
<mgrwt>
<rscale>  0 0.19396196E+03</rscale>
<asrwt>0</asrwt>
<pdfrwt beam="1">  1        2 0.48681098E-01 0.22422661E+03</pdfrwt>
<pdfrwt beam="2">  1       -2 0.16041102E-01 0.22422661E+03</pdfrwt>
<totfact> 0.31213146E+03</totfact>
</mgrwt>
</event>
<event>
 7    1  0.6387485E-006  0.1696399E+03  0.7546771E-02  0.1184601E+00
          1   -1    0    0  501    0  0.00000000000E+00  0.00000000000E+00  0.39744806018E+02  0.39744806018E+02  0.00000000000E+00 0. -1.
         -1   -1    0    0    0  501 -0.00000000000E+00 -0.00000000000E+00 -0.69939094033E+03  0.69939094033E+03  0.00000000000E+00 0.  1.
         23    2    1    2    0    0 -0.50109474299E+02  0.10315961625E+03 -0.46652482917E+03  0.49641022993E+03  0.12499933724E+03 0.  0.
          5    1    3    3  502    0  0.31985357109E+02  0.68350193977E+02 -0.27302249444E+03  0.28329875495E+03  0.47000000000E+01 0. -1.
         -5    1    3    3    0  502 -0.82094831409E+02  0.34809422269E+02 -0.19350233473E+03  0.21311147498E+03  0.47000000000E+01 0. -1.
        -11    1    1    2    0    0  0.20169018590E+01 -0.98084709355E+02 -0.11903989347E+03  0.15425684536E+03  0.00000000000E+00 0. -1.
         11    1    1    2    0    0  0.48092572440E+02 -0.50749068909E+01 -0.74081411672E+02  0.88468671061E+02  0.00000000000E+00 0.  1.
<mgrwt>
<rscale>  0 0.16368263E+03</rscale>
<asrwt>0</asrwt>
<pdfrwt beam="1">  1        1 0.61145866E-02 0.16963991E+03</pdfrwt>
<pdfrwt beam="2">  1       -1 0.10759859E+00 0.16963991E+03</pdfrwt>
<totfact> 0.10625255E+03</totfact>
</mgrwt>
</event>
<event>
 6    1  0.6387485E-006  0.1612506E+03  0.7546771E-02  0.1207439E+00
         -2   -1    0    0    0  501 -0.00000000000E+00  0.00000000000E+00  0.68796170652E+02  0.68796170652E+02  0.00000000000E+00 0.  1.
          2   -1    0    0  501    0  0.00000000000E+00 -0.00000000000E+00 -0.32401751050E+03  0.32401751050E+03  0.00000000000E+00 0. -1.
          5    1    1    2  502    0  0.10915542891E+02  0.46648843932E+02  0.79286737240E+01  0.48787473637E+02  0.47000000000E+01 0. -1.
         -5    1    1    2    0  502 -0.37078475702E+02 -0.95638437950E+02 -0.68650188774E+02  0.12351705385E+03  0.47000000000E+01 0.  1.
        -11    1    1    2    0    0  0.77998965852E+01 -0.23378514077E+02 -0.80899963729E+02  0.84570665355E+02  0.00000000000E+00 0.  1.
         11    1    1    2    0    0  0.18363036226E+02  0.72368108095E+02 -0.11359986107E+03  0.13593848831E+03  0.00000000000E+00 0. -1.
<mgrwt>
<rscale>  0 0.14446887E+03</rscale>
<asrwt>0</asrwt>
<pdfrwt beam="2">  1        2 0.49848848E-01 0.16125057E+03</pdfrwt>
<pdfrwt beam="1">  1       -2 0.10584026E-01 0.16125057E+03</pdfrwt>
<totfact> 0.58858587E+03</totfact>
</mgrwt>
</event>
<event>
 6    1  0.6387485E-006  0.1551050E+03  0.7546771E-02  0.1204345E+00
         -1   -1    0    0    0  501 -0.00000000000E+00  0.00000000000E+00  0.35369067531E+03  0.35369067531E+03  0.00000000000E+00 0.  1.
          1   -1    0    0  501    0  0.00000000000E+00 -0.00000000000E+00 -0.17475310759E+03  0.17475310759E+03  0.00000000000E+00 0. -1.
          5    1    1    2  502    0  0.28393580611E+02 -0.39047534439E+02  0.39039214636E+02  0.62266007139E+02  0.47000000000E+01 0. -1.
         -5    1    1    2    0  502 -0.81728343174E+02 -0.26987175872E+02  0.27148590753E+03  0.28484121494E+03  0.47000000000E+01 0.  1.
        -11    1    1    2    0    0  0.60051053089E+02  0.50917458324E+02 -0.40081427876E+02  0.88347254625E+02  0.00000000000E+00 0. -1.
         11    1    1    2    0    0 -0.67162905251E+01  0.15117251986E+02 -0.91506126571E+02  0.92989306192E+02  0.00000000000E+00 0.  1.
<mgrwt>
<rscale>  0 0.14689173E+03</rscale>
<asrwt>0</asrwt>
<pdfrwt beam="2">  1        1 0.26885094E-01 0.15510504E+03</pdfrwt>
<pdfrwt beam="1">  1       -1 0.54413950E-01 0.15510504E+03</pdfrwt>
<totfact> 0.61149665E+02</totfact>
</mgrwt>
</event>
<event>
 7    1  0.6387485E-006  0.1325165E+03  0.7546771E-02  0.1238065E+00
         -1   -1    0    0    0  501 -0.00000000000E+00  0.00000000000E+00  0.26927103311E+03  0.26927103311E+03  0.00000000000E+00 0.  1.
          1   -1    0    0  501    0  0.00000000000E+00 -0.00000000000E+00 -0.69101984705E+02  0.69101984705E+02  0.00000000000E+00 0. -1.
         23    2    1    2    0    0  0.40353496398E+02  0.17533700659E+02  0.19972212779E+03  0.23968636032E+03  0.12499915066E+03 0.  0.
          5    1    3    3  502    0 -0.15152593579E+02 -0.40505657919E+02  0.11453478778E+03  0.12251782331E+03  0.47000000000E+01 0. -1.
         -5    1    3    3    0  502  0.55506089977E+02  0.58039358578E+02  0.85187340009E+02  0.11716853702E+03  0.47000000000E+01 0. -1.
        -11    1    1    2    0    0 -0.16042942800E+02 -0.11508918634E+02  0.44122853764E+02  0.48338984744E+02  0.00000000000E+00 0.  1.
         11    1    1    2    0    0 -0.24310553598E+02 -0.60247820249E+01 -0.43675933149E+02  0.50347672748E+02  0.00000000000E+00 0. -1.
<mgrwt>
<rscale>  0 0.12310224E+03</rscale>
<asrwt>0</asrwt>
<pdfrwt beam="2">  1        1 0.10631075E-01 0.13251650E+03</pdfrwt>
<pdfrwt beam="1">  1       -1 0.41426312E-01 0.13251650E+03</pdfrwt>
<totfact> 0.32913632E+03</totfact>
</mgrwt>
</event>
<event>
 7    1  0.6387485E-006  0.1608075E+03  0.7546771E-02  0.1193369E+00
         -2   -1    0    0    0  501 -0.00000000000E+00  0.00000000000E+00  0.64042623019E+02  0.64042623019E+02  0.00000000000E+00 0.  1.
          2   -1    0    0  501    0  0.00000000000E+00 -0.00000000000E+00 -0.41933238649E+03  0.41933238649E+03  0.00000000000E+00 0. -1.
         23    2    1    2    0    0  0.15392375275E+02  0.99988359789E+02 -0.94957143021E+02  0.18675096034E+03  0.12499785946E+03 0.  0.
          5    1    3    3  502    0 -0.24045600540E+02  0.96570037563E+02 -0.10591353198E+03  0.14540883507E+03  0.47000000000E+01 0.  1.
         -5    1    3    3    0  502  0.39437975815E+02  0.34183222252E+01  0.10956388957E+02  0.41342125274E+02  0.47000000000E+01 0.  1.
        -11    1    1    2    0    0 -0.30781229767E+02 -0.56143106598E+02 -0.23527371204E+03  0.24383037568E+03  0.00000000000E+00 0. -1.
         11    1    1    2    0    0  0.15388854492E+02 -0.43845253190E+02 -0.25058908408E+02  0.52793673489E+02  0.00000000000E+00 0.  1.
<mgrwt>
<rscale>  0 0.15593118E+03</rscale>
<asrwt>0</asrwt>
<pdfrwt beam="2">  1        2 0.64512675E-01 0.16080753E+03</pdfrwt>
<pdfrwt beam="1">  1       -2 0.98527113E-02 0.16080753E+03</pdfrwt>
<totfact> 0.49994847E+03</totfact>
</mgrwt>
</event>
<event>
 7    1  0.6387485E-006  0.1265967E+03  0.7546771E-02  0.1247553E+00
          1   -1    0    0  501    0  0.00000000000E+00  0.00000000000E+00  0.40892009651E+03  0.40892009651E+03  0.00000000000E+00 0. -1.
         -1   -1    0    0    0  501 -0.00000000000E+00 -0.00000000000E+00 -0.29784435133E+02  0.29784435133E+02  0.00000000000E+00 0.  1.
         23    2    1    2    0    0 -0.56087258830E+00 -0.20014512523E+02  0.20079791425E+03  0.23737425796E+03  0.12500336269E+03 0.  0.
          5    1    3    3  502    0  0.32043415582E+02 -0.62384290496E+02  0.89410867382E+02  0.11373202446E+03  0.47000000000E+01 0. -1.
         -5    1    3    3    0  502 -0.32604288170E+02  0.42369777974E+02  0.11138704687E+03  0.12364223350E+03  0.47000000000E+01 0. -1.
        -11    1    1    2    0    0  0.18965399220E+02 -0.13972903385E+02  0.54557193547E+01  0.24180431556E+02  0.00000000000E+00 0.  1.
         11    1    1    2    0    0 -0.18404526632E+02  0.33987415908E+02  0.17288202777E+03  0.17714984213E+03  0.00000000000E+00 0. -1.
<mgrwt>
<rscale>  0 0.11733856E+03</rscale>
<asrwt>0</asrwt>
<pdfrwt beam="1">  1        1 0.62910780E-01 0.12659675E+03</pdfrwt>
<pdfrwt beam="2">  1       -1 0.45822211E-02 0.12659675E+03</pdfrwt>
<totfact> 0.11135717E+04</totfact>
</mgrwt>
</event>
<event>
 7    1  0.6387485E-006  0.1283650E+03  0.7546771E-02  0.1244807E+00
          2   -1    0    0  501    0  0.00000000000E+00  0.00000000000E+00  0.37428638254E+03  0.37428638254E+03  0.00000000000E+00 0. -1.
         -2   -1    0    0    0  501 -0.00000000000E+00 -0.00000000000E+00 -0.40317777908E+02  0.40317777908E+02  0.00000000000E+00 0.  1.
         23    2    1    2    0    0 -0.10936094611E+02  0.27013180548E+02  0.10170663935E+03  0.16377364581E+03  0.12501302527E+03 0.  0.
          5    1    3    3  502    0 -0.25624519393E+02  0.53261036163E+02  0.11589914958E+03  0.13018470279E+03  0.47000000000E+01 0.  1.
         -5    1    3    3    0  502  0.14688424782E+02 -0.26247855614E+02 -0.14192510230E+02  0.33588943025E+02  0.47000000000E+01 0.  1.
        -11    1    1    2    0    0 -0.19478494200E+02 -0.40472239882E+01  0.51598717592E+01  0.20552762220E+02  0.00000000000E+00 0.  1.
         11    1    1    2    0    0  0.30414588811E+02 -0.22965956560E+02  0.22710209353E+03  0.23027775241E+03  0.00000000000E+00 0. -1.
<mgrwt>
<rscale>  0 0.11896958E+03</rscale>
<asrwt>0</asrwt>
<pdfrwt beam="1">  1        2 0.57582518E-01 0.12836497E+03</pdfrwt>
<pdfrwt beam="2">  1       -2 0.62027353E-02 0.12836497E+03</pdfrwt>
<totfact> 0.11375914E+04</totfact>
</mgrwt>
</event>
<event>
 7    1  0.6387485E-006  0.1383221E+03  0.7546771E-02  0.1226140E+00
          2   -1    0    0  501    0  0.00000000000E+00  0.00000000000E+00  0.47222343818E+03  0.47222343818E+03  0.00000000000E+00 0. -1.
         -2   -1    0    0    0  501 -0.00000000000E+00 -0.00000000000E+00 -0.33313542951E+02  0.33313542951E+02  0.00000000000E+00 0.  1.
         23    2    1    2    0    0  0.53190896898E+02  0.26058719607E+02  0.21477211038E+03  0.25546049815E+03  0.12499871334E+03 0.  0.
          5    1    3    3  502    0  0.70549384952E+02  0.32281269737E+02  0.22191591559E+03  0.23513413127E+03  0.47000000000E+01 0.  1.
         -5    1    3    3    0  502 -0.17358488053E+02 -0.62225501295E+01 -0.71438052135E+01  0.20326366880E+02  0.47000000000E+01 0.  1.
        -11    1    1    2    0    0 -0.48780851406E+01 -0.16893042951E+02 -0.28592011921E+01  0.17814197884E+02  0.00000000000E+00 0.  1.
         11    1    1    2    0    0 -0.48312811758E+02 -0.91656766558E+01  0.22699698604E+03  0.23226228510E+03  0.00000000000E+00 0. -1.
<mgrwt>
<rscale>  0 0.13089078E+03</rscale>
<asrwt>0</asrwt>
<pdfrwt beam="1">  1        2 0.72649755E-01 0.13832211E+03</pdfrwt>
<pdfrwt beam="2">  1       -2 0.51251608E-02 0.13832211E+03</pdfrwt>
<totfact> 0.11890570E+04</totfact>
</mgrwt>
</event>
<event>
 7    1  0.6387485E-006  0.2473646E+03  0.7546771E-02  0.1117417E+00
          1   -1    0    0  501    0  0.00000000000E+00  0.00000000000E+00  0.25486925674E+03  0.25486925674E+03  0.00000000000E+00 0. -1.
         -1   -1    0    0    0  501 -0.00000000000E+00 -0.00000000000E+00 -0.23894329645E+03  0.23894329645E+03  0.00000000000E+00 0.  1.
         23    2    1    2    0    0  0.87520005845E+01 -0.21328030533E+03 -0.49216619730E+02  0.25221323612E+03  0.12499661859E+03 0.  0.
          5    1    3    3  502    0 -0.33817547508E+02 -0.22404681502E+02 -0.38775001367E+02  0.56313293312E+02  0.47000000000E+01 0.  1.
         -5    1    3    3    0  502  0.42569548092E+02 -0.19087562383E+03 -0.10441618362E+02  0.19589994281E+03  0.47000000000E+01 0.  1.
        -11    1    1    2    0    0  0.36852456866E+02  0.12758560039E+03  0.55898625182E+02  0.14408624259E+03  0.00000000000E+00 0.  1.
         11    1    1    2    0    0 -0.45604457450E+02  0.85694704938E+02  0.92439548376E+01  0.97513074481E+02  0.00000000000E+00 0. -1.
<mgrwt>
<rscale>  0 0.24360128E+03</rscale>
<asrwt>0</asrwt>
<pdfrwt beam="1">  1        1 0.39210655E-01 0.24736459E+03</pdfrwt>
<pdfrwt beam="2">  1       -1 0.36760507E-01 0.24736459E+03</pdfrwt>
<totfact> 0.77472088E+02</totfact>
</mgrwt>
</event>
<event>
 7    1  0.6387485E-006  0.1609714E+03  0.7546771E-02  0.1195084E+00
          1   -1    0    0  501    0  0.00000000000E+00  0.00000000000E+00  0.46887551678E+03  0.46887551678E+03  0.00000000000E+00 0. -1.
         -1   -1    0    0    0  501 -0.00000000000E+00 -0.00000000000E+00 -0.48764857086E+02  0.48764857086E+02  0.00000000000E+00 0.  1.
         23    2    1    2    0    0 -0.75007510383E+02  0.68265795280E+02  0.18030953546E+03  0.24170916569E+03  0.12500178712E+03 0.  0.
          5    1    3    3  502    0 -0.69529243961E+02 -0.17546750452E+02  0.59215847788E+02  0.93117188781E+02  0.47000000000E+01 0. -1.
         -5    1    3    3    0  502 -0.54782664226E+01  0.85812545732E+02  0.12109368768E+03  0.14859197691E+03  0.47000000000E+01 0. -1.
        -11    1    1    2    0    0  0.71555849219E+02 -0.24035324815E+02  0.20820189704E+03  0.22146323923E+03  0.00000000000E+00 0. -1.
         11    1    1    2    0    0  0.34516611645E+01 -0.44230470465E+02  0.31599227189E+02  0.54467968948E+02  0.00000000000E+00 0.  1.
<mgrwt>
<rscale>  0 0.15447145E+03</rscale>
<asrwt>0</asrwt>
<pdfrwt beam="1">  1        1 0.72134692E-01 0.16097140E+03</pdfrwt>
<pdfrwt beam="2">  1       -1 0.75022860E-02 0.16097140E+03</pdfrwt>
<totfact> 0.45509569E+03</totfact>
</mgrwt>
</event>
<event>
 7    1  0.6387485E-006  0.1171270E+03  0.7546771E-02  0.1254337E+00
          1   -1    0    0  501    0  0.00000000000E+00  0.00000000000E+00  0.54430948749E+03  0.54430948749E+03  0.00000000000E+00 0. -1.
         -1   -1    0    0    0  501 -0.00000000000E+00 -0.00000000000E+00 -0.10119273831E+03  0.10119273831E+03  0.00000000000E+00 0.  1.
         23    2    1    2    0    0  0.27464170738E+02  0.26220031443E+02 -0.60237179881E+02  0.13170900053E+03  0.11080149935E+03 0.  0.
          5    1    3    3  502    0 -0.23561938698E+02  0.10229814754E+02  0.21565272351E+02  0.33866872260E+02  0.47000000000E+01 0. -1.
         -5    1    3    3    0  502  0.51026109435E+02  0.15990216689E+02 -0.81802452232E+02  0.97842128273E+02  0.47000000000E+01 0.  1.
        -11    1    1    2    0    0 -0.10041924454E+02  0.34771878169E+02  0.12404969865E+03  0.12922171448E+03  0.00000000000E+00 0. -1.
         11    1    1    2    0    0 -0.17422246284E+02 -0.60991909612E+02  0.37930423042E+03  0.38457151079E+03  0.00000000000E+00 0.  1.
<mgrwt>
<rscale>  0 0.11343570E+03</rscale>
<asrwt>0</asrwt>
<pdfrwt beam="1">  1        1 0.83739919E-01 0.11712704E+03</pdfrwt>
<pdfrwt beam="2">  1       -1 0.15568114E-01 0.11712704E+03</pdfrwt>
<totfact> 0.12086153E+03</totfact>
</mgrwt>
</event>
<event>
 7    1  0.6387485E-006  0.1504918E+03  0.7546771E-02  0.1206776E+00
          2   -1    0    0  501    0  0.00000000000E+00  0.00000000000E+00  0.39551602515E+03  0.39551602515E+03  0.00000000000E+00 0.  1.
         -2   -1    0    0    0  501 -0.00000000000E+00 -0.00000000000E+00 -0.55542985619E+02  0.55542985619E+02  0.00000000000E+00 0. -1.
         23    2    1    2    0    0  0.41103332364E+02 -0.73030673220E+02  0.10770869246E+03  0.18506470845E+03  0.12499928288E+03 0.  0.
          5    1    3    3  502    0  0.35224800808E+02 -0.83599809524E+01  0.11395367339E+03  0.11965870446E+03  0.47000000000E+01 0. -1.
         -5    1    3    3    0  502  0.58785315565E+01 -0.64670692267E+02 -0.62449809305E+01  0.65406003994E+02  0.47000000000E+01 0. -1.
        -11    1    1    2    0    0 -0.71021270341E+02  0.63371773405E+02  0.14707126815E+03  0.17518550289E+03  0.00000000000E+00 0.  1.
         11    1    1    2    0    0  0.29917937977E+02  0.96588998150E+01  0.85193078922E+02  0.90808799434E+02  0.00000000000E+00 0. -1.
<mgrwt>
<rscale>  0 0.14498346E+03</rscale>
<asrwt>0</asrwt>
<pdfrwt beam="1">  1        2 0.60848617E-01 0.15049181E+03</pdfrwt>
<pdfrwt beam="2">  1       -2 0.85450750E-02 0.15049181E+03</pdfrwt>
<totfact> 0.66291501E+03</totfact>
</mgrwt>
</event>
<event>
 7    1  0.6387485E-006  0.1485433E+03  0.7546771E-02  0.1213095E+00
         -1   -1    0    0    0  501 -0.00000000000E+00  0.00000000000E+00  0.36188414949E+02  0.36188414949E+02  0.00000000000E+00 0.  1.
          1   -1    0    0  501    0  0.00000000000E+00 -0.00000000000E+00 -0.49913841104E+03  0.49913841104E+03  0.00000000000E+00 0. -1.
         23    2    1    2    0    0 -0.80067569571E+02 -0.56536947507E+01 -0.22180116056E+03  0.26694732923E+03  0.12498936673E+03 0.  0.
          5    1    3    3  502    0 -0.10539571687E+03 -0.31149201272E+02 -0.18541028698E+03  0.21558662851E+03  0.47000000000E+01 0.  1.
         -5    1    3    3    0  502  0.25328147299E+02  0.25495506521E+02 -0.36390873581E+02  0.51360700719E+02  0.47000000000E+01 0.  1.
        -11    1    1    2    0    0  0.71704882189E+02  0.37808949551E+02 -0.13839832451E+03  0.16039078222E+03  0.00000000000E+00 0.  1.
         11    1    1    2    0    0  0.83626873823E+01 -0.32155254800E+02 -0.10275051102E+03  0.10798871453E+03  0.00000000000E+00 0. -1.
<mgrwt>
<rscale>  0 0.14017423E+03</rscale>
<asrwt>0</asrwt>
<pdfrwt beam="2">  1        1 0.76790517E-01 0.14854333E+03</pdfrwt>
<pdfrwt beam="1">  1       -1 0.55674490E-02 0.14854333E+03</pdfrwt>
<totfact> 0.65330388E+03</totfact>
</mgrwt>
</event>
<event>
 7    1  0.6387485E-006  0.1262112E+03  0.7546771E-02  0.1248315E+00
         -3   -1    0    0    0  501 -0.00000000000E+00  0.00000000000E+00  0.13048970032E+03  0.13048970032E+03  0.00000000000E+00 0.  1.
          3   -1    0    0  501    0  0.00000000000E+00 -0.00000000000E+00 -0.10797700290E+03  0.10797700290E+03  0.00000000000E+00 0. -1.
         23    2    1    2    0    0 -0.15214389635E+01 -0.17362528369E+02  0.58200082499E+02  0.13898387856E+03  0.12500198691E+03 0.  0.
          5    1    3    3  502    0 -0.27898920298E+02 -0.15575659266E+02  0.91019272717E+02  0.96579236492E+02  0.47000000000E+01 0.  1.
         -5    1    3    3    0  502  0.26377481335E+02 -0.17868691031E+01 -0.32819190218E+02  0.42404642073E+02  0.47000000000E+01 0.  1.
        -11    1    1    2    0    0 -0.39561966603E+01 -0.37508953382E+02 -0.14395139794E+02  0.40370696371E+02  0.00000000000E+00 0. -1.
         11    1    1    2    0    0  0.54776356237E+01  0.54871481751E+02 -0.21292245286E+02  0.59112128289E+02  0.00000000000E+00 0.  1.
<mgrwt>
<rscale>  0 0.11689132E+03</rscale>
<asrwt>0</asrwt>
<pdfrwt beam="2">  1        3 0.16611847E-01 0.12621121E+03</pdfrwt>
<pdfrwt beam="1">  1       -3 0.20075338E-01 0.12621121E+03</pdfrwt>
<totfact> 0.15727311E+03</totfact>
</mgrwt>
</event>
<event>
 7    1  0.6387485E-006  0.1707191E+03  0.7546771E-02  0.1183398E+00
         -2   -1    0    0    0  501 -0.00000000000E+00  0.00000000000E+00  0.97603651528E+02  0.97603651528E+02  0.00000000000E+00 0.  1.
          2   -1    0    0  501    0  0.00000000000E+00 -0.00000000000E+00 -0.31490986587E+03  0.31490986587E+03  0.00000000000E+00 0. -1.
         23    2    1    2    0    0 -0.73781676767E+02 -0.89873102059E+02 -0.29447832433E+02  0.17324026974E+03  0.12499642365E+03 0.  0.
          5    1    3    3  502    0  0.20542195386E+02 -0.88056990430E+00  0.24832543468E+02  0.32580706096E+02  0.47000000000E+01 0. -1.
         -5    1    3    3    0  502 -0.94323872153E+02 -0.88992532155E+02 -0.54280375901E+02  0.14065956365E+03  0.47000000000E+01 0. -1.
        -11    1    1    2    0    0  0.58790492436E+02  0.44668791638E+02 -0.17500639428E+03  0.18994436287E+03  0.00000000000E+00 0. -1.
         11    1    1    2    0    0  0.14991184331E+02  0.45204310421E+02 -0.12851987632E+02  0.49328884788E+02  0.00000000000E+00 0.  1.
<mgrwt>
<rscale>  0 0.16478509E+03</rscale>
<asrwt>0</asrwt>
<pdfrwt beam="2">  1        2 0.48447672E-01 0.17071911E+03</pdfrwt>
<pdfrwt beam="1">  1       -2 0.15015946E-01 0.17071911E+03</pdfrwt>
<totfact> 0.34615086E+03</totfact>
</mgrwt>
</event>
<event>
 7    1  0.7918727E-006  0.2029474E+03  0.7546771E-02  0.1151403E+00
         -1   -1    0    0    0  501 -0.00000000000E+00  0.00000000000E+00  0.31043479893E+02  0.31043479893E+02  0.00000000000E+00 0.  1.
          1   -1    0    0  501    0  0.00000000000E+00 -0.00000000000E+00 -0.12268692362E+04  0.12268692362E+04  0.00000000000E+00 0. -1.
         23    2    1    2    0    0  0.12387622596E+03 -0.10108136924E+03 -0.54455986623E+03  0.58114808835E+03  0.12499956048E+03 0.  0.
          5    1    3    3  502    0  0.36396656409E+02 -0.10825337712E+03 -0.28293475436E+03  0.30515188920E+03  0.47000000000E+01 0. -1.
         -5    1    3    3    0  502  0.87479569556E+02  0.71720078847E+01 -0.26162511187E+03  0.27599619916E+03  0.47000000000E+01 0. -1.
        -11    1    1    2    0    0 -0.19484773186E+02  0.11117476952E+02 -0.18242039902E+02  0.28914126299E+02  0.00000000000E+00 0.  1.
         11    1    1    2    0    0 -0.10439145278E+03  0.89963892287E+02 -0.63302385020E+03  0.64785050146E+03  0.00000000000E+00 0. -1.
<mgrwt>
<rscale>  0 0.19804026E+03</rscale>
<asrwt>0</asrwt>
<pdfrwt beam="2">  1        1 0.18874910E+00 0.20294741E+03</pdfrwt>
<pdfrwt beam="1">  1       -1 0.47759204E-02 0.20294741E+03</pdfrwt>
<totfact> 0.20645985E+03</totfact>
</mgrwt>
</event>
<event>
 7    1  0.6387485E-006  0.1270265E+03  0.7546771E-02  0.1247609E+00
          3   -1    0    0  501    0  0.00000000000E+00  0.00000000000E+00  0.18221289820E+02  0.18221289820E+02  0.00000000000E+00 0. -1.
         -3   -1    0    0    0  501 -0.00000000000E+00 -0.00000000000E+00 -0.69106588166E+03  0.69106588166E+03  0.00000000000E+00 0.  1.
         23    2    1    2    0    0  0.22110211884E+02 -0.46672553513E+01 -0.46087774223E+03  0.47806278234E+03  0.12500034335E+03 0.  0.
          5    1    3    3  502    0 -0.13859078083E+02 -0.52084983984E+02 -0.11525222915E+03  0.12731883570E+03  0.47000000000E+01 0. -1.
         -5    1    3    3    0  502  0.35969289967E+02  0.47417728633E+02 -0.34562551308E+03  0.35074394664E+03  0.47000000000E+01 0. -1.
        -11    1    1    2    0    0 -0.23143400755E+02 -0.40329680338E+02 -0.91788982842E+02  0.10289469124E+03  0.00000000000E+00 0.  1.
         11    1    1    2    0    0  0.10331888710E+01  0.44996935689E+02 -0.12017786677E+03  0.12832969790E+03  0.00000000000E+00 0. -1.
<mgrwt>
<rscale>  0 0.11730587E+03</rscale>
<asrwt>0</asrwt>
<pdfrwt beam="1">  1        3 0.28032757E-02 0.12702650E+03</pdfrwt>
<pdfrwt beam="2">  1       -3 0.10631781E+00 0.12702650E+03</pdfrwt>
<totfact> 0.10160897E+03</totfact>
</mgrwt>
</event>
<event>
 7    1  0.6387485E-006  0.2014829E+03  0.7546771E-02  0.1152727E+00
          2   -1    0    0  501    0  0.00000000000E+00  0.00000000000E+00  0.10189564628E+04  0.10189564628E+04  0.00000000000E+00 0. -1.
         -2   -1    0    0    0  501 -0.00000000000E+00 -0.00000000000E+00 -0.36141254431E+02  0.36141254431E+02  0.00000000000E+00 0.  1.
         23    2    1    2    0    0 -0.91962307737E+02 -0.12850344450E+03  0.50770102084E+03  0.54621946454E+03  0.12500070236E+03 0.  0.
          5    1    3    3  502    0 -0.83152324521E+02 -0.11525166465E+02  0.21122731465E+03  0.22734600720E+03  0.47000000000E+01 0. -1.
         -5    1    3    3    0  502 -0.88099832163E+01 -0.11697827803E+03  0.29647370619E+03  0.31887345734E+03  0.47000000000E+01 0. -1.
        -11    1    1    2    0    0  0.59446291188E+02  0.36614795046E+02  0.10462168299E+03  0.12577838170E+03  0.00000000000E+00 0.  1.
         11    1    1    2    0    0  0.32516016549E+02  0.91888649449E+02  0.37049250457E+03  0.38309987101E+03  0.00000000000E+00 0. -1.
<mgrwt>
<rscale>  0 0.19649863E+03</rscale>
<asrwt>0</asrwt>
<pdfrwt beam="1">  1        2 0.15676251E+00 0.20148294E+03</pdfrwt>
<pdfrwt beam="2">  1       -2 0.55601938E-02 0.20148294E+03</pdfrwt>
<totfact> 0.42151517E+03</totfact>
</mgrwt>
</event>
<event>
 7    1  0.6387485E-006  0.1284919E+03  0.7546771E-02  0.1244413E+00
         -2   -1    0    0    0  501 -0.00000000000E+00  0.00000000000E+00  0.35062575376E+02  0.35062575376E+02  0.00000000000E+00 0.  1.
          2   -1    0    0  501    0  0.00000000000E+00 -0.00000000000E+00 -0.36547224922E+03  0.36547224922E+03  0.00000000000E+00 0. -1.
         23    2    1    2    0    0  0.21540532620E+02 -0.20544621044E+02 -0.21986402470E+03  0.25465732780E+03  0.12499635694E+03 0.  0.
          5    1    3    3  502    0 -0.16303383047E+02  0.47134139006E+02 -0.73371032365E+02  0.88841576691E+02  0.47000000000E+01 0.  1.
         -5    1    3    3    0  502  0.37843915667E+02 -0.67678760050E+02 -0.14649299233E+03  0.16581575111E+03  0.47000000000E+01 0.  1.
        -11    1    1    2    0    0 -0.55658064169E+02  0.24518275122E+02 -0.69347509705E+02  0.92239053683E+02  0.00000000000E+00 0. -1.
         11    1    1    2    0    0  0.34117531548E+02 -0.39736540783E+01 -0.41198139445E+02  0.53638443112E+02  0.00000000000E+00 0.  1.
<mgrwt>
<rscale>  0 0.11920576E+03</rscale>
<asrwt>0</asrwt>
<pdfrwt beam="2">  1        2 0.56226500E-01 0.12849189E+03</pdfrwt>
<pdfrwt beam="1">  1       -2 0.53942423E-02 0.12849189E+03</pdfrwt>
<totfact> 0.14409881E+04</totfact>
</mgrwt>
</event>
<event>
 7    1  0.6387485E-006  0.1299544E+03  0.7546771E-02  0.1241195E+00
         -2   -1    0    0    0  501 -0.00000000000E+00  0.00000000000E+00  0.13941796761E+03  0.13941796761E+03  0.00000000000E+00 0.  1.
          2   -1    0    0  501    0  0.00000000000E+00 -0.00000000000E+00 -0.18683244498E+03  0.18683244498E+03  0.00000000000E+00 0. -1.
         23    2    1    2    0    0  0.11656362078E+02 -0.33557250123E+02  0.89481101478E+02  0.15778155463E+03  0.12500476650E+03 0.  0.
          5    1    3    3  502    0 -0.52222469078E+02 -0.39457995405E+02  0.46164986231E+02  0.80233506914E+02  0.47000000000E+01 0.  1.
         -5    1    3    3    0  502  0.63878831156E+02  0.59007452817E+01  0.43316115247E+02  0.77548047718E+02  0.47000000000E+01 0.  1.
        -11    1    1    2    0    0  0.21564868694E+02 -0.22275109555E+02 -0.62010900711E+02  0.69329473346E+02  0.00000000000E+00 0. -1.
         11    1    1    2    0    0 -0.33221230772E+02  0.55832359677E+02 -0.74884678133E+02  0.99139384607E+02  0.00000000000E+00 0.  1.
<mgrwt>
<rscale>  0 0.12116036E+03</rscale>
<asrwt>0</asrwt>
<pdfrwt beam="2">  1        2 0.28743453E-01 0.12995442E+03</pdfrwt>
<pdfrwt beam="1">  1       -2 0.21448918E-01 0.12995442E+03</pdfrwt>
<totfact> 0.32928403E+03</totfact>
</mgrwt>
</event>
<event>
 7    1  0.6387485E-006  0.1275775E+03  0.7546771E-02  0.1247598E+00
          2   -1    0    0  501    0  0.00000000000E+00  0.00000000000E+00  0.87701907141E+03  0.87701907141E+03  0.00000000000E+00 0. -1.
         -2   -1    0    0    0  501 -0.00000000000E+00 -0.00000000000E+00 -0.13670387069E+02  0.13670387069E+02  0.00000000000E+00 0.  1.
         23    2    1    2    0    0 -0.85694268834E+00  0.25490806802E+02  0.48451498125E+03  0.50102972765E+03  0.12500202138E+03 0.  0.
          5    1    3    3  502    0 -0.33532343344E+02  0.10295936744E+02  0.34083064382E+02  0.49134200322E+02  0.47000000000E+01 0.  1.
         -5    1    3    3    0  502  0.32675400655E+02  0.15194870058E+02  0.45043191687E+03  0.45189552732E+03  0.47000000000E+01 0.  1.
        -11    1    1    2    0    0 -0.42016239966E+02 -0.12478968585E+02  0.23344302921E+03  0.23752207679E+03  0.00000000000E+00 0.  1.
         11    1    1    2    0    0  0.42873182655E+02 -0.13011838216E+02  0.14539067389E+03  0.15213765404E+03  0.00000000000E+00 0. -1.
<mgrwt>
<rscale>  0 0.11731249E+03</rscale>
<asrwt>0</asrwt>
<pdfrwt beam="1">  1        2 0.13492597E+00 0.12757751E+03</pdfrwt>
<pdfrwt beam="2">  1       -2 0.21031372E-02 0.12757751E+03</pdfrwt>
<totfact> 0.21336062E+04</totfact>
</mgrwt>
</event>
<event>
 7    1  0.6387485E-006  0.1250711E+03  0.7546771E-02  0.1250465E+00
         -2   -1    0    0    0  501 -0.00000000000E+00  0.00000000000E+00  0.77175739909E+02  0.77175739909E+02  0.00000000000E+00 0.  1.
          2   -1    0    0  501    0  0.00000000000E+00 -0.00000000000E+00 -0.15454190823E+03  0.15454190823E+03  0.00000000000E+00 0. -1.
         23    2    1    2    0    0 -0.41184594368E+01  0.88105042010E+00 -0.29368465928E+02  0.12847291126E+03  0.12500017672E+03 0.  0.
          5    1    3    3  502    0  0.17399844100E+02 -0.28718533533E+02  0.38452400226E+02  0.51265834882E+02  0.47000000000E+01 0. -1.
         -5    1    3    3    0  502 -0.21518303537E+02  0.29599583953E+02 -0.67820866154E+02  0.77207076380E+02  0.47000000000E+01 0. -1.
        -11    1    1    2    0    0  0.10420215767E+02  0.11409894143E+02  0.24760847350E+02  0.29186746007E+02  0.00000000000E+00 0.  1.
         11    1    1    2    0    0 -0.63017563304E+01 -0.12290944563E+02 -0.72758549740E+02  0.74057990867E+02  0.00000000000E+00 0. -1.
<mgrwt>
<rscale>  0 0.11564200E+03</rscale>
<asrwt>0</asrwt>
<pdfrwt beam="2">  1        2 0.23775678E-01 0.12507111E+03</pdfrwt>
<pdfrwt beam="1">  1       -2 0.11873191E-01 0.12507111E+03</pdfrwt>
<totfact> 0.10695863E+04</totfact>
</mgrwt>
</event>
<event>
 7    1  0.6387485E-006  0.1278815E+03  0.7546771E-02  0.1247170E+00
          1   -1    0    0  501    0  0.00000000000E+00  0.00000000000E+00  0.11719973234E+03  0.11719973234E+03  0.00000000000E+00 0. -1.
         -1   -1    0    0    0  501 -0.00000000000E+00 -0.00000000000E+00 -0.10293813616E+03  0.10293813616E+03  0.00000000000E+00 0.  1.
         23    2    1    2    0    0 -0.26450119202E+02 -0.54056395815E+01  0.15263384418E+02  0.12878918797E+03  0.12499941715E+03 0.  0.
          5    1    3    3  502    0 -0.50536150395E+02 -0.52934333139E+02  0.16965335702E+02  0.75271898721E+02  0.47000000000E+01 0. -1.
         -5    1    3    3    0  502  0.24086031192E+02  0.47528693558E+02 -0.17019512842E+01  0.53517289244E+02  0.47000000000E+01 0. -1.
        -11    1    1    2    0    0  0.11985032141E+02  0.43000083522E+02  0.16282165682E+02  0.47515861537E+02  0.00000000000E+00 0. -1.
         11    1    1    2    0    0  0.14465087061E+02 -0.37594443940E+02 -0.17283953919E+02  0.43832819005E+02  0.00000000000E+00 0.  1.
<mgrwt>
<rscale>  0 0.11756415E+03</rscale>
<asrwt>0</asrwt>
<pdfrwt beam="1">  1        1 0.18030728E-01 0.12788152E+03</pdfrwt>
<pdfrwt beam="2">  1       -1 0.15836636E-01 0.12788152E+03</pdfrwt>
<totfact> 0.80977471E+03</totfact>
</mgrwt>
</event>
<event>
 7    1  0.6387485E-006  0.1619416E+03  0.7546771E-02  0.1193763E+00
          2   -1    0    0  501    0  0.00000000000E+00  0.00000000000E+00  0.13294923383E+03  0.13294923383E+03  0.00000000000E+00 0. -1.
         -2   -1    0    0    0  501 -0.00000000000E+00 -0.00000000000E+00 -0.20291447839E+03  0.20291447839E+03  0.00000000000E+00 0.  1.
         23    2    1    2    0    0  0.36186841536E+01  0.10288728222E+03 -0.10560423535E+03  0.19333218857E+03  0.12500477149E+03 0.  0.
          5    1    3    3  502    0  0.63005964409E+02  0.64134752923E+02 -0.68746024395E+02  0.11327455122E+03  0.47000000000E+01 0. -1.
         -5    1    3    3    0  502 -0.59387280255E+02  0.38752529297E+02 -0.36858210950E+02  0.80057637347E+02  0.47000000000E+01 0. -1.
        -11    1    1    2    0    0  0.53758418627E+01 -0.48469616177E+02 -0.29642365241E+02  0.57069021238E+02  0.00000000000E+00 0.  1.
         11    1    1    2    0    0 -0.89945260163E+01 -0.54417666044E+02  0.65281356021E+02  0.85462502420E+02  0.00000000000E+00 0. -1.
<mgrwt>
<rscale>  0 0.15559359E+03</rscale>
<asrwt>0</asrwt>
<pdfrwt beam="1">  1        2 0.20453728E-01 0.16194160E+03</pdfrwt>
<pdfrwt beam="2">  1       -2 0.31217612E-01 0.16194160E+03</pdfrwt>
<totfact> 0.25082581E+03</totfact>
</mgrwt>
</event>
<event>
 7    1  0.6387485E-006  0.1469734E+03  0.7546771E-02  0.1217001E+00
         -2   -1    0    0    0  501 -0.00000000000E+00  0.00000000000E+00  0.25052216165E+03  0.25052216165E+03  0.00000000000E+00 0.  1.
          2   -1    0    0  501    0  0.00000000000E+00 -0.00000000000E+00 -0.84288082195E+02  0.84288082195E+02  0.00000000000E+00 0. -1.
         23    2    1    2    0    0  0.77196801772E+02 -0.38728138752E+01  0.16751306595E+03  0.22284928062E+03  0.12500731865E+03 0.  0.
          5    1    3    3  502    0  0.41889390793E+02 -0.39744454248E+02  0.11784314768E+02  0.59121085740E+02  0.47000000000E+01 0.  1.
         -5    1    3    3    0  502  0.35307410979E+02  0.35871640373E+02  0.15572875119E+03  0.16372819488E+03  0.47000000000E+01 0.  1.
        -11    1    1    2    0    0 -0.54720717367E+02 -0.71829676127E+01  0.36834781638E+02  0.66353244617E+02  0.00000000000E+00 0.  1.
         11    1    1    2    0    0 -0.22476084405E+02  0.11055781488E+02 -0.38113768140E+02  0.45607718604E+02  0.00000000000E+00 0. -1.
<mgrwt>
<rscale>  0 0.13730571E+03</rscale>
<asrwt>0</asrwt>
<pdfrwt beam="2">  1        2 0.12967397E-01 0.14697338E+03</pdfrwt>
<pdfrwt beam="1">  1       -2 0.38541871E-01 0.14697338E+03</pdfrwt>
<totfact> 0.28728067E+03</totfact>
</mgrwt>
</event>
<event>
 7    1  0.6387485E-006  0.1852890E+03  0.7546771E-02  0.1168395E+00
         -1   -1    0    0    0  501 -0.00000000000E+00  0.00000000000E+00  0.76694796214E+02  0.76694796214E+02  0.00000000000E+00 0.  1.
          1   -1    0    0  501    0  0.00000000000E+00 -0.00000000000E+00 -0.45132002681E+03  0.45132002681E+03  0.00000000000E+00 0. -1.
         23    2    1    2    0    0  0.11840398948E+03  0.68430447010E+02 -0.10477041384E+03  0.21285880559E+03  0.12501920132E+03 0.  0.
          5    1    3    3  502    0  0.63372509411E+02  0.84587204038E+02 -0.15903146903E+02  0.10698630808E+03  0.47000000000E+01 0. -1.
         -5    1    3    3    0  502  0.55031480071E+02 -0.16156757029E+02 -0.88867266934E+02  0.10587249751E+03  0.47000000000E+01 0. -1.
        -11    1    1    2    0    0  0.75272777847E+01 -0.10578088593E+02 -0.14221800470E+01  0.13060569100E+02  0.00000000000E+00 0.  1.
         11    1    1    2    0    0 -0.12593126727E+03 -0.57852358417E+02 -0.26843263671E+03  0.30209544833E+03  0.00000000000E+00 0. -1.
<mgrwt>
<rscale>  0 0.17938929E+03</rscale>
<asrwt>0</asrwt>
<pdfrwt beam="2">  1        1 0.69433850E-01 0.18528905E+03</pdfrwt>
<pdfrwt beam="1">  1       -1 0.11799200E-01 0.18528905E+03</pdfrwt>
<totfact> 0.24034004E+03</totfact>
</mgrwt>
</event>
<event>
 7    1  0.6387485E-006  0.1546754E+03  0.7546771E-02  0.1203642E+00
          2   -1    0    0  501    0  0.00000000000E+00  0.00000000000E+00  0.28580690050E+03  0.28580690050E+03  0.00000000000E+00 0. -1.
         -2   -1    0    0    0  501 -0.00000000000E+00 -0.00000000000E+00 -0.69854061487E+02  0.69854061487E+02  0.00000000000E+00 0.  1.
         23    2    1    2    0    0 -0.90885773310E+02 -0.58060101459E+01  0.12461903645E+03  0.19863130563E+03  0.12502222917E+03 0.  0.
          5    1    3    3  502    0  0.28896791717E+02  0.18465526237E+01  0.62554282688E+01  0.29994244631E+02  0.47000000000E+01 0.  1.
         -5    1    3    3    0  502 -0.11978256503E+03 -0.76525627695E+01  0.11836360818E+03  0.16863706100E+03  0.47000000000E+01 0.  1.
        -11    1    1    2    0    0 -0.84400705537E+01 -0.20916329158E+02  0.29072208998E+02  0.36795664859E+02  0.00000000000E+00 0. -1.
         11    1    1    2    0    0  0.99325843864E+02  0.26722339304E+02  0.62261593558E+02  0.12023399149E+03  0.00000000000E+00 0.  1.
<mgrwt>
<rscale>  0 0.14744981E+03</rscale>
<asrwt>0</asrwt>
<pdfrwt beam="1">  1        2 0.43970292E-01 0.15467544E+03</pdfrwt>
<pdfrwt beam="2">  1       -2 0.10746779E-01 0.15467544E+03</pdfrwt>
<totfact> 0.65500649E+03</totfact>
</mgrwt>
</event>
<event>
 7    1  0.6387485E-006  0.1901160E+03  0.7546771E-02  0.1163161E+00
          1   -1    0    0  501    0  0.00000000000E+00  0.00000000000E+00  0.29788296687E+03  0.29788296687E+03  0.00000000000E+00 0. -1.
         -1   -1    0    0    0  501 -0.00000000000E+00 -0.00000000000E+00 -0.11658449549E+03  0.11658449549E+03  0.00000000000E+00 0.  1.
         23    2    1    2    0    0 -0.10094552532E+03 -0.10163677147E+03  0.42081155281E+02  0.19471755366E+03  0.12499627864E+03 0.  0.
          5    1    3    3  502    0 -0.88912903403E+02 -0.54394398073E+02  0.81058297591E+02  0.13212415578E+03  0.47000000000E+01 0. -1.
         -5    1    3    3    0  502 -0.12032621921E+02 -0.47242373402E+02 -0.38977142310E+02  0.62593397876E+02  0.47000000000E+01 0. -1.
        -11    1    1    2    0    0  0.88852509177E+02  0.90519926241E+02  0.62704608662E+02  0.14149379273E+03  0.00000000000E+00 0.  1.
         11    1    1    2    0    0  0.12093016147E+02  0.11116845234E+02  0.76512707441E+02  0.78256115974E+02  0.00000000000E+00 0. -1.
<mgrwt>
<rscale>  0 0.18488103E+03</rscale>
<asrwt>0</asrwt>
<pdfrwt beam="1">  1        1 0.45828149E-01 0.19011602E+03</pdfrwt>
<pdfrwt beam="2">  1       -1 0.17936076E-01 0.19011602E+03</pdfrwt>
<totfact> 0.21039482E+03</totfact>
</mgrwt>
</event>
<event>
 7    1  0.6387485E-006  0.1652643E+03  0.7546771E-02  0.1189987E+00
          3   -1    0    0  501    0  0.00000000000E+00  0.00000000000E+00  0.41031835494E+03  0.41031835494E+03  0.00000000000E+00 0. -1.
         -3   -1    0    0    0  501 -0.00000000000E+00 -0.00000000000E+00 -0.66017819532E+02  0.66017819532E+02  0.00000000000E+00 0.  1.
         23    2    1    2    0    0  0.99865250395E+02  0.41405591017E+02  0.97048633327E+02  0.19165265941E+03  0.12499925370E+03 0.  0.
          5    1    3    3  502    0  0.54016482516E+02  0.73608342792E+02  0.99820740179E+02  0.13535966416E+03  0.47000000000E+01 0.  1.
         -5    1    3    3    0  502  0.45848767879E+02 -0.32202751774E+02 -0.27721068524E+01  0.56292995250E+02  0.47000000000E+01 0.  1.
        -11    1    1    2    0    0 -0.53997060691E+02 -0.33475697520E+02  0.46827848872E+02  0.78924979047E+02  0.00000000000E+00 0.  1.
         11    1    1    2    0    0 -0.45868189704E+02 -0.79298934973E+01  0.20042405321E+03  0.20575853601E+03  0.00000000000E+00 0. -1.
<mgrwt>
<rscale>  0 0.15886256E+03</rscale>
<asrwt>0</asrwt>
<pdfrwt beam="1">  1        3 0.63125899E-01 0.16526435E+03</pdfrwt>
<pdfrwt beam="2">  1       -3 0.10156588E-01 0.16526435E+03</pdfrwt>
<totfact> 0.42489112E+02</totfact>
</mgrwt>
</event>
<event>
 7    1  0.6387485E-006  0.1919976E+03  0.7546771E-02  0.1160842E+00
          2   -1    0    0  501    0  0.00000000000E+00  0.00000000000E+00  0.81305585706E+03  0.81305585706E+03  0.00000000000E+00 0. -1.
         -2   -1    0    0    0  501 -0.00000000000E+00 -0.00000000000E+00 -0.44074707261E+02  0.44074707261E+02  0.00000000000E+00 0.  1.
         23    2    1    2    0    0 -0.36016707733E+02 -0.14120980431E+03  0.29328388014E+03  0.35054032224E+03  0.12500268435E+03 0.  0.
          5    1    3    3  502    0  0.35200119978E+02 -0.83051822198E+02  0.90638319674E+02  0.12796112148E+03  0.47000000000E+01 0. -1.
         -5    1    3    3    0  502 -0.71216827712E+02 -0.58157982109E+02  0.20264556047E+03  0.22257920076E+03  0.47000000000E+01 0. -1.
        -11    1    1    2    0    0 -0.29025485291E+01  0.11034615898E+03  0.40772398684E+03  0.42240211770E+03  0.00000000000E+00 0.  1.
         11    1    1    2    0    0  0.38919256262E+02  0.30863645331E+02  0.67973282814E+02  0.84188124385E+02  0.00000000000E+00 0. -1.
<mgrwt>
<rscale>  0 0.18738471E+03</rscale>
<asrwt>0</asrwt>
<pdfrwt beam="1">  1        2 0.12508551E+00 0.19199761E+03</pdfrwt>
<pdfrwt beam="2">  1       -2 0.67807248E-02 0.19199761E+03</pdfrwt>
<totfact> 0.41996660E+03</totfact>
</mgrwt>
</event>
<event>
 7    1  0.6387485E-006  0.1385984E+03  0.7546771E-02  0.1226591E+00
          1   -1    0    0  501    0  0.00000000000E+00  0.00000000000E+00  0.99568945382E+02  0.99568945382E+02  0.00000000000E+00 0. -1.
         -1   -1    0    0    0  501 -0.00000000000E+00 -0.00000000000E+00 -0.15615289464E+03  0.15615289464E+03  0.00000000000E+00 0.  1.
         23    2    1    2    0    0 -0.21525897395E+02 -0.55839225867E+02 -0.45820680649E+02  0.14597623547E+03  0.12501257194E+03 0.  0.
          5    1    3    3  502    0  0.17291897448E+02  0.15303326439E+02 -0.59184991173E+02  0.63703647443E+02  0.47000000000E+01 0. -1.
         -5    1    3    3    0  502 -0.38817794843E+02 -0.71142552306E+02  0.13364310523E+02  0.82272588028E+02  0.47000000000E+01 0. -1.
        -11    1    1    2    0    0  0.83945529382E+01  0.59047347689E+01  0.37615036393E+02  0.38990067640E+02  0.00000000000E+00 0. -1.
         11    1    1    2    0    0  0.13131344457E+02  0.49934491098E+02 -0.48378305000E+02  0.70755536908E+02  0.00000000000E+00 0.  1.
<mgrwt>
<rscale>  0 0.13058426E+03</rscale>
<asrwt>0</asrwt>
<pdfrwt beam="1">  1        1 0.15318299E-01 0.13859844E+03</pdfrwt>
<pdfrwt beam="2">  1       -1 0.24023522E-01 0.13859844E+03</pdfrwt>
<totfact> 0.51515443E+03</totfact>
</mgrwt>
</event>
<event>
 7    1  0.6387485E-006  0.1488645E+03  0.7546771E-02  0.1210088E+00
          1   -1    0    0  501    0  0.00000000000E+00  0.00000000000E+00  0.48064162080E+03  0.48064162080E+03  0.00000000000E+00 0.  1.
         -1   -1    0    0    0  501 -0.00000000000E+00 -0.00000000000E+00 -0.44665388905E+02  0.44665388905E+02  0.00000000000E+00 0. -1.
         23    2    1    2    0    0 -0.24349892435E+02 -0.77090814308E+02  0.14105366948E+03  0.20507751064E+03  0.12499894714E+03 0.  0.
          5    1    3    3  502    0  0.22663229042E+02 -0.20240772003E+02  0.12592527450E+03  0.12962474903E+03  0.47000000000E+01 0. -1.
         -5    1    3    3    0  502 -0.47013121477E+02 -0.56850042305E+02  0.15128394973E+02  0.75452761616E+02  0.47000000000E+01 0. -1.
        -11    1    1    2    0    0  0.19562463392E+02  0.99455209606E+02  0.22827619187E+03  0.24976798927E+03  0.00000000000E+00 0.  1.
         11    1    1    2    0    0  0.47874290434E+01 -0.22364395299E+02  0.66646370555E+02  0.70461509792E+02  0.00000000000E+00 0. -1.
<mgrwt>
<rscale>  0 0.14243646E+03</rscale>
<asrwt>0</asrwt>
<pdfrwt beam="1">  1        1 0.73944861E-01 0.14886453E+03</pdfrwt>
<pdfrwt beam="2">  1       -1 0.68715986E-02 0.14886453E+03</pdfrwt>
<totfact> 0.50106528E+03</totfact>
</mgrwt>
</event>
<event>
 7    1  0.6387485E-006  0.1392652E+03  0.7546771E-02  0.1225695E+00
         -4   -1    0    0    0  501 -0.00000000000E+00  0.00000000000E+00  0.10527560340E+03  0.10527560340E+03  0.00000000000E+00 0.  1.
          4   -1    0    0  501    0  0.00000000000E+00 -0.00000000000E+00 -0.15611387110E+03  0.15611387110E+03  0.00000000000E+00 0. -1.
         23    2    1    2    0    0  0.46737604612E+02  0.39810327573E+02  0.28075610737E+01  0.13929354402E+03  0.12500217254E+03 0.  0.
          5    1    3    3  502    0 -0.32202923789E+01  0.78695760693E+01 -0.55295619992E+02  0.56142640665E+02  0.47000000000E+01 0. -1.
         -5    1    3    3    0  502  0.49957896991E+02  0.31940751503E+02  0.58103181066E+02  0.83150903352E+02  0.47000000000E+01 0. -1.
        -11    1    1    2    0    0 -0.13410992772E+02 -0.64827248741E+02 -0.21963585644E+02  0.69748304645E+02  0.00000000000E+00 0. -1.
         11    1    1    2    0    0 -0.33326611840E+02  0.25016921169E+02 -0.31682243130E+02  0.52347625842E+02  0.00000000000E+00 0.  1.
<mgrwt>
<rscale>  0 0.13119377E+03</rscale>
<asrwt>0</asrwt>
<pdfrwt beam="2">  1        4 0.24017519E-01 0.13926525E+03</pdfrwt>
<pdfrwt beam="1">  1       -4 0.16196247E-01 0.13926525E+03</pdfrwt>
<totfact> 0.88238036E+02</totfact>
</mgrwt>
</event>
<event>
 7    1  0.6387485E-006  0.1280313E+03  0.7546771E-02  0.1240827E+00
         -2   -1    0    0    0  501 -0.00000000000E+00  0.00000000000E+00  0.82202532063E+02  0.82202532063E+02  0.00000000000E+00 0.  1.
          2   -1    0    0  501    0  0.00000000000E+00 -0.00000000000E+00 -0.17139399814E+03  0.17139399814E+03  0.00000000000E+00 0. -1.
         23    2    1    2    0    0 -0.10138680405E+02 -0.25762855573E+02 -0.77069866412E+02  0.14943820753E+03  0.12500198396E+03 0.  0.
          5    1    3    3  502    0  0.45579331338E+02 -0.38788076132E+02 -0.95170423594E+01  0.60783668781E+02  0.47000000000E+01 0.  1.
         -5    1    3    3    0  502 -0.55718011742E+02  0.13025220560E+02 -0.67552824052E+02  0.88654538748E+02  0.47000000000E+01 0.  1.
        -11    1    1    2    0    0  0.20458923368E+02  0.17674361362E+02  0.41183107090E+02  0.49264580629E+02  0.00000000000E+00 0.  1.
         11    1    1    2    0    0 -0.10320242964E+02  0.80884942110E+01 -0.53304706760E+02  0.54893742049E+02  0.00000000000E+00 0. -1.
<mgrwt>
<rscale>  0 0.12138649E+03</rscale>
<asrwt>0</asrwt>
<pdfrwt beam="2">  1        2 0.26368307E-01 0.12803130E+03</pdfrwt>
<pdfrwt beam="1">  1       -2 0.12646544E-01 0.12803130E+03</pdfrwt>
<totfact> 0.86456537E+03</totfact>
</mgrwt>
</event>
<event>
 7    1  0.6387485E-006  0.1262981E+03  0.7546771E-02  0.1248380E+00
          4   -1    0    0  501    0  0.00000000000E+00  0.00000000000E+00  0.65422516824E+02  0.65422516824E+02  0.00000000000E+00 0. -1.
         -4   -1    0    0    0  501 -0.00000000000E+00 -0.00000000000E+00 -0.21730056148E+03  0.21730056148E+03  0.00000000000E+00 0.  1.
         23    2    1    2    0    0 -0.18067365171E+02  0.68879144285E+00 -0.14138404674E+03  0.18958024901E+03  0.12499727207E+03 0.  0.
          5    1    3    3  502    0 -0.57588561112E+02 -0.15844394436E+02 -0.24011517498E+02  0.64545566684E+02  0.47000000000E+01 0.  1.
         -5    1    3    3    0  502  0.39521195941E+02  0.16533185878E+02 -0.11737252925E+03  0.12503468233E+03  0.47000000000E+01 0.  1.
        -11    1    1    2    0    0 -0.21128321569E+02  0.13830331707E+00 -0.39214190498E+02  0.44544111132E+02  0.00000000000E+00 0.  1.
         11    1    1    2    0    0  0.39195686739E+02 -0.82709475992E+00  0.28720192584E+02  0.48598718160E+02  0.00000000000E+00 0. -1.
<mgrwt>
<rscale>  0 0.11685346E+03</rscale>
<asrwt>0</asrwt>
<pdfrwt beam="1">  1        4 0.10065003E-01 0.12629815E+03</pdfrwt>
<pdfrwt beam="2">  1       -4 0.33430856E-01 0.12629815E+03</pdfrwt>
<totfact> 0.10537079E+03</totfact>
</mgrwt>
</event>
<event>
 7    1  0.6387485E-006  0.1306003E+03  0.7546771E-02  0.1239181E+00
          3   -1    0    0  501    0  0.00000000000E+00  0.00000000000E+00  0.38731776477E+02  0.38731776477E+02  0.00000000000E+00 0. -1.
         -3   -1    0    0    0  501 -0.00000000000E+00 -0.00000000000E+00 -0.51993160540E+03  0.51993160540E+03  0.00000000000E+00 0.  1.
         23    2    1    2    0    0 -0.39413601229E+01 -0.37657736457E+02 -0.42208175417E+03  0.44182514258E+03  0.12499123962E+03 0.  0.
          5    1    3    3  502    0  0.32147846319E+02 -0.42205674352E+02 -0.38838056059E+03  0.39201575582E+03  0.47000000000E+01 0.  1.
         -5    1    3    3    0  502 -0.36089206442E+02  0.45479378947E+01 -0.33701193580E+02  0.49809386761E+02  0.47000000000E+01 0.  1.
        -11    1    1    2    0    0 -0.83511197256E+01 -0.26960123036E+02 -0.38830148630E+02  0.48003852735E+02  0.00000000000E+00 0.  1.
         11    1    1    2    0    0  0.12292479848E+02  0.64617859494E+02 -0.20287926124E+02  0.68834386558E+02  0.00000000000E+00 0. -1.
<mgrwt>
<rscale>  0 0.12240518E+03</rscale>
<asrwt>0</asrwt>
<pdfrwt beam="1">  1        3 0.59587351E-02 0.13060034E+03</pdfrwt>
<pdfrwt beam="2">  1       -3 0.79989475E-01 0.13060034E+03</pdfrwt>
<totfact> 0.59131880E+02</totfact>
</mgrwt>
</event>
<event>
 7    1  0.6387485E-006  0.1342869E+03  0.7546771E-02  0.1233165E+00
         -1   -1    0    0    0  501 -0.00000000000E+00  0.00000000000E+00  0.29045853991E+02  0.29045853991E+02  0.00000000000E+00 0.  1.
          1   -1    0    0  501    0  0.00000000000E+00 -0.00000000000E+00 -0.64703859548E+03  0.64703859548E+03  0.00000000000E+00 0. -1.
         23    2    1    2    0    0 -0.29748309596E+01 -0.48980193103E+02 -0.17350588558E+03  0.21940207470E+03  0.12500027647E+03 0.  0.
          5    1    3    3  502    0 -0.78264673201E+01 -0.12907258689E+02  0.18261697750E+02  0.24154306496E+02  0.47000000000E+01 0. -1.
         -5    1    3    3    0  502  0.48516363605E+01 -0.36072934414E+02 -0.19176758333E+03  0.19524776821E+03  0.47000000000E+01 0. -1.
        -11    1    1    2    0    0  0.18499183211E+02  0.66316560137E+02 -0.40530307047E+03  0.41110909119E+03  0.00000000000E+00 0. -1.
         11    1    1    2    0    0 -0.15524352251E+02 -0.17336367034E+02 -0.39183785430E+02  0.45573283570E+02  0.00000000000E+00 0.  1.
<mgrwt>
<rscale>  0 0.12622667E+03</rscale>
<asrwt>0</asrwt>
<pdfrwt beam="2">  1        1 0.99544391E-01 0.13428692E+03</pdfrwt>
<pdfrwt beam="1">  1       -1 0.44685933E-02 0.13428692E+03</pdfrwt>
<totfact> 0.63445836E+03</totfact>
</mgrwt>
</event>
<event>
 6    1  0.6387485E-006  0.3831155E+03  0.7546771E-02  0.1094300E+00
         -2   -1    0    0    0  501 -0.00000000000E+00  0.00000000000E+00  0.68734718863E+02  0.68734718863E+02  0.00000000000E+00 0.  1.
          2   -1    0    0  501    0  0.00000000000E+00 -0.00000000000E+00 -0.10105329803E+04  0.10105329803E+04  0.00000000000E+00 0. -1.
          5    1    1    2  502    0 -0.10823515007E+03  0.91495694908E+02 -0.55758172184E+03  0.57533101466E+03  0.47000000000E+01 0. -1.
         -5    1    1    2    0  502  0.78518326609E+02 -0.37575929726E+02  0.15427578035E+02  0.88527838967E+02  0.47000000000E+01 0.  1.
        -11    1    1    2    0    0  0.53247825668E+02  0.13685358002E+01 -0.18863924197E+03  0.19601522247E+03  0.00000000000E+00 0.  1.
         11    1    1    2    0    0 -0.23531002210E+02 -0.55288300982E+02 -0.21100487570E+03  0.21939362310E+03  0.00000000000E+00 0. -1.
<mgrwt>
<rscale>  0 0.28255715E+03</rscale>
<asrwt>0</asrwt>
<pdfrwt beam="2">  1        2 0.15546661E+00 0.38311547E+03</pdfrwt>
<pdfrwt beam="1">  1       -2 0.10574573E-01 0.38311547E+03</pdfrwt>
<totfact> 0.15680776E+03</totfact>
</mgrwt>
</event>
<event>
 7    1  0.6387485E-006  0.1291281E+03  0.7546771E-02  0.1243266E+00
          3   -1    0    0  501    0  0.00000000000E+00  0.00000000000E+00  0.14296173147E+03  0.14296173147E+03  0.00000000000E+00 0. -1.
         -3   -1    0    0    0  501 -0.00000000000E+00 -0.00000000000E+00 -0.90418913030E+02  0.90418913030E+02  0.00000000000E+00 0.  1.
         23    2    1    2    0    0 -0.26436720509E+02 -0.18715438726E+02  0.13754265367E+02  0.12985852015E+03  0.12499955040E+03 0.  0.
          5    1    3    3  502    0  0.25355984491E+02 -0.47518677479E+02 -0.24297755989E+02  0.59274122557E+02  0.47000000000E+01 0. -1.
         -5    1    3    3    0  502 -0.51792705000E+02  0.28803238752E+02  0.38052021356E+02  0.70584397590E+02  0.47000000000E+01 0. -1.
        -11    1    1    2    0    0  0.18849395541E+02 -0.26037653464E+00 -0.27956511039E+02  0.33718452184E+02  0.00000000000E+00 0.  1.
         11    1    1    2    0    0  0.75873249673E+01  0.18975815261E+02  0.66745064108E+02  0.69803672166E+02  0.00000000000E+00 0. -1.
<mgrwt>
<rscale>  0 0.11989784E+03</rscale>
<asrwt>0</asrwt>
<pdfrwt beam="1">  1        3 0.21994112E-01 0.12912806E+03</pdfrwt>
<pdfrwt beam="2">  1       -3 0.13910602E-01 0.12912806E+03</pdfrwt>
<totfact> 0.18202235E+03</totfact>
</mgrwt>
</event>
<event>
 7    1  0.6387485E-006  0.1558963E+03  0.7546771E-02  0.1200755E+00
         -2   -1    0    0    0  501 -0.00000000000E+00  0.00000000000E+00  0.33244392706E+02  0.33244392706E+02  0.00000000000E+00 0.  1.
          2   -1    0    0  501    0  0.00000000000E+00 -0.00000000000E+00 -0.71397380423E+03  0.71397380423E+03  0.00000000000E+00 0. -1.
         23    2    1    2    0    0  0.68206953984E+02 -0.63465155052E+02 -0.23405964336E+03  0.28122514537E+03  0.12499460491E+03 0.  0.
          5    1    3    3  502    0 -0.19439452080E+02  0.24368189867E+02 -0.53294583850E+02  0.61920139231E+02  0.47000000000E+01 0.  1.
         -5    1    3    3    0  502  0.87646406064E+02 -0.87833344919E+02 -0.18076505951E+03  0.21930500614E+03  0.47000000000E+01 0.  1.
        -11    1    1    2    0    0 -0.50465727116E+02 -0.81807952350E+01 -0.10961184801E+03  0.12094822136E+03  0.00000000000E+00 0. -1.
         11    1    1    2    0    0 -0.17741226868E+02  0.71645950287E+02 -0.33705792014E+03  0.34504483021E+03  0.00000000000E+00 0.  1.
<mgrwt>
<rscale>  0 0.14977034E+03</rscale>
<asrwt>0</asrwt>
<pdfrwt beam="2">  1        2 0.10984213E+00 0.15589633E+03</pdfrwt>
<pdfrwt beam="1">  1       -2 0.51145218E-02 0.15589633E+03</pdfrwt>
<totfact> 0.75110002E+03</totfact>
</mgrwt>
</event>
<event>
 7    1  0.6387485E-006  0.2655042E+03  0.7546771E-02  0.1106066E+00
          1   -1    0    0  501    0  0.00000000000E+00  0.00000000000E+00  0.57150722899E+03  0.57150722899E+03  0.00000000000E+00 0. -1.
         -1   -1    0    0    0  501 -0.00000000000E+00 -0.00000000000E+00 -0.11771697794E+03  0.11771697794E+03  0.00000000000E+00 0.  1.
         23    2    1    2    0    0 -0.12777509902E+03  0.19632446657E+03  0.20114793154E+03  0.33309607349E+03  0.12499092651E+03 0.  0.
          5    1    3    3  502    0  0.25070432307E+02  0.32372326358E+02  0.34489403462E+02  0.53741074060E+02  0.47000000000E+01 0. -1.
         -5    1    3    3    0  502 -0.15284553133E+03  0.16395214021E+03  0.16665852808E+03  0.27935499943E+03  0.47000000000E+01 0. -1.
        -11    1    1    2    0    0  0.60455989291E+02 -0.11660644303E+03  0.78202911505E+02  0.15286492262E+03  0.00000000000E+00 0.  1.
         11    1    1    2    0    0  0.67319109731E+02 -0.79718023534E+02  0.17443940800E+03  0.20326321083E+03  0.00000000000E+00 0. -1.
<mgrwt>
<rscale>  0 0.26180046E+03</rscale>
<asrwt>0</asrwt>
<pdfrwt beam="1">  1        1 0.87924187E-01 0.26550424E+03</pdfrwt>
<pdfrwt beam="2">  1       -1 0.18110305E-01 0.26550424E+03</pdfrwt>
<totfact> 0.89470164E+02</totfact>
</mgrwt>
</event>
<event>
 7    1  0.6387485E-006  0.1842670E+03  0.7546771E-02  0.1168854E+00
          1   -1    0    0  501    0  0.00000000000E+00  0.00000000000E+00  0.17158301108E+03  0.17158301108E+03  0.00000000000E+00 0. -1.
         -1   -1    0    0    0  501 -0.00000000000E+00 -0.00000000000E+00 -0.18830542283E+03  0.18830542283E+03  0.00000000000E+00 0.  1.
         23    2    1    2    0    0  0.12124275492E+03  0.60243437342E+02 -0.53798949857E+02  0.19196004224E+03  0.12500101378E+03 0.  0.
          5    1    3    3  502    0  0.68105218602E+02  0.85604332212E+02  0.36640738274E+01  0.10955335655E+03  0.47000000000E+01 0. -1.
         -5    1    3    3    0  502  0.53137536319E+02 -0.25360894870E+02 -0.57463023684E+02  0.82406685685E+02  0.47000000000E+01 0. -1.
        -11    1    1    2    0    0 -0.29024112458E+02 -0.63016596639E+02  0.29392628413E+02  0.75348637419E+02  0.00000000000E+00 0.  1.
         11    1    1    2    0    0 -0.92218642464E+02  0.27731592962E+01  0.76839096940E+01  0.92579754259E+02  0.00000000000E+00 0. -1.
<mgrwt>
<rscale>  0 0.17891787E+03</rscale>
<asrwt>0</asrwt>
<pdfrwt beam="1">  1        1 0.26397386E-01 0.18426701E+03</pdfrwt>
<pdfrwt beam="2">  1       -1 0.28970065E-01 0.18426701E+03</pdfrwt>
<totfact> 0.19095329E+03</totfact>
</mgrwt>
</event>
<event>
 6    1  0.6387485E-006  0.2535336E+03  0.7546771E-02  0.1150460E+00
          1   -1    0    0  501    0  0.00000000000E+00  0.00000000000E+00  0.12148010162E+03  0.12148010162E+03  0.00000000000E+00 0. -1.
         -1   -1    0    0    0  501 -0.00000000000E+00 -0.00000000000E+00 -0.38898522022E+03  0.38898522022E+03  0.00000000000E+00 0.  1.
          5    1    1    2  502    0  0.70724443589E+02  0.81692787460E+02 -0.66315823641E+02  0.12686818714E+03  0.47000000000E+01 0. -1.
         -5    1    1    2    0  502 -0.60831178107E+02 -0.10729120746E+03 -0.24748335982E+03  0.27655368162E+03  0.47000000000E+01 0.  1.
        -11    1    1    2    0    0  0.34058708490E+00  0.49591062073E+02  0.59785486521E+02  0.77676855212E+02  0.00000000000E+00 0. -1.
         11    1    1    2    0    0 -0.10233852567E+02 -0.23992642074E+02 -0.13491421656E+02  0.29366597868E+02  0.00000000000E+00 0.  1.
<mgrwt>
<rscale>  0 0.19914775E+03</rscale>
<asrwt>0</asrwt>
<pdfrwt beam="1">  1        1 0.18689247E-01 0.25353358E+03</pdfrwt>
<pdfrwt beam="2">  1       -1 0.59843879E-01 0.25353358E+03</pdfrwt>
<totfact> 0.81514659E+02</totfact>
</mgrwt>
</event>
<event>
 6    1  0.6387485E-006  0.1434723E+03  0.7546771E-02  0.1226118E+00
         -2   -1    0    0    0  501 -0.00000000000E+00  0.00000000000E+00  0.38612914619E+02  0.38612914619E+02  0.00000000000E+00 0.  1.
          2   -1    0    0  501    0  0.00000000000E+00 -0.00000000000E+00 -0.38272596613E+03  0.38272596613E+03  0.00000000000E+00 0. -1.
          5    1    1    2  502    0  0.47432249925E+02  0.20476350752E+02 -0.22686815177E+03  0.23272375805E+03  0.47000000000E+01 0. -1.
         -5    1    1    2    0  502 -0.16747789746E+02  0.51459117531E+01  0.14735703908E+02  0.23370918655E+02  0.47000000000E+01 0.  1.
        -11    1    1    2    0    0 -0.23319427976E+02 -0.48949833827E+02 -0.33419261318E+02  0.63692456224E+02  0.00000000000E+00 0.  1.
         11    1    1    2    0    0 -0.73650322039E+01  0.23327571322E+02 -0.98561342326E+02  0.10155174782E+03  0.00000000000E+00 0. -1.
<mgrwt>
<rscale>  0 0.13090550E+03</rscale>
<asrwt>0</asrwt>
<pdfrwt beam="2">  1        2 0.58880918E-01 0.14347232E+03</pdfrwt>
<pdfrwt beam="1">  1       -2 0.59404484E-02 0.14347232E+03</pdfrwt>
<totfact> 0.11962219E+04</totfact>
</mgrwt>
</event>
<event>
 7    1  0.6387485E-006  0.1706938E+03  0.7546771E-02  0.1183425E+00
          4   -1    0    0  501    0  0.00000000000E+00  0.00000000000E+00  0.63881846105E+03  0.63881846105E+03  0.00000000000E+00 0.  1.
         -4   -1    0    0    0  501 -0.00000000000E+00 -0.00000000000E+00 -0.42258786178E+02  0.42258786178E+02  0.00000000000E+00 0. -1.
         23    2    1    2    0    0  0.62961473569E+02  0.97707587693E+02  0.23599260393E+03  0.29125397319E+03  0.12500179175E+03 0.  0.
          5    1    3    3  502    0  0.20023216924E+02  0.52931946139E+02  0.11032187051E+02  0.57849107938E+02  0.47000000000E+01 0. -1.
         -5    1    3    3    0  502  0.42938256645E+02  0.44775641554E+02  0.22496041688E+03  0.23340486525E+03  0.47000000000E+01 0. -1.
        -11    1    1    2    0    0  0.20365378305E+02 -0.23585081577E+02  0.13025416513E+03  0.13392965407E+03  0.00000000000E+00 0.  1.
         11    1    1    2    0    0 -0.83326851874E+02 -0.74122506115E+02  0.23031290581E+03  0.25589361997E+03  0.00000000000E+00 0. -1.
<mgrwt>
<rscale>  0 0.16475987E+03</rscale>
<asrwt>0</asrwt>
<pdfrwt beam="1">  1        4 0.98279756E-01 0.17069378E+03</pdfrwt>
<pdfrwt beam="2">  1       -4 0.65013522E-02 0.17069378E+03</pdfrwt>
<totfact> 0.24063552E+02</totfact>
</mgrwt>
</event>
<event>
 7    1  0.6387485E-006  0.1368740E+03  0.7546771E-02  0.1229706E+00
          3   -1    0    0  501    0  0.00000000000E+00  0.00000000000E+00  0.60660264023E+02  0.60660264023E+02  0.00000000000E+00 0. -1.
         -3   -1    0    0    0  501 -0.00000000000E+00 -0.00000000000E+00 -0.37156562467E+03  0.37156562467E+03  0.00000000000E+00 0.  1.
         23    2    1    2    0    0  0.48380536310E+01  0.55563236642E+02 -0.29437048573E+03  0.32463591965E+03  0.12499526963E+03 0.  0.
          5    1    3    3  502    0 -0.11323430505E+02  0.93711369396E+02 -0.21847695774E+03  0.23804266823E+03  0.47000000000E+01 0.  1.
         -5    1    3    3    0  502  0.16161484136E+02 -0.38148132754E+02 -0.75893527984E+02  0.86593251422E+02  0.47000000000E+01 0.  1.
        -11    1    1    2    0    0  0.29977215192E+02 -0.21618323189E+02 -0.39257633517E+02  0.53917966556E+02  0.00000000000E+00 0.  1.
         11    1    1    2    0    0 -0.34815268823E+02 -0.33944913453E+02  0.22722758597E+02  0.53672002486E+02  0.00000000000E+00 0. -1.
<mgrwt>
<rscale>  0 0.12849497E+03</rscale>
<asrwt>0</asrwt>
<pdfrwt beam="1">  1        3 0.93323485E-02 0.13687402E+03</pdfrwt>
<pdfrwt beam="2">  1       -3 0.57163941E-01 0.13687402E+03</pdfrwt>
<totfact> 0.58393673E+02</totfact>
</mgrwt>
</event>
<event>
 7    1  0.6387485E-006  0.1252631E+03  0.7546771E-02  0.1250059E+00
         -2   -1    0    0    0  501 -0.00000000000E+00  0.00000000000E+00  0.11332506817E+03  0.11332506817E+03  0.00000000000E+00 0. -1.
          2   -1    0    0  501    0  0.00000000000E+00 -0.00000000000E+00 -0.10675942988E+03  0.10675942988E+03  0.00000000000E+00 0.  1.
         23    2    1    2    0    0 -0.72826365715E+01  0.36989126351E+01  0.21655099829E+02  0.12712112520E+03  0.12499647344E+03 0.  0.
          5    1    3    3  502    0  0.24011013027E+02  0.50900737189E+02  0.37903582285E+02  0.68016066800E+02  0.47000000000E+01 0. -1.
         -5    1    3    3    0  502 -0.31293649599E+02 -0.47201824554E+02 -0.16248482456E+02  0.59105058401E+02  0.47000000000E+01 0. -1.
        -11    1    1    2    0    0  0.27498934465E+02 -0.38676620605E+02 -0.21427870671E+02  0.52069434601E+02  0.00000000000E+00 0.  1.
         11    1    1    2    0    0 -0.20216297894E+02  0.34977707970E+02  0.63384091306E+01  0.40893938251E+02  0.00000000000E+00 0. -1.
<mgrwt>
<rscale>  0 0.11587662E+03</rscale>
<asrwt>0</asrwt>
<pdfrwt beam="2">  1        2 0.16424528E-01 0.12526307E+03</pdfrwt>
<pdfrwt beam="1">  1       -2 0.17434626E-01 0.12526307E+03</pdfrwt>
<totfact> 0.87061045E+03</totfact>
</mgrwt>
</event>
<event>
 7    1  0.8793794E-006  0.4551310E+03  0.7546771E-02  0.1026785E+00
         -1   -1    0    0    0  501 -0.00000000000E+00  0.00000000000E+00  0.56443473281E+03  0.56443473281E+03  0.00000000000E+00 0.  1.
          1   -1    0    0  501    0  0.00000000000E+00 -0.00000000000E+00 -0.38992787442E+03  0.38992787442E+03  0.00000000000E+00 0. -1.
         23    2    1    2    0    0  0.43611119137E+03 -0.36440715011E+02  0.21860656058E+03  0.50490898604E+03  0.12499343544E+03 0.  0.
          5    1    3    3  502    0  0.16754327849E+03  0.39292156947E+02  0.11588550209E+03  0.20752388624E+03  0.47000000000E+01 0. -1.
         -5    1    3    3    0  502  0.26856791289E+03 -0.75732871958E+02  0.10272105849E+03  0.29738509980E+03  0.47000000000E+01 0. -1.
        -11    1    1    2    0    0 -0.15900958841E+03  0.49289607002E+02 -0.43461585904E+02  0.17205354985E+03  0.00000000000E+00 0. -1.
         11    1    1    2    0    0 -0.27710160296E+03 -0.12848891990E+02 -0.63811627874E+00  0.27740007134E+03  0.00000000000E+00 0.  1.
<mgrwt>
<rscale>  0 0.45315669E+03</rscale>
<asrwt>0</asrwt>
<pdfrwt beam="2">  1        1 0.59988904E-01 0.45513103E+03</pdfrwt>
<pdfrwt beam="1">  1       -1 0.86836113E-01 0.45513103E+03</pdfrwt>
<totfact> 0.84717727E+01</totfact>
</mgrwt>
</event>
<event>
 7    1  0.6387485E-006  0.1840468E+03  0.7546771E-02  0.1169364E+00
          2   -1    0    0  501    0  0.00000000000E+00  0.00000000000E+00  0.42729021551E+03  0.42729021551E+03  0.00000000000E+00 0. -1.
         -2   -1    0    0    0  501 -0.00000000000E+00 -0.00000000000E+00 -0.14309318960E+03  0.14309318960E+03  0.00000000000E+00 0.  1.
         23    2    1    2    0    0  0.96437514760E+02 -0.94595861145E+02 -0.56841048924E+02  0.19262436914E+03  0.12499868617E+03 0.  0.
          5    1    3    3  502    0  0.11910991654E+03 -0.69203721158E+02 -0.71486181824E+02  0.15526973766E+03  0.47000000000E+01 0.  1.
         -5    1    3    3    0  502 -0.22672401778E+02 -0.25392139986E+02  0.14645132900E+02  0.37354631482E+02  0.47000000000E+01 0.  1.
        -11    1    1    2    0    0 -0.59156663562E+02  0.52853526432E+02  0.29442023511E+03  0.30492012223E+03  0.00000000000E+00 0. -1.
         11    1    1    2    0    0 -0.37280851198E+02  0.41742334712E+02  0.46617839730E+02  0.72838913737E+02  0.00000000000E+00 0.  1.
<mgrwt>
<rscale>  0 0.17839650E+03</rscale>
<asrwt>0</asrwt>
<pdfrwt beam="1">  1        2 0.65736956E-01 0.18404685E+03</pdfrwt>
<pdfrwt beam="2">  1       -2 0.22014337E-01 0.18404685E+03</pdfrwt>
<totfact> 0.13130903E+03</totfact>
</mgrwt>
</event>
<event>
 7    1  0.6387485E-006  0.1627749E+03  0.7546771E-02  0.1193315E+00
         -2   -1    0    0    0  501 -0.00000000000E+00  0.00000000000E+00  0.97499909896E+02  0.97499909896E+02  0.00000000000E+00 0.  1.
          2   -1    0    0  501    0  0.00000000000E+00 -0.00000000000E+00 -0.25277694821E+03  0.25277694821E+03  0.00000000000E+00 0. -1.
         23    2    1    2    0    0 -0.44533218947E+02  0.94270915447E+02 -0.32191259310E+02  0.16592750814E+03  0.12500179075E+03 0.  0.
          5    1    3    3  502    0 -0.51933196826E+01  0.11598580037E+03 -0.32818955957E+02  0.12074291005E+03  0.47000000000E+01 0. -1.
         -5    1    3    3    0  502 -0.39339899265E+02 -0.21714884922E+02  0.62769664727E+00  0.45184598089E+02  0.47000000000E+01 0. -1.
        -11    1    1    2    0    0  0.70431983852E+02 -0.52524130118E+02 -0.84225079804E+02  0.12170995301E+03  0.00000000000E+00 0. -1.
         11    1    1    2    0    0 -0.25898764905E+02 -0.41746785329E+02 -0.38860699199E+02  0.62639396957E+02  0.00000000000E+00 0.  1.
<mgrwt>
<rscale>  0 0.15597680E+03</rscale>
<asrwt>0</asrwt>
<pdfrwt beam="2">  1        2 0.38888760E-01 0.16277488E+03</pdfrwt>
<pdfrwt beam="1">  1       -2 0.14999986E-01 0.16277488E+03</pdfrwt>
<totfact> 0.43747607E+03</totfact>
</mgrwt>
</event>
<event>
 7    1  0.6387485E-006  0.1242008E+03  0.7546771E-02  0.1248856E+00
         -2   -1    0    0    0  501 -0.00000000000E+00  0.00000000000E+00  0.87362166204E+03  0.87362166204E+03  0.00000000000E+00 0.  1.
          2   -1    0    0  501    0  0.00000000000E+00 -0.00000000000E+00 -0.22651573940E+03  0.22651573940E+03  0.00000000000E+00 0. -1.
         23    2    1    2    0    0  0.35429194469E+02 -0.69673754269E+01  0.85869216572E+03  0.86762783903E+03  0.11883627161E+03 0.  0.
          5    1    3    3  502    0  0.46439473711E+02  0.22695448863E+02  0.16007904300E+03  0.16828279213E+03  0.47000000000E+01 0. -1.
         -5    1    3    3    0  502 -0.11010279242E+02 -0.29662824290E+02  0.69861312272E+03  0.69934504691E+03  0.47000000000E+01 0.  1.
        -11    1    1    2    0    0  0.29450824896E+02 -0.36448764149E+01 -0.81922596407E+02  0.87131785321E+02  0.00000000000E+00 0. -1.
         11    1    1    2    0    0 -0.64880019365E+02  0.10612251842E+02 -0.12966364667E+03  0.14537777709E+03  0.00000000000E+00 0.  1.
<mgrwt>
<rscale>  0 0.11657532E+03</rscale>
<asrwt>0</asrwt>
<pdfrwt beam="2">  1        2 0.34848576E-01 0.12420077E+03</pdfrwt>
<pdfrwt beam="1">  1       -2 0.13440333E+00 0.12420077E+03</pdfrwt>
<totfact> 0.64336635E+01</totfact>
</mgrwt>
</event>
<event>
 7    1  0.6387485E-006  0.3124707E+03  0.7546771E-02  0.1080646E+00
         -1   -1    0    0    0  501 -0.00000000000E+00  0.00000000000E+00  0.12961662745E+03  0.12961662745E+03  0.00000000000E+00 0.  1.
          1   -1    0    0  501    0  0.00000000000E+00 -0.00000000000E+00 -0.75818841676E+03  0.75818841676E+03  0.00000000000E+00 0. -1.
         23    2    1    2    0    0 -0.21671748079E+03 -0.18719889331E+03 -0.22622683774E+03  0.38576746166E+03  0.12501224031E+03 0.  0.
          5    1    3    3  502    0 -0.20520484729E+03 -0.14977805463E+03 -0.23416913722E+03  0.34554271780E+03  0.47000000000E+01 0.  1.
         -5    1    3    3    0  502 -0.11512633495E+02 -0.37420838677E+02  0.79422994794E+01  0.40224743857E+02  0.47000000000E+01 0.  1.
        -11    1    1    2    0    0  0.10289761785E+03  0.14723341306E+03 -0.24251819107E+03  0.30179574331E+03  0.00000000000E+00 0. -1.
         11    1    1    2    0    0  0.11381986293E+03  0.39965480255E+02 -0.15982676049E+03  0.20024183923E+03  0.00000000000E+00 0.  1.
<mgrwt>
<rscale>  0 0.30937406E+03</rscale>
<asrwt>0</asrwt>
<pdfrwt beam="2">  1        1 0.11664437E+00 0.31247072E+03</pdfrwt>
<pdfrwt beam="1">  1       -1 0.19941019E-01 0.31247072E+03</pdfrwt>
<totfact> 0.50820092E+02</totfact>
</mgrwt>
</event>
<event>
 7    1  0.6387485E-006  0.2109952E+03  0.7546771E-02  0.1145280E+00
          1   -1    0    0  501    0  0.00000000000E+00  0.00000000000E+00  0.72299505247E+03  0.72299505247E+03  0.00000000000E+00 0. -1.
         -1   -1    0    0    0  501 -0.00000000000E+00 -0.00000000000E+00 -0.55441597580E+02  0.55441597580E+02  0.00000000000E+00 0.  1.
         23    2    1    2    0    0  0.13017131802E+03 -0.10931417816E+03  0.34773447876E+03  0.40674098929E+03  0.12499921226E+03 0.  0.
          5    1    3    3  502    0  0.13656551895E+03 -0.45084558139E+02  0.21010582190E+03  0.25465526648E+03  0.47000000000E+01 0. -1.
         -5    1    3    3    0  502 -0.63942009265E+01 -0.64229620025E+02  0.13762865686E+03  0.15208572281E+03  0.47000000000E+01 0. -1.
        -11    1    1    2    0    0 -0.71997030093E+02  0.12121642150E+02  0.15930439075E+03  0.17523811076E+03  0.00000000000E+00 0. -1.
         11    1    1    2    0    0 -0.58174287926E+02  0.97192536014E+02  0.16051458537E+03  0.19645755000E+03  0.00000000000E+00 0.  1.
<mgrwt>
<rscale>  0 0.20537666E+03</rscale>
<asrwt>0</asrwt>
<pdfrwt beam="1">  1        1 0.11123000E+00 0.21099518E+03</pdfrwt>
<pdfrwt beam="2">  1       -1 0.85294771E-02 0.21099518E+03</pdfrwt>
<totfact> 0.20855604E+03</totfact>
</mgrwt>
</event>
<event>
 7    1  0.6387485E-006  0.2345912E+03  0.7546771E-02  0.1126401E+00
         -2   -1    0    0    0  501 -0.00000000000E+00  0.00000000000E+00  0.10165613307E+04  0.10165613307E+04  0.00000000000E+00 0.  1.
          2   -1    0    0  501    0  0.00000000000E+00 -0.00000000000E+00 -0.13749548341E+03  0.13749548341E+03  0.00000000000E+00 0. -1.
         23    2    1    2    0    0  0.14556266934E+02  0.19798105220E+03  0.90460114679E+03  0.93452460959E+03  0.12499851686E+03 0.  0.
          5    1    3    3  502    0  0.13478010074E+02 -0.38014017029E+01  0.11014213341E+02  0.18425805436E+02  0.47000000000E+01 0.  1.
         -5    1    3    3    0  502  0.10782568602E+01  0.20178245390E+03  0.89358693345E+03  0.91609880415E+03  0.47000000000E+01 0.  1.
        -11    1    1    2    0    0 -0.13425717704E+02 -0.23421768336E+02 -0.35600725601E+02  0.44679310550E+02  0.00000000000E+00 0. -1.
         11    1    1    2    0    0 -0.11305492301E+01 -0.17455928386E+03  0.10065426095E+02  0.17485289396E+03  0.00000000000E+00 0.  1.
<mgrwt>
<rscale>  0 0.23033970E+03</rscale>
<asrwt>0</asrwt>
<pdfrwt beam="2">  1        2 0.21153152E-01 0.23459116E+03</pdfrwt>
<pdfrwt beam="1">  1       -2 0.15639405E+00 0.23459116E+03</pdfrwt>
<totfact> 0.74643075E+01</totfact>
</mgrwt>
</event>
<event>
 7    1  0.6387485E-006  0.1736774E+03  0.7546771E-02  0.1179554E+00
          1   -1    0    0  501    0  0.00000000000E+00  0.00000000000E+00  0.18191118060E+03  0.18191118060E+03  0.00000000000E+00 0. -1.
         -1   -1    0    0    0  501 -0.00000000000E+00 -0.00000000000E+00 -0.15039190909E+03  0.15039190909E+03  0.00000000000E+00 0.  1.
         23    2    1    2    0    0 -0.90625887017E+02 -0.79548708831E+02 -0.80535854136E+01  0.17386406535E+03  0.12499121772E+03 0.  0.
          5    1    3    3  502    0 -0.22862358008E+02 -0.59212921296E+02 -0.58815456452E+02  0.86661441136E+02  0.47000000000E+01 0. -1.
         -5    1    3    3    0  502 -0.67763529008E+02 -0.20335787534E+02  0.50761871039E+02  0.87202624213E+02  0.47000000000E+01 0. -1.
        -11    1    1    2    0    0  0.21286283912E+02  0.81140352346E+02  0.25408339899E+02  0.87649565874E+02  0.00000000000E+00 0.  1.
         11    1    1    2    0    0  0.69339603105E+02 -0.15916435150E+01  0.14164517017E+02  0.70789458468E+02  0.00000000000E+00 0. -1.
<mgrwt>
<rscale>  0 0.16837447E+03</rscale>
<asrwt>0</asrwt>
<pdfrwt beam="1">  1        1 0.27986335E-01 0.17367744E+03</pdfrwt>
<pdfrwt beam="2">  1       -1 0.23137217E-01 0.17367744E+03</pdfrwt>
<totfact> 0.25717436E+03</totfact>
</mgrwt>
</event>
<event>
 7    1  0.6387485E-006  0.1409395E+03  0.7546771E-02  0.1222408E+00
         -1   -1    0    0    0  501 -0.00000000000E+00  0.00000000000E+00  0.44325852812E+03  0.44325852812E+03  0.00000000000E+00 0.  1.
          1   -1    0    0  501    0  0.00000000000E+00 -0.00000000000E+00 -0.36994709393E+02  0.36994709393E+02  0.00000000000E+00 0. -1.
         23    2    1    2    0    0  0.38071813170E+02  0.52820757188E+02  0.25348393375E+03  0.29003111726E+03  0.12499779583E+03 0.  0.
          5    1    3    3  502    0  0.75193879147E+02  0.37792921214E+01  0.17213548753E+03  0.18793913530E+03  0.47000000000E+01 0.  1.
         -5    1    3    3    0  502 -0.37122065977E+02  0.49041465067E+02  0.81348446223E+02  0.10209198196E+03  0.47000000000E+01 0.  1.
        -11    1    1    2    0    0 -0.36932111464E+02 -0.21565096614E+02  0.15308243593E+03  0.15894422430E+03  0.00000000000E+00 0.  1.
         11    1    1    2    0    0 -0.11397017060E+01 -0.31255660574E+02 -0.30255095410E+00  0.31277895949E+02  0.00000000000E+00 0. -1.
<mgrwt>
<rscale>  0 0.13346176E+03</rscale>
<asrwt>0</asrwt>
<pdfrwt beam="2">  1        1 0.56914941E-02 0.14093951E+03</pdfrwt>
<pdfrwt beam="1">  1       -1 0.68193616E-01 0.14093951E+03</pdfrwt>
<totfact> 0.30333297E+03</totfact>
</mgrwt>
</event>
<event>
 7    1  0.6387485E-006  0.1195191E+03  0.7546771E-02  0.1255795E+00
          2   -1    0    0  501    0  0.00000000000E+00  0.00000000000E+00  0.33373215647E+03  0.33373215647E+03  0.00000000000E+00 0. -1.
         -2   -1    0    0    0  501 -0.00000000000E+00 -0.00000000000E+00 -0.47073325820E+02  0.47073325820E+02  0.00000000000E+00 0.  1.
         23    2    1    2    0    0 -0.34674425839E+02 -0.10659503545E+02  0.56686467574E+02  0.13228060906E+03  0.11388091633E+03 0.  0.
          5    1    3    3  502    0 -0.34151893639E+02 -0.31305190013E+02  0.85001011022E+02  0.96920733775E+02  0.47000000000E+01 0. -1.
         -5    1    3    3    0  502 -0.52253220047E+00  0.20645686468E+02 -0.28314543447E+02  0.35359875286E+02  0.47000000000E+01 0.  1.
        -11    1    1    2    0    0  0.57694641513E+01 -0.37190391263E+02  0.78216763048E+02  0.86800195510E+02  0.00000000000E+00 0.  1.
         11    1    1    2    0    0  0.28904961688E+02  0.47849894807E+02  0.15175560003E+03  0.16172467772E+03  0.00000000000E+00 0. -1.
<mgrwt>
<rscale>  0 0.11261938E+03</rscale>
<asrwt>0</asrwt>
<pdfrwt beam="1">  1        2 0.51343407E-01 0.11951905E+03</pdfrwt>
<pdfrwt beam="2">  1       -2 0.72420503E-02 0.11951905E+03</pdfrwt>
<totfact> 0.10089935E+04</totfact>
</mgrwt>
</event>
<event>
 6    1  0.6387485E-006  0.1658470E+03  0.7546771E-02  0.1191919E+00
          1   -1    0    0  501    0  0.00000000000E+00  0.00000000000E+00  0.12247114560E+03  0.12247114560E+03  0.00000000000E+00 0. -1.
         -1   -1    0    0    0  501 -0.00000000000E+00 -0.00000000000E+00 -0.19044569021E+03  0.19044569021E+03  0.00000000000E+00 0.  1.
          5    1    1    2  502    0  0.16753691716E+02  0.48752876851E+02 -0.10332072072E+02  0.52786086241E+02  0.47000000000E+01 0. -1.
         -5    1    1    2    0  502 -0.11164557802E+03 -0.13650087134E+02 -0.57327964190E+02  0.12633149033E+03  0.47000000000E+01 0.  1.
        -11    1    1    2    0    0  0.51658073031E+02 -0.14645399127E+02 -0.43695695573E+02  0.69226859213E+02  0.00000000000E+00 0.  1.
         11    1    1    2    0    0  0.43233813278E+02 -0.20457390589E+02  0.43381187226E+02  0.64572400028E+02  0.00000000000E+00 0. -1.
<mgrwt>
<rscale>  0 0.15717875E+03</rscale>
<asrwt>0</asrwt>
<pdfrwt beam="1">  1        1 0.18841715E-01 0.16584699E+03</pdfrwt>
<pdfrwt beam="2">  1       -1 0.29299337E-01 0.16584699E+03</pdfrwt>
<totfact> 0.28659764E+03</totfact>
</mgrwt>
</event>
<event>
 6    1  0.6387485E-006  0.3628824E+03  0.7546771E-02  0.1104825E+00
         -2   -1    0    0    0  501 -0.00000000000E+00  0.00000000000E+00  0.75131459482E+02  0.75131459482E+02  0.00000000000E+00 0.  1.
          2   -1    0    0  501    0  0.00000000000E+00 -0.00000000000E+00 -0.71862889493E+03  0.71862889493E+03  0.00000000000E+00 0. -1.
          5    1    1    2  502    0  0.60080937851E+02  0.18129826614E+03 -0.29205579881E+03  0.34899492835E+03  0.47000000000E+01 0. -1.
         -5    1    1    2    0  502 -0.19150796105E+02 -0.16856877224E+03 -0.19785241331E+03  0.26067192296E+03  0.47000000000E+01 0.  1.
        -11    1    1    2    0    0  0.38837609844E+01 -0.36160670525E+02 -0.11461761670E+03  0.12024922349E+03  0.00000000000E+00 0.  1.
         11    1    1    2    0    0 -0.44813902729E+02  0.23431176618E+02 -0.38971606628E+02  0.63844279609E+02  0.00000000000E+00 0. -1.
<mgrwt>
<rscale>  0 0.26389618E+03</rscale>
<asrwt>0</asrwt>
<pdfrwt beam="2">  1        2 0.11055829E+00 0.36288237E+03</pdfrwt>
<pdfrwt beam="1">  1       -2 0.11558686E-01 0.36288237E+03</pdfrwt>
<totfact> 0.21380024E+03</totfact>
</mgrwt>
</event>
<event>
 7    1  0.6387485E-006  0.2543940E+03  0.7546771E-02  0.1112956E+00
          2   -1    0    0  501    0  0.00000000000E+00  0.00000000000E+00  0.20760358883E+04  0.20760358883E+04  0.00000000000E+00 0. -1.
         -2   -1    0    0    0  501 -0.00000000000E+00 -0.00000000000E+00 -0.31708591038E+02  0.31708591038E+02  0.00000000000E+00 0.  1.
         23    2    1    2    0    0  0.19146505606E+03 -0.11150293183E+03  0.13376657263E+04  0.13616408951E+04  0.12499824129E+03 0.  0.
          5    1    3    3  502    0  0.28760288402E+02 -0.72654098464E+01  0.54210268784E+03  0.54293402410E+03  0.47000000000E+01 0. -1.
         -5    1    3    3    0  502  0.16270476766E+03 -0.10423752199E+03  0.79556303845E+03  0.81870687096E+03  0.47000000000E+01 0. -1.
        -11    1    1    2    0    0 -0.27966533737E+02  0.10941952289E+02  0.28872945237E+02  0.41659336238E+02  0.00000000000E+00 0.  1.
         11    1    1    2    0    0 -0.16349852232E+03  0.10056097955E+03  0.67778862570E+03  0.70444424800E+03  0.00000000000E+00 0. -1.
<mgrwt>
<rscale>  0 0.25055295E+03</rscale>
<asrwt>0</asrwt>
<pdfrwt beam="1">  1        2 0.31939003E+00 0.25439405E+03</pdfrwt>
<pdfrwt beam="2">  1       -2 0.48782464E-02 0.25439405E+03</pdfrwt>
<totfact> 0.13793589E+03</totfact>
</mgrwt>
</event>
<event>
 7    1  0.6387485E-006  0.1520332E+03  0.7546771E-02  0.1206829E+00
         -3   -1    0    0    0  501 -0.00000000000E+00  0.00000000000E+00  0.12019222087E+04  0.12019222087E+04  0.00000000000E+00 0.  1.
          3   -1    0    0  501    0  0.00000000000E+00 -0.00000000000E+00 -0.16219490652E+02  0.16219490652E+02  0.00000000000E+00 0. -1.
         23    2    1    2    0    0 -0.86210730812E+02  0.74859683228E+01  0.71382771920E+03  0.72983841945E+03  0.12500310385E+03 0.  0.
          5    1    3    3  502    0 -0.10218188634E+03 -0.15630793498E+02  0.35209323473E+03  0.36698391728E+03  0.47000000000E+01 0.  1.
         -5    1    3    3    0  502  0.15971155525E+02  0.23116761821E+02  0.36173448447E+03  0.36285450216E+03  0.47000000000E+01 0.  1.
        -11    1    1    2    0    0  0.10267496071E+02 -0.41232264783E+02  0.15966444972E+03  0.16522184371E+03  0.00000000000E+00 0.  1.
         11    1    1    2    0    0  0.75943234741E+02  0.33746296460E+02  0.31221054911E+03  0.32308143618E+03  0.00000000000E+00 0. -1.
<mgrwt>
<rscale>  0 0.14494289E+03</rscale>
<asrwt>0</asrwt>
<pdfrwt beam="2">  1        3 0.24953072E-02 0.15203324E+03</pdfrwt>
<pdfrwt beam="1">  1       -3 0.18491104E+00 0.15203324E+03</pdfrwt>
<totfact> 0.31931214E+02</totfact>
</mgrwt>
</event>
<event>
 7    1  0.6387485E-006  0.2631775E+03  0.7546771E-02  0.1107441E+00
          3   -1    0    0  501    0  0.00000000000E+00  0.00000000000E+00  0.36472328730E+03  0.36472328730E+03  0.00000000000E+00 0. -1.
         -3   -1    0    0    0  501 -0.00000000000E+00 -0.00000000000E+00 -0.32920115973E+03  0.32920115973E+03  0.00000000000E+00 0.  1.
         23    2    1    2    0    0 -0.14801961367E+03 -0.17812086554E+03 -0.21575868253E+03  0.34031487165E+03  0.12500221601E+03 0.  0.
          5    1    3    3  502    0 -0.97311405725E+02 -0.64538065307E+02 -0.37179454793E+02  0.12263389995E+03  0.47000000000E+01 0. -1.
         -5    1    3    3    0  502 -0.50708207945E+02 -0.11358280023E+03 -0.17857922774E+03  0.21768097170E+03  0.47000000000E+01 0. -1.
        -11    1    1    2    0    0  0.14913219075E+03  0.14180493459E+03  0.17914575314E+03  0.27284107217E+03  0.00000000000E+00 0.  1.
         11    1    1    2    0    0 -0.11125770840E+01  0.36315930951E+02  0.72135056960E+02  0.80768503213E+02  0.00000000000E+00 0. -1.
<mgrwt>
<rscale>  0 0.25950509E+03</rscale>
<asrwt>0</asrwt>
<pdfrwt beam="1">  1        3 0.56111275E-01 0.26317751E+03</pdfrwt>
<pdfrwt beam="2">  1       -3 0.50646332E-01 0.26317751E+03</pdfrwt>
<totfact> 0.30577633E+01</totfact>
</mgrwt>
</event>
<event>
 7    1  0.6387485E-006  0.1327026E+03  0.7546771E-02  0.1236633E+00
          2   -1    0    0  501    0  0.00000000000E+00  0.00000000000E+00  0.86538268060E+03  0.86538268060E+03  0.00000000000E+00 0. -1.
         -2   -1    0    0    0  501 -0.00000000000E+00 -0.00000000000E+00 -0.15813968161E+02  0.15813968161E+02  0.00000000000E+00 0.  1.
         23    2    1    2    0    0  0.31743630136E+02 -0.31266494714E+02  0.47058840220E+03  0.48894113643E+03  0.12499895545E+03 0.  0.
          5    1    3    3  502    0  0.10428669042E+02 -0.46872936355E+02  0.45571536459E+03  0.45826238426E+03  0.47000000000E+01 0.  1.
         -5    1    3    3    0  502  0.21314961094E+02  0.15606441641E+02  0.14873037604E+02  0.30678752170E+02  0.47000000000E+01 0.  1.
        -11    1    1    2    0    0  0.24826120402E+02  0.22631337862E+02  0.65685604654E+02  0.73777451613E+02  0.00000000000E+00 0.  1.
         11    1    1    2    0    0 -0.56569750538E+02  0.86351568528E+01  0.31329470558E+03  0.31847806072E+03  0.00000000000E+00 0. -1.
<mgrwt>
<rscale>  0 0.12400472E+03</rscale>
<asrwt>0</asrwt>
<pdfrwt beam="1">  1        2 0.13313576E+00 0.13270264E+03</pdfrwt>
<pdfrwt beam="2">  1       -2 0.24329189E-02 0.13270264E+03</pdfrwt>
<totfact> 0.17613258E+04</totfact>
</mgrwt>
</event>
<event>
 7    1  0.6387485E-006  0.1374298E+03  0.7546771E-02  0.1228735E+00
          4   -1    0    0  501    0  0.00000000000E+00  0.00000000000E+00  0.27044741641E+02  0.27044741641E+02  0.00000000000E+00 0. -1.
         -4   -1    0    0    0  501 -0.00000000000E+00 -0.00000000000E+00 -0.58329221689E+03  0.58329221689E+03  0.00000000000E+00 0.  1.
         23    2    1    2    0    0  0.47710702211E+02 -0.31396555494E+02 -0.37979907455E+03  0.40389886209E+03  0.12499959587E+03 0.  0.
          5    1    3    3  502    0  0.59653645633E+02 -0.12654483996E+02 -0.68736915149E+02  0.92008406717E+02  0.47000000000E+01 0. -1.
         -5    1    3    3    0  502 -0.11942943422E+02 -0.18742071498E+02 -0.31106215940E+03  0.31189045538E+03  0.47000000000E+01 0. -1.
        -11    1    1    2    0    0 -0.66877865059E+02  0.46358779693E+02 -0.12015012007E+03  0.14511318563E+03  0.00000000000E+00 0.  1.
         11    1    1    2    0    0  0.19167162848E+02 -0.14962224199E+02 -0.56298280622E+02  0.61324910809E+02  0.00000000000E+00 0. -1.
<mgrwt>
<rscale>  0 0.12914155E+03</rscale>
<asrwt>0</asrwt>
<pdfrwt beam="1">  1        4 0.41607300E-02 0.13742981E+03</pdfrwt>
<pdfrwt beam="2">  1       -4 0.89737254E-01 0.13742981E+03</pdfrwt>
<totfact> 0.58623342E+02</totfact>
</mgrwt>
</event>
<event>
 7    1  0.6387485E-006  0.1472091E+03  0.7546771E-02  0.1212442E+00
         -2   -1    0    0    0  501 -0.00000000000E+00  0.00000000000E+00  0.17666655693E+02  0.17666655693E+02  0.00000000000E+00 0.  1.
          2   -1    0    0  501    0  0.00000000000E+00 -0.00000000000E+00 -0.11283625403E+04  0.11283625403E+04  0.00000000000E+00 0. -1.
         23    2    1    2    0    0 -0.73032452851E+02 -0.26656383044E+02 -0.43373024064E+03  0.45803105038E+03  0.12500487807E+03 0.  0.
          5    1    3    3  502    0 -0.23054247574E+02 -0.14796756431E+02 -0.76334990865E+01  0.28823647243E+02  0.47000000000E+01 0.  1.
         -5    1    3    3    0  502 -0.49978205277E+02 -0.11859626613E+02 -0.42609674156E+03  0.42920740314E+03  0.47000000000E+01 0.  1.
        -11    1    1    2    0    0  0.51275582612E+02 -0.31532903646E+02 -0.30558281261E+03  0.31145523715E+03  0.00000000000E+00 0.  1.
         11    1    1    2    0    0  0.21756870240E+02  0.58189286690E+02 -0.37138283140E+03  0.37654290851E+03  0.00000000000E+00 0. -1.
<mgrwt>
<rscale>  0 0.14066155E+03</rscale>
<asrwt>0</asrwt>
<pdfrwt beam="2">  1        2 0.17359424E+00 0.14720911E+03</pdfrwt>
<pdfrwt beam="1">  1       -2 0.27179471E-02 0.14720911E+03</pdfrwt>
<totfact> 0.10472986E+04</totfact>
</mgrwt>
</event>
<event>
 6    1  0.6387485E-006  0.2343365E+03  0.7546771E-02  0.1160524E+00
          1   -1    0    0  501    0  0.00000000000E+00  0.00000000000E+00  0.27448392860E+03  0.27448392860E+03  0.00000000000E+00 0. -1.
         -1   -1    0    0    0  501 -0.00000000000E+00 -0.00000000000E+00 -0.17616927551E+03  0.17616927551E+03  0.00000000000E+00 0.  1.
          5    1    1    2  502    0 -0.46496666900E+01 -0.10548647778E+03 -0.19570093947E+02  0.10748997615E+03  0.47000000000E+01 0. -1.
         -5    1    1    2    0  502  0.35983988740E+02  0.12107680900E+03 -0.60658675377E+02  0.14019987882E+03  0.47000000000E+01 0.  1.
        -11    1    1    2    0    0 -0.51124114278E+02  0.18379143454E+02  0.78436738436E+02  0.95413782607E+02  0.00000000000E+00 0.  1.
         11    1    1    2    0    0  0.19789792228E+02 -0.33969474673E+02  0.10010668398E+03  0.10754956654E+03  0.00000000000E+00 0. -1.
<mgrwt>
<rscale>  0 0.18773093E+03</rscale>
<asrwt>0</asrwt>
<pdfrwt beam="1">  1        1 0.42228297E-01 0.23433653E+03</pdfrwt>
<pdfrwt beam="2">  1       -1 0.27102965E-01 0.23433653E+03</pdfrwt>
<totfact> 0.11900470E+03</totfact>
</mgrwt>
</event>
<event>
 7    1  0.6387485E-006  0.1289295E+03  0.7546771E-02  0.1242277E+00
         -1   -1    0    0    0  501 -0.00000000000E+00  0.00000000000E+00  0.20773047123E+03  0.20773047123E+03  0.00000000000E+00 0.  1.
          1   -1    0    0  501    0  0.00000000000E+00 -0.00000000000E+00 -0.63229356933E+02  0.63229356933E+02  0.00000000000E+00 0. -1.
         23    2    1    2    0    0  0.27013263914E+02 -0.16402562520E+02  0.99111383788E+02  0.16262188113E+03  0.12499619731E+03 0.  0.
          5    1    3    3  502    0  0.31238403844E+02 -0.19169961778E+02  0.12784166238E+03  0.13307481336E+03  0.47000000000E+01 0. -1.
         -5    1    3    3    0  502 -0.42251399305E+01  0.27673992583E+01 -0.28730278592E+02  0.29547067775E+02  0.47000000000E+01 0. -1.
        -11    1    1    2    0    0 -0.41340948074E+02  0.47013081677E+02  0.39518946797E+02  0.74034120460E+02  0.00000000000E+00 0.  1.
         11    1    1    2    0    0  0.14327684160E+02 -0.30610519157E+02  0.58707837167E+01  0.34303826578E+02  0.00000000000E+00 0. -1.
<mgrwt>
<rscale>  0 0.12049835E+03</rscale>
<asrwt>0</asrwt>
<pdfrwt beam="2">  1        1 0.97275935E-02 0.12892948E+03</pdfrwt>
<pdfrwt beam="1">  1       -1 0.31958534E-01 0.12892948E+03</pdfrwt>
<totfact> 0.57816831E+03</totfact>
</mgrwt>
</event>
<event>
 7    1  0.6387485E-006  0.1754521E+03  0.7546771E-02  0.1178449E+00
         -2   -1    0    0    0  501 -0.00000000000E+00  0.00000000000E+00  0.69039484009E+03  0.69039484009E+03  0.00000000000E+00 0.  1.
          2   -1    0    0  501    0  0.00000000000E+00 -0.00000000000E+00 -0.41574242065E+02  0.41574242065E+02  0.00000000000E+00 0. -1.
         23    2    1    2    0    0 -0.32480832466E+02 -0.11876297467E+03  0.43720245359E+03  0.47109385344E+03  0.12499513867E+03 0.  0.
          5    1    3    3  502    0 -0.62544692188E+02 -0.41229707462E+02  0.31066958352E+03  0.31960820925E+03  0.47000000000E+01 0.  1.
         -5    1    3    3    0  502  0.30063859721E+02 -0.77533267209E+02  0.12653287007E+03  0.15148564419E+03  0.47000000000E+01 0.  1.
        -11    1    1    2    0    0  0.29064055631E+02  0.16339348231E+02  0.11606285321E+03  0.12075710963E+03  0.00000000000E+00 0.  1.
         11    1    1    2    0    0  0.34167768353E+01  0.10242362644E+03  0.95555291229E+02  0.14011811910E+03  0.00000000000E+00 0. -1.
<mgrwt>
<rscale>  0 0.16942479E+03</rscale>
<asrwt>0</asrwt>
<pdfrwt beam="2">  1        2 0.63960377E-02 0.17545208E+03</pdfrwt>
<pdfrwt beam="1">  1       -2 0.10621458E+00 0.17545208E+03</pdfrwt>
<totfact> 0.83257901E+02</totfact>
</mgrwt>
</event>
<event>
 7    1  0.6387485E-006  0.1311839E+03  0.7546771E-02  0.1239311E+00
         -1   -1    0    0    0  501 -0.00000000000E+00  0.00000000000E+00  0.61643462851E+03  0.61643462851E+03  0.00000000000E+00 0.  1.
          1   -1    0    0  501    0  0.00000000000E+00 -0.00000000000E+00 -0.26126030618E+02  0.26126030618E+02  0.00000000000E+00 0. -1.
         23    2    1    2    0    0 -0.34338349941E+02  0.20126424964E+02  0.46273528484E+03  0.48097104641E+03  0.12500003356E+03 0.  0.
          5    1    3    3  502    0 -0.18312923771E+02 -0.30500987160E+02  0.38525058051E+03  0.38691830297E+03  0.47000000000E+01 0. -1.
         -5    1    3    3    0  502 -0.16025426170E+02  0.50627412125E+02  0.77484704329E+02  0.94052743433E+02  0.47000000000E+01 0. -1.
        -11    1    1    2    0    0 -0.92057819699E+01  0.29513678914E+02  0.57641747972E+02  0.65409286603E+02  0.00000000000E+00 0.  1.
         11    1    1    2    0    0  0.43544131911E+02 -0.49640103878E+02  0.69931565085E+02  0.96180326118E+02  0.00000000000E+00 0. -1.
<mgrwt>
<rscale>  0 0.12232466E+03</rscale>
<asrwt>0</asrwt>
<pdfrwt beam="2">  1        1 0.40193898E-02 0.13118385E+03</pdfrwt>
<pdfrwt beam="1">  1       -1 0.94836086E-01 0.13118385E+03</pdfrwt>
<totfact> 0.24715461E+03</totfact>
</mgrwt>
</event>
<event>
 7    1  0.6387485E-006  0.1730613E+03  0.7546771E-02  0.1180930E+00
         -1   -1    0    0    0  501 -0.00000000000E+00  0.00000000000E+00  0.61031745905E+03  0.61031745905E+03  0.00000000000E+00 0.  1.
          1   -1    0    0  501    0  0.00000000000E+00 -0.00000000000E+00 -0.46511710454E+02  0.46511710454E+02  0.00000000000E+00 0. -1.
         23    2    1    2    0    0 -0.10429331846E+03  0.58720233973E+02  0.39218691343E+03  0.42867329372E+03  0.12500022211E+03 0.  0.
          5    1    3    3  502    0 -0.12211118484E+03  0.13214232070E+02  0.30056946109E+03  0.32473042410E+03  0.47000000000E+01 0. -1.
         -5    1    3    3    0  502  0.17817866386E+02  0.45506001903E+02  0.91617452341E+02  0.10394286962E+03  0.47000000000E+01 0. -1.
        -11    1    1    2    0    0  0.11773824309E+02  0.22518594572E+02  0.17314075867E+02  0.30748776617E+02  0.00000000000E+00 0. -1.
         11    1    1    2    0    0  0.92519494149E+02 -0.81238828545E+02  0.15430475930E+03  0.19740709917E+03  0.00000000000E+00 0.  1.
<mgrwt>
<rscale>  0 0.16707772E+03</rscale>
<asrwt>0</asrwt>
<pdfrwt beam="2">  1        1 0.71556482E-02 0.17306131E+03</pdfrwt>
<pdfrwt beam="1">  1       -1 0.93894988E-01 0.17306131E+03</pdfrwt>
<totfact> 0.11606760E+03</totfact>
</mgrwt>
</event>
<event>
 7    1  0.6387485E-006  0.1279150E+03  0.7546771E-02  0.1244822E+00
         -2   -1    0    0    0  501 -0.00000000000E+00  0.00000000000E+00  0.87441557601E+02  0.87441557601E+02  0.00000000000E+00 0.  1.
          2   -1    0    0  501    0  0.00000000000E+00 -0.00000000000E+00 -0.15551957594E+03  0.15551957594E+03  0.00000000000E+00 0. -1.
         23    2    1    2    0    0 -0.18288343491E+02  0.20038701760E+02 -0.43357002583E+01  0.12798841302E+03  0.12500488988E+03 0.  0.
          5    1    3    3  502    0  0.39691936242E+02 -0.29512791644E+02 -0.12229478025E+02  0.51167419380E+02  0.47000000000E+01 0. -1.
         -5    1    3    3    0  502 -0.57980279733E+02  0.49551493404E+02  0.78937777667E+01  0.76820993641E+02  0.47000000000E+01 0. -1.
        -11    1    1    2    0    0 -0.15406305008E+02 -0.10527000709E+02  0.18075391687E+02  0.25978679000E+02  0.00000000000E+00 0.  1.
         11    1    1    2    0    0  0.33694648499E+02 -0.95117010509E+01 -0.81817709764E+02  0.88994041516E+02  0.00000000000E+00 0. -1.
<mgrwt>
<rscale>  0 0.11896031E+03</rscale>
<asrwt>0</asrwt>
<pdfrwt beam="2">  1        2 0.23926088E-01 0.12791495E+03</pdfrwt>
<pdfrwt beam="1">  1       -2 0.13452547E-01 0.12791495E+03</pdfrwt>
<totfact> 0.87114108E+03</totfact>
</mgrwt>
</event>
<event>
 7    1  0.6387485E-006  0.1929942E+03  0.7546771E-02  0.1160271E+00
          1   -1    0    0  501    0  0.00000000000E+00  0.00000000000E+00  0.20093370190E+03  0.20093370190E+03  0.00000000000E+00 0. -1.
         -1   -1    0    0    0  501 -0.00000000000E+00 -0.00000000000E+00 -0.16794103223E+03  0.16794103223E+03  0.00000000000E+00 0.  1.
         23    2    1    2    0    0  0.47637438874E+02 -0.13911506556E+03  0.68900745230E+01  0.19311717197E+03  0.12499776771E+03 0.  0.
          5    1    3    3  502    0  0.64488699818E+02 -0.72193530392E+02  0.52539270191E+02  0.11024138582E+03  0.47000000000E+01 0. -1.
         -5    1    3    3    0  502 -0.16851260944E+02 -0.66921535169E+02 -0.45649195668E+02  0.82875786149E+02  0.47000000000E+01 0. -1.
        -11    1    1    2    0    0 -0.56386281006E+02  0.29124647358E+02  0.87834280666E+01  0.64068762888E+02  0.00000000000E+00 0.  1.
         11    1    1    2    0    0  0.87488421321E+01  0.10999041820E+03  0.17319167076E+02  0.11168879927E+03  0.00000000000E+00 0. -1.
<mgrwt>
<rscale>  0 0.18800783E+03</rscale>
<asrwt>0</asrwt>
<pdfrwt beam="1">  1        1 0.30912877E-01 0.19299422E+03</pdfrwt>
<pdfrwt beam="2">  1       -1 0.25837082E-01 0.19299422E+03</pdfrwt>
<totfact> 0.18986720E+03</totfact>
</mgrwt>
</event>
<event>
 7    1  0.6387485E-006  0.1562770E+03  0.7546771E-02  0.1206335E+00
         -3   -1    0    0    0  501 -0.00000000000E+00  0.00000000000E+00  0.97047161412E+02  0.97047161412E+02  0.00000000000E+00 0.  1.
          3   -1    0    0  501    0  0.00000000000E+00 -0.00000000000E+00 -0.23206381334E+03  0.23206381334E+03  0.00000000000E+00 0. -1.
         23    2    1    2    0    0 -0.51015250612E+02 -0.78708521981E+02 -0.79623213828E+01  0.15647972349E+03  0.12499967230E+03 0.  0.
          5    1    3    3  502    0 -0.76802003535E+02 -0.71745147902E+02 -0.41721910426E+02  0.11317562372E+03  0.47000000000E+01 0. -1.
         -5    1    3    3    0  502  0.25786752923E+02 -0.69633740790E+01  0.33759589044E+02  0.43304099774E+02  0.47000000000E+01 0. -1.
        -11    1    1    2    0    0  0.49657031205E+01  0.69162019116E+02 -0.83446778025E+02  0.10849611909E+03  0.00000000000E+00 0.  1.
         11    1    1    2    0    0  0.46049547492E+02  0.95465028657E+01 -0.43607552522E+02  0.64135132167E+02  0.00000000000E+00 0. -1.
<mgrwt>
<rscale>  0 0.14532746E+03</rscale>
<asrwt>0</asrwt>
<pdfrwt beam="2">  1        3 0.35702125E-01 0.15627701E+03</pdfrwt>
<pdfrwt beam="1">  1       -3 0.14930333E-01 0.15627701E+03</pdfrwt>
<totfact> 0.68328198E+02</totfact>
</mgrwt>
</event>
<event>
 7    1  0.6387485E-006  0.2000703E+03  0.7546771E-02  0.1153726E+00
         -1   -1    0    0    0  501 -0.00000000000E+00  0.00000000000E+00  0.26487245444E+03  0.26487245444E+03  0.00000000000E+00 0.  1.
          1   -1    0    0  501    0  0.00000000000E+00 -0.00000000000E+00 -0.13808297370E+03  0.13808297370E+03  0.00000000000E+00 0. -1.
         23    2    1    2    0    0  0.15615653027E+03 -0.39206684077E+01  0.77562256917E+02  0.21457870897E+03  0.12501153970E+03 0.  0.
          5    1    3    3  502    0  0.13544017862E+03  0.48104708271E+02  0.53224296952E+02  0.15333956022E+03  0.47000000000E+01 0.  1.
         -5    1    3    3    0  502  0.20716351648E+02 -0.52025376679E+02  0.24337959965E+02  0.61239148749E+02  0.47000000000E+01 0.  1.
        -11    1    1    2    0    0 -0.99350904973E+02  0.45390810868E+02  0.15321132097E+02  0.11029807396E+03  0.00000000000E+00 0.  1.
         11    1    1    2    0    0 -0.56805625298E+02 -0.41470142460E+02  0.33906091724E+02  0.78078645205E+02  0.00000000000E+00 0. -1.
<mgrwt>
<rscale>  0 0.19534570E+03</rscale>
<asrwt>0</asrwt>
<pdfrwt beam="2">  1        1 0.21243534E-01 0.20007028E+03</pdfrwt>
<pdfrwt beam="1">  1       -1 0.40749608E-01 0.20007028E+03</pdfrwt>
<totfact> 0.13992928E+03</totfact>
</mgrwt>
</event>
<event>
 7    1  0.6387485E-006  0.1326642E+03  0.7546771E-02  0.1231461E+00
         -1   -1    0    0    0  501 -0.00000000000E+00  0.00000000000E+00  0.51934598110E+02  0.51934598110E+02  0.00000000000E+00 0.  1.
          1   -1    0    0  501    0  0.00000000000E+00 -0.00000000000E+00 -0.34390934210E+03  0.34390934210E+03  0.00000000000E+00 0. -1.
         23    2    1    2    0    0 -0.43352911099E+02 -0.96215546635E+01 -0.77598759423E+02  0.15369242750E+03  0.12501098189E+03 0.  0.
          5    1    3    3  502    0 -0.72205166619E+01 -0.35770482482E+02  0.23109773831E+02  0.43448992213E+02  0.47000000000E+01 0. -1.
         -5    1    3    3    0  502 -0.36132394437E+02  0.26148927818E+02 -0.10070853325E+03  0.11024343529E+03  0.47000000000E+01 0. -1.
        -11    1    1    2    0    0  0.54731214816E+02  0.37699154128E+02 -0.78102681437E+02  0.10255126008E+03  0.00000000000E+00 0.  1.
         11    1    1    2    0    0 -0.11378303717E+02 -0.28077599465E+02 -0.13627330313E+03  0.13960025263E+03  0.00000000000E+00 0. -1.
<mgrwt>
<rscale>  0 0.12733756E+03</rscale>
<asrwt>0</asrwt>
<pdfrwt beam="2">  1        1 0.52909129E-01 0.13266422E+03</pdfrwt>
<pdfrwt beam="1">  1       -1 0.79899383E-02 0.13266422E+03</pdfrwt>
<totfact> 0.60644575E+03</totfact>
</mgrwt>
</event>
<event>
 7    1  0.6387485E-006  0.2929289E+03  0.7546771E-02  0.1090556E+00
          2   -1    0    0  501    0  0.00000000000E+00  0.00000000000E+00  0.14585938114E+04  0.14585938114E+04  0.00000000000E+00 0. -1.
         -2   -1    0    0    0  501 -0.00000000000E+00 -0.00000000000E+00 -0.11480961661E+03  0.11480961661E+03  0.00000000000E+00 0.  1.
         23    2    1    2    0    0  0.25580387274E+03 -0.68883905206E+02  0.11754154892E+03  0.31563164562E+03  0.12500682499E+03 0.  0.
          5    1    3    3  502    0  0.12413217000E+03 -0.97724118524E+02  0.63176010308E+02  0.17021191864E+03  0.47000000000E+01 0. -1.
         -5    1    3    3    0  502  0.13167170274E+03  0.28840213318E+02  0.54365538608E+02  0.14541972698E+03  0.47000000000E+01 0. -1.
        -11    1    1    2    0    0 -0.22709279677E+03  0.89517026613E+02  0.10474141787E+04  0.10754817051E+04  0.00000000000E+00 0.  1.
         11    1    1    2    0    0 -0.28711075966E+02 -0.20633121407E+02  0.17882846722E+03  0.18229007727E+03  0.00000000000E+00 0. -1.
<mgrwt>
<rscale>  0 0.28960423E+03</rscale>
<asrwt>0</asrwt>
<pdfrwt beam="1">  1        2 0.22439903E+00 0.29292887E+03</pdfrwt>
<pdfrwt beam="2">  1       -2 0.17663019E-01 0.29292887E+03</pdfrwt>
<totfact> 0.37445753E+02</totfact>
</mgrwt>
</event>
<event>
 7    1  0.6387485E-006  0.1449276E+03  0.7546771E-02  0.1216596E+00
          1   -1    0    0  501    0  0.00000000000E+00  0.00000000000E+00  0.22224111261E+03  0.22224111261E+03  0.00000000000E+00 0. -1.
         -1   -1    0    0    0  501 -0.00000000000E+00 -0.00000000000E+00 -0.80410257285E+02  0.80410257285E+02  0.00000000000E+00 0.  1.
         23    2    1    2    0    0  0.17806068817E+02 -0.71147591189E+02  0.49984009587E+02  0.15330497982E+03  0.12499991922E+03 0.  0.
          5    1    3    3  502    0 -0.36888929627E+02 -0.13205899092E+02  0.61080730429E+02  0.72719560846E+02  0.47000000000E+01 0.  1.
         -5    1    3    3    0  502  0.54694998443E+02 -0.57941692096E+02 -0.11096720842E+02  0.80585418974E+02  0.47000000000E+01 0.  1.
        -11    1    1    2    0    0  0.82706313874E+01  0.81267839170E+02  0.89655836668E+02  0.12128905175E+03  0.00000000000E+00 0. -1.
         11    1    1    2    0    0 -0.26076700204E+02 -0.10120247981E+02  0.21910090682E+01  0.28057338318E+02  0.00000000000E+00 0.  1.
<mgrwt>
<rscale>  0 0.13759957E+03</rscale>
<asrwt>0</asrwt>
<pdfrwt beam="1">  1        1 0.34190940E-01 0.14492762E+03</pdfrwt>
<pdfrwt beam="2">  1       -1 0.12370809E-01 0.14492762E+03</pdfrwt>
<totfact> 0.53718813E+03</totfact>
</mgrwt>
</event>
<event>
 7    1  0.6387485E-006  0.2372696E+03  0.7546771E-02  0.1124419E+00
          1   -1    0    0  501    0  0.00000000000E+00  0.00000000000E+00  0.14347158298E+03  0.14347158298E+03  0.00000000000E+00 0. -1.
         -1   -1    0    0    0  501 -0.00000000000E+00 -0.00000000000E+00 -0.41819166204E+03  0.41819166204E+03  0.00000000000E+00 0.  1.
         23    2    1    2    0    0  0.16348682379E+03  0.11807247076E+03 -0.24023016406E+03  0.33764983645E+03  0.12501132120E+03 0.  0.
          5    1    3    3  502    0  0.25690570308E+02 -0.26599713766E+02 -0.33610909844E+02  0.50192962014E+02  0.47000000000E+01 0.  1.
         -5    1    3    3    0  502  0.13779625348E+03  0.14467218452E+03 -0.20661925422E+03  0.28745687444E+03  0.47000000000E+01 0.  1.
        -11    1    1    2    0    0 -0.98899732245E+02 -0.19823860716E+02  0.20560467219E+01  0.10088790720E+03  0.00000000000E+00 0.  1.
         11    1    1    2    0    0 -0.64587091544E+02 -0.98248610042E+02 -0.36545961718E+02  0.12312550137E+03  0.00000000000E+00 0. -1.
<mgrwt>
<rscale>  0 0.23318348E+03</rscale>
<asrwt>0</asrwt>
<pdfrwt beam="1">  1        1 0.22072551E-01 0.23726964E+03</pdfrwt>
<pdfrwt beam="2">  1       -1 0.64337179E-01 0.23726964E+03</pdfrwt>
<totfact> 0.57120851E+02</totfact>
</mgrwt>
</event>
<event>
 6    1  0.6387485E-006  0.1563747E+03  0.7546771E-02  0.1208459E+00
         -2   -1    0    0    0  501 -0.00000000000E+00  0.00000000000E+00  0.11378886417E+04  0.11378886417E+04  0.00000000000E+00 0.  1.
          2   -1    0    0  501    0  0.00000000000E+00 -0.00000000000E+00 -0.19740232535E+02  0.19740232535E+02  0.00000000000E+00 0. -1.
          5    1    1    2  502    0  0.62067553494E+02 -0.72033642301E+02  0.54781331042E+03  0.55602404615E+03  0.47000000000E+01 0. -1.
         -5    1    1    2    0  502  0.71590320410E+00  0.60976401831E+02  0.34307700013E+03  0.34848608597E+03  0.47000000000E+01 0.  1.
        -11    1    1    2    0    0 -0.67828357580E+02 -0.17461278007E+02  0.20487385808E+03  0.21651531134E+03  0.00000000000E+00 0. -1.
         11    1    1    2    0    0  0.50449008819E+01  0.28518518477E+02  0.22384240571E+02  0.36603430809E+02  0.00000000000E+00 0.  1.
<mgrwt>
<rscale>  0 0.14368203E+03</rscale>
<asrwt>0</asrwt>
<pdfrwt beam="2">  1        2 0.30369597E-02 0.15637466E+03</pdfrwt>
<pdfrwt beam="1">  1       -2 0.17505974E+00 0.15637466E+03</pdfrwt>
<totfact> 0.63490827E+02</totfact>
</mgrwt>
</event>
<event>
 7    1  0.6387485E-006  0.1663250E+03  0.7546771E-02  0.1188698E+00
         -3   -1    0    0    0  501 -0.00000000000E+00  0.00000000000E+00  0.36273136565E+03  0.36273136565E+03  0.00000000000E+00 0.  1.
          3   -1    0    0  501    0  0.00000000000E+00 -0.00000000000E+00 -0.11197904221E+03  0.11197904221E+03  0.00000000000E+00 0. -1.
         23    2    1    2    0    0  0.10509915925E+03 -0.31523513150E+02  0.28338711122E+03  0.32859135236E+03  0.12499782752E+03 0.  0.
          5    1    3    3  502    0  0.24262380220E+02  0.45375036601E+02  0.62586511880E+02  0.81158600960E+02  0.47000000000E+01 0.  1.
         -5    1    3    3    0  502  0.80836779031E+02 -0.76898549751E+02  0.22080059934E+03  0.24743275140E+03  0.47000000000E+01 0.  1.
        -11    1    1    2    0    0 -0.69640969409E+02 -0.22066066278E+02  0.20806146983E+01  0.73082862962E+02  0.00000000000E+00 0.  1.
         11    1    1    2    0    0 -0.35458189843E+02  0.53589579428E+02 -0.34715402487E+02  0.73036192535E+02  0.00000000000E+00 0. -1.
<mgrwt>
<rscale>  0 0.15999895E+03</rscale>
<asrwt>0</asrwt>
<pdfrwt beam="2">  1        3 0.17227545E-01 0.16632505E+03</pdfrwt>
<pdfrwt beam="1">  1       -3 0.55804825E-01 0.16632505E+03</pdfrwt>
<totfact> 0.22325296E+02</totfact>
</mgrwt>
</event>
<event>
 7    1  0.6387485E-006  0.1423462E+03  0.7546771E-02  0.1218074E+00
          1   -1    0    0  501    0  0.00000000000E+00  0.00000000000E+00  0.41526694523E+03  0.41526694523E+03  0.00000000000E+00 0. -1.
         -1   -1    0    0    0  501 -0.00000000000E+00 -0.00000000000E+00 -0.46974121196E+02  0.46974121196E+02  0.00000000000E+00 0.  1.
         23    2    1    2    0    0 -0.21806860815E+02  0.64513972317E+02  0.11966634931E+03  0.18596365408E+03  0.12499941472E+03 0.  0.
          5    1    3    3  502    0  0.36891598021E+02  0.68106573481E+02  0.93276105527E+02  0.12133432003E+03  0.47000000000E+01 0. -1.
         -5    1    3    3    0  502 -0.58698458836E+02 -0.35926011649E+01  0.26390243778E+02  0.64629334049E+02  0.47000000000E+01 0. -1.
        -11    1    1    2    0    0  0.14897162694E+02 -0.36693814568E+00 -0.40920043308E+01  0.15453303833E+02  0.00000000000E+00 0.  1.
         11    1    1    2    0    0  0.69096981217E+01 -0.64147034171E+02  0.25271847906E+03  0.26082410851E+03  0.00000000000E+00 0. -1.
<mgrwt>
<rscale>  0 0.13653159E+03</rscale>
<asrwt>0</asrwt>
<pdfrwt beam="1">  1        1 0.63887220E-01 0.14234622E+03</pdfrwt>
<pdfrwt beam="2">  1       -1 0.72267882E-02 0.14234622E+03</pdfrwt>
<totfact> 0.55899299E+03</totfact>
</mgrwt>
</event>
<event>
 7    1  0.6623431E-006  0.1581929E+03  0.7546771E-02  0.1198737E+00
         -3   -1    0    0    0  501 -0.00000000000E+00  0.00000000000E+00  0.80030948275E+03  0.80030948275E+03  0.00000000000E+00 0.  1.
          3   -1    0    0  501    0  0.00000000000E+00 -0.00000000000E+00 -0.30667333486E+02  0.30667333486E+02  0.00000000000E+00 0. -1.
         23    2    1    2    0    0  0.96025972704E+02 -0.13384554129E+02  0.56734537985E+03  0.58898707326E+03  0.12499943483E+03 0.  0.
          5    1    3    3  502    0  0.63256287037E+02  0.20689332095E+02  0.51077582566E+03  0.51511497784E+03  0.47000000000E+01 0.  1.
         -5    1    3    3    0  502  0.32769685667E+02 -0.34073886224E+02  0.56569554190E+02  0.73872095424E+02  0.47000000000E+01 0.  1.
        -11    1    1    2    0    0 -0.13076991123E+02  0.40390556131E+02  0.92337832607E+02  0.10163011390E+03  0.00000000000E+00 0.  1.
         11    1    1    2    0    0 -0.82948981580E+02 -0.27006002002E+02  0.10995893681E+03  0.14035962907E+03  0.00000000000E+00 0. -1.
<mgrwt>
<rscale>  0 0.15142142E+03</rscale>
<asrwt>0</asrwt>
<pdfrwt beam="2">  1        3 0.47180519E-02 0.15819290E+03</pdfrwt>
<pdfrwt beam="1">  1       -3 0.12312452E+00 0.15819290E+03</pdfrwt>
<totfact> 0.33040736E+02</totfact>
</mgrwt>
</event>
<event>
 7    1  0.6387485E-006  0.1276283E+03  0.7546771E-02  0.1244998E+00
         -2   -1    0    0    0  501 -0.00000000000E+00  0.00000000000E+00  0.33794945349E+02  0.33794945349E+02  0.00000000000E+00 0.  1.
          2   -1    0    0  501    0  0.00000000000E+00 -0.00000000000E+00 -0.39860206277E+03  0.39860206277E+03  0.00000000000E+00 0. -1.
         23    2    1    2    0    0 -0.25728241355E+02 -0.13153342550E+01 -0.14889514327E+03  0.19610903502E+03  0.12500126967E+03 0.  0.
          5    1    3    3  502    0  0.12679835880E+02  0.34571424661E+02 -0.13709440401E+03  0.14203143051E+03  0.47000000000E+01 0. -1.
         -5    1    3    3    0  502 -0.38408077236E+02 -0.35886758916E+02 -0.11800739261E+02  0.54077604510E+02  0.47000000000E+01 0. -1.
        -11    1    1    2    0    0  0.43964120956E+02  0.22026496179E+02 -0.58255218546E+02  0.76234381700E+02  0.00000000000E+00 0. -1.
         11    1    1    2    0    0 -0.18235879601E+02 -0.20711161924E+02 -0.15765675561E+03  0.16005359140E+03  0.00000000000E+00 0.  1.
<mgrwt>
<rscale>  0 0.11885473E+03</rscale>
<asrwt>0</asrwt>
<pdfrwt beam="2">  1        2 0.61323392E-01 0.12762833E+03</pdfrwt>
<pdfrwt beam="1">  1       -2 0.51992225E-02 0.12762833E+03</pdfrwt>
<totfact> 0.13879868E+04</totfact>
</mgrwt>
</event>
<event>
 7    1  0.6387485E-006  0.1391008E+03  0.7546771E-02  0.1227094E+00
         -2   -1    0    0    0  501 -0.00000000000E+00  0.00000000000E+00  0.14276024586E+03  0.14276024586E+03  0.00000000000E+00 0.  1.
          2   -1    0    0  501    0  0.00000000000E+00 -0.00000000000E+00 -0.13463049119E+03  0.13463049119E+03  0.00000000000E+00 0. -1.
         23    2    1    2    0    0  0.35330267879E+02 -0.49761134198E+02  0.68022463862E+02  0.15484209495E+03  0.12499848189E+03 0.  0.
          5    1    3    3  502    0  0.38188988085E+02 -0.52143856188E+01 -0.28652079952E+02  0.48255780109E+02  0.47000000000E+01 0. -1.
         -5    1    3    3    0  502 -0.28587202057E+01 -0.44546748579E+02  0.96674543813E+02  0.10658631484E+03  0.47000000000E+01 0. -1.
        -11    1    1    2    0    0 -0.56471650324E+02  0.27433273025E+02 -0.94739312856E+01  0.63493205409E+02  0.00000000000E+00 0.  1.
         11    1    1    2    0    0  0.21141382445E+02  0.22327861173E+02 -0.50418777913E+02  0.59055436688E+02  0.00000000000E+00 0. -1.
<mgrwt>
<rscale>  0 0.13024402E+03</rscale>
<asrwt>0</asrwt>
<pdfrwt beam="2">  1        2 0.20712383E-01 0.13910075E+03</pdfrwt>
<pdfrwt beam="1">  1       -2 0.21963115E-01 0.13910075E+03</pdfrwt>
<totfact> 0.45604367E+03</totfact>
</mgrwt>
</event>
<event>
 7    1  0.6387485E-006  0.1495438E+03  0.7546771E-02  0.1211178E+00
         -2   -1    0    0    0  501 -0.00000000000E+00  0.00000000000E+00  0.25177174784E+03  0.25177174784E+03  0.00000000000E+00 0.  1.
          2   -1    0    0  501    0  0.00000000000E+00 -0.00000000000E+00 -0.75598945790E+02  0.75598945790E+02  0.00000000000E+00 0. -1.
         23    2    1    2    0    0  0.48151822286E+02 -0.66493965570E+02  0.13135368657E+03  0.19904052863E+03  0.12499318228E+03 0.  0.
          5    1    3    3  502    0  0.35194870826E+02 -0.23548950871E+02 -0.15560363448E+02  0.45359088728E+02  0.47000000000E+01 0. -1.
         -5    1    3    3    0  502  0.12956951460E+02 -0.42945014699E+02  0.14691405001E+03  0.15368143990E+03  0.47000000000E+01 0. -1.
        -11    1    1    2    0    0 -0.58189714822E+02  0.46641271867E+02  0.64522162491E+02  0.98613186770E+02  0.00000000000E+00 0.  1.
         11    1    1    2    0    0  0.10037892536E+02  0.19852693703E+02 -0.19703047006E+02  0.29716978231E+02  0.00000000000E+00 0. -1.
<mgrwt>
<rscale>  0 0.14161095E+03</rscale>
<asrwt>0</asrwt>
<pdfrwt beam="2">  1        2 0.11630607E-01 0.14954378E+03</pdfrwt>
<pdfrwt beam="1">  1       -2 0.38734115E-01 0.14954378E+03</pdfrwt>
<totfact> 0.32467883E+03</totfact>
</mgrwt>
</event>
<event>
 7    1  0.6387485E-006  0.1437241E+03  0.7546771E-02  0.1220026E+00
         -1   -1    0    0    0  501 -0.00000000000E+00  0.00000000000E+00  0.55945227198E+02  0.55945227198E+02  0.00000000000E+00 0.  1.
          1   -1    0    0  501    0  0.00000000000E+00 -0.00000000000E+00 -0.33575555447E+03  0.33575555447E+03  0.00000000000E+00 0. -1.
         23    2    1    2    0    0 -0.58581453475E+01 -0.70700146720E+02 -0.85433716854E+02  0.16719905556E+03  0.12499510227E+03 0.  0.
          5    1    3    3  502    0  0.21607473965E+02 -0.86230938362E+02 -0.98463775396E+02  0.13273983097E+03  0.47000000000E+01 0.  1.
         -5    1    3    3    0  502 -0.27465619312E+02  0.15530791642E+02  0.13030058542E+02  0.34459224583E+02  0.47000000000E+01 0.  1.
        -11    1    1    2    0    0 -0.14838044534E+02 -0.11675325033E+02 -0.96931684908E+01  0.21223531648E+02  0.00000000000E+00 0.  1.
         11    1    1    2    0    0  0.20696189881E+02  0.82375471753E+02 -0.18468344192E+03  0.20327819446E+03  0.00000000000E+00 0. -1.
<mgrwt>
<rscale>  0 0.13513697E+03</rscale>
<asrwt>0</asrwt>
<pdfrwt beam="2">  1        1 0.51654700E-01 0.14372406E+03</pdfrwt>
<pdfrwt beam="1">  1       -1 0.86069582E-02 0.14372406E+03</pdfrwt>
<totfact> 0.56102622E+03</totfact>
</mgrwt>
</event>
<event>
 7    1  0.6387485E-006  0.1605821E+03  0.7546771E-02  0.1195768E+00
         -1   -1    0    0    0  501 -0.00000000000E+00  0.00000000000E+00  0.42870236206E+03  0.42870236206E+03  0.00000000000E+00 0.  1.
          1   -1    0    0  501    0  0.00000000000E+00 -0.00000000000E+00 -0.72045852955E+02  0.72045852955E+02  0.00000000000E+00 0. -1.
         23    2    1    2    0    0  0.67726130991E+02  0.74672046553E+02  0.32369806989E+03  0.36134062360E+03  0.12499544972E+03 0.  0.
          5    1    3    3  502    0  0.28237722523E+02  0.10570004684E+03  0.23606920587E+03  0.26023187514E+03  0.47000000000E+01 0.  1.
         -5    1    3    3    0  502  0.39488408468E+02 -0.31028000288E+02  0.87628864021E+02  0.10110874846E+03  0.47000000000E+01 0.  1.
        -11    1    1    2    0    0 -0.64073370537E+02 -0.10322380769E+02 -0.41554818620E+01  0.65032425653E+02  0.00000000000E+00 0. -1.
         11    1    1    2    0    0 -0.36527604537E+01 -0.64349665784E+02  0.37113921075E+02  0.74375165768E+02  0.00000000000E+00 0.  1.
<mgrwt>
<rscale>  0 0.15389413E+03</rscale>
<asrwt>0</asrwt>
<pdfrwt beam="2">  1        1 0.11083978E-01 0.16058208E+03</pdfrwt>
<pdfrwt beam="1">  1       -1 0.65954208E-01 0.16058208E+03</pdfrwt>
<totfact> 0.13287357E+03</totfact>
</mgrwt>
</event>
<event>
 7    1  0.6387485E-006  0.1329930E+03  0.7546771E-02  0.1235377E+00
          1   -1    0    0  501    0  0.00000000000E+00  0.00000000000E+00  0.94719195064E+02  0.94719195064E+02  0.00000000000E+00 0. -1.
         -1   -1    0    0    0  501 -0.00000000000E+00 -0.00000000000E+00 -0.14933366086E+03  0.14933366086E+03  0.00000000000E+00 0.  1.
         23    2    1    2    0    0 -0.45115332944E+02 -0.51280695683E+01 -0.45293694155E+02  0.14049433395E+03  0.12500179510E+03 0.  0.
          5    1    3    3  502    0  0.19887070055E+02 -0.22987270578E+02  0.27437024681E+02  0.41216386151E+02  0.47000000000E+01 0. -1.
         -5    1    3    3    0  502 -0.65002402999E+02  0.17859201010E+02 -0.72730718836E+02  0.99277947797E+02  0.47000000000E+01 0. -1.
        -11    1    1    2    0    0  0.37999352257E+02  0.29795707491E+02  0.29816659978E+02  0.56751812034E+02  0.00000000000E+00 0. -1.
         11    1    1    2    0    0  0.71159806871E+01 -0.24667637923E+02 -0.39137431619E+02  0.46806709942E+02  0.00000000000E+00 0.  1.
<mgrwt>
<rscale>  0 0.12480342E+03</rscale>
<asrwt>0</asrwt>
<pdfrwt beam="1">  1        1 0.14572184E-01 0.13299300E+03</pdfrwt>
<pdfrwt beam="2">  1       -1 0.22974409E-01 0.13299300E+03</pdfrwt>
<totfact> 0.58950902E+03</totfact>
</mgrwt>
</event>
<event>
 7    1  0.6387485E-006  0.1343953E+03  0.7546771E-02  0.1233780E+00
         -1   -1    0    0    0  501 -0.00000000000E+00  0.00000000000E+00  0.25243180479E+02  0.25243180479E+02  0.00000000000E+00 0.  1.
          1   -1    0    0  501    0  0.00000000000E+00 -0.00000000000E+00 -0.56700392078E+03  0.56700392078E+03  0.00000000000E+00 0. -1.
         23    2    1    2    0    0 -0.57322415411E+01 -0.49026928584E+02 -0.27187498793E+03  0.30327890968E+03  0.12500235868E+03 0.  0.
          5    1    3    3  502    0  0.47483956904E+02 -0.62345615168E+02 -0.17604998645E+03  0.19276252131E+03  0.47000000000E+01 0. -1.
         -5    1    3    3    0  502 -0.53216198445E+02  0.13318686584E+02 -0.95825001478E+02  0.11051638837E+03  0.47000000000E+01 0. -1.
        -11    1    1    2    0    0  0.29450818991E+02  0.63538109385E+02 -0.22941507159E+03  0.23986604002E+03  0.00000000000E+00 0. -1.
         11    1    1    2    0    0 -0.23718577450E+02 -0.14511180801E+02 -0.40470680786E+02  0.49102151560E+02  0.00000000000E+00 0.  1.
<mgrwt>
<rscale>  0 0.12582864E+03</rscale>
<asrwt>0</asrwt>
<pdfrwt beam="2">  1        1 0.87231372E-01 0.13439527E+03</pdfrwt>
<pdfrwt beam="1">  1       -1 0.38835662E-02 0.13439527E+03</pdfrwt>
<totfact> 0.93380477E+03</totfact>
</mgrwt>
</event>
<event>
 7    1  0.6387485E-006  0.1324023E+03  0.7546771E-02  0.1237538E+00
          1   -1    0    0  501    0  0.00000000000E+00  0.00000000000E+00  0.54638405436E+02  0.54638405436E+02  0.00000000000E+00 0. -1.
         -1   -1    0    0    0  501 -0.00000000000E+00 -0.00000000000E+00 -0.28647459915E+03  0.28647459915E+03  0.00000000000E+00 0.  1.
         23    2    1    2    0    0 -0.36678951967E+02  0.23696568791E+02 -0.19251515924E+03  0.23365029355E+03  0.12499400084E+03 0.  0.
          5    1    3    3  502    0 -0.11275390255E+02  0.71823406155E+02 -0.77753724199E+02  0.10655265236E+03  0.47000000000E+01 0.  1.
         -5    1    3    3    0  502 -0.25403561712E+02 -0.48126837364E+02 -0.11476143505E+03  0.12709764119E+03  0.47000000000E+01 0.  1.
        -11    1    1    2    0    0  0.36806974034E+02 -0.13178136736E+02 -0.67155774278E+02  0.77706593312E+02  0.00000000000E+00 0.  1.
         11    1    1    2    0    0 -0.12802206682E+00 -0.10518432056E+02  0.27834739804E+02  0.29756117732E+02  0.00000000000E+00 0. -1.
<mgrwt>
<rscale>  0 0.12343350E+03</rscale>
<asrwt>0</asrwt>
<pdfrwt beam="1">  1        1 0.84059084E-02 0.13240232E+03</pdfrwt>
<pdfrwt beam="2">  1       -1 0.44073016E-01 0.13240232E+03</pdfrwt>
<totfact> 0.40291913E+03</totfact>
</mgrwt>
</event>
<event>
 7    1  0.6387485E-006  0.1343113E+03  0.7546771E-02  0.1226906E+00
          2   -1    0    0  501    0  0.00000000000E+00  0.00000000000E+00  0.88746175549E+03  0.88746175549E+03  0.00000000000E+00 0. -1.
         -2   -1    0    0    0  501 -0.00000000000E+00 -0.00000000000E+00 -0.18138174187E+02  0.18138174187E+02  0.00000000000E+00 0.  1.
         23    2    1    2    0    0  0.56193067102E+02  0.51733286521E+02  0.44233061948E+03  0.46227254712E+03  0.11047867292E+03 0.  0.
          5    1    3    3  502    0 -0.21861900152E+02  0.37897579107E+02  0.25556507834E+03  0.25932560315E+03  0.47000000000E+01 0. -1.
         -5    1    3    3    0  502  0.78054967254E+02  0.13835707414E+02  0.18676554114E+03  0.20294694398E+03  0.47000000000E+01 0.  1.
        -11    1    1    2    0    0  0.24454840427E+02 -0.20971169431E+02  0.13857581497E+03  0.14227116947E+03  0.00000000000E+00 0.  1.
         11    1    1    2    0    0 -0.80647907528E+02 -0.30762117089E+02  0.28841714685E+03  0.30105621308E+03  0.00000000000E+00 0. -1.
<mgrwt>
<rscale>  0 0.13037140E+03</rscale>
<asrwt>0</asrwt>
<pdfrwt beam="1">  1        2 0.13653254E+00 0.13431132E+03</pdfrwt>
<pdfrwt beam="2">  1       -2 0.27904890E-02 0.13431132E+03</pdfrwt>
<totfact> 0.13963854E+04</totfact>
</mgrwt>
</event>
<event>
 7    1  0.6387485E-006  0.1831403E+03  0.7546771E-02  0.1170257E+00
         -4   -1    0    0    0  501 -0.00000000000E+00  0.00000000000E+00  0.30606763121E+03  0.30606763121E+03  0.00000000000E+00 0.  1.
          4   -1    0    0  501    0  0.00000000000E+00 -0.00000000000E+00 -0.97188256046E+02  0.97188256046E+02  0.00000000000E+00 0. -1.
         23    2    1    2    0    0  0.10298733364E+03 -0.85491381774E+02  0.10338982195E+03  0.21030884431E+03  0.12500074984E+03 0.  0.
          5    1    3    3  502    0  0.19062689827E+02 -0.52555700694E+02 -0.18097942719E+02  0.58950092023E+02  0.47000000000E+01 0.  1.
         -5    1    3    3    0  502  0.83924643813E+02 -0.32935681080E+02  0.12148776467E+03  0.15135875228E+03  0.47000000000E+01 0.  1.
        -11    1    1    2    0    0 -0.31727016510E+02  0.32817194015E+02  0.92812640126E+02  0.10342996648E+03  0.00000000000E+00 0.  1.
         11    1    1    2    0    0 -0.71260317131E+02  0.52674187759E+02  0.12676913082E+02  0.89517076465E+02  0.00000000000E+00 0. -1.
<mgrwt>
<rscale>  0 0.17748800E+03</rscale>
<asrwt>0</asrwt>
<pdfrwt beam="2">  1        4 0.14952040E-01 0.18314026E+03</pdfrwt>
<pdfrwt beam="1">  1       -4 0.47087327E-01 0.18314026E+03</pdfrwt>
<totfact> 0.29147393E+02</totfact>
</mgrwt>
</event>
<event>
 7    1  0.6387485E-006  0.1278764E+03  0.7546771E-02  0.1244305E+00
          1   -1    0    0  501    0  0.00000000000E+00  0.00000000000E+00  0.27744666826E+03  0.27744666826E+03  0.00000000000E+00 0. -1.
         -1   -1    0    0    0  501 -0.00000000000E+00 -0.00000000000E+00 -0.78807131137E+02  0.78807131137E+02  0.00000000000E+00 0.  1.
         23    2    1    2    0    0 -0.11384776069E+02 -0.24446985718E+02 -0.79475288963E+01  0.12812310204E+03  0.12500039130E+03 0.  0.
          5    1    3    3  502    0 -0.50436293801E+02 -0.39123589302E+02 -0.39848698832E+02  0.75395515588E+02  0.47000000000E+01 0.  1.
         -5    1    3    3    0  502  0.39051517731E+02  0.14676603583E+02  0.31901169936E+02  0.52727586453E+02  0.47000000000E+01 0.  1.
        -11    1    1    2    0    0 -0.24475456103E+02 -0.20263189150E+02  0.12116699343E+03  0.12526406142E+03  0.00000000000E+00 0. -1.
         11    1    1    2    0    0  0.35860232172E+02  0.44710174868E+02  0.85420072585E+02  0.10286663594E+03  0.00000000000E+00 0.  1.
<mgrwt>
<rscale>  0 0.11927063E+03</rscale>
<asrwt>0</asrwt>
<pdfrwt beam="1">  1        1 0.42684102E-01 0.12787637E+03</pdfrwt>
<pdfrwt beam="2">  1       -1 0.12124174E-01 0.12787637E+03</pdfrwt>
<totfact> 0.41817464E+03</totfact>
</mgrwt>
</event>
<event>
 7    1  0.6387485E-006  0.1628869E+03  0.7546771E-02  0.1193111E+00
         -1   -1    0    0    0  501 -0.00000000000E+00  0.00000000000E+00  0.65429250762E+02  0.65429250762E+02  0.00000000000E+00 0.  1.
          1   -1    0    0  501    0  0.00000000000E+00 -0.00000000000E+00 -0.34824265067E+03  0.34824265067E+03  0.00000000000E+00 0. -1.
         23    2    1    2    0    0 -0.19298225551E+02  0.10263891119E+03 -0.13312004092E+03  0.21036417691E+03  0.12499989613E+03 0.  0.
          5    1    3    3  502    0 -0.56594459760E+02  0.63948366774E+02 -0.24304165840E+02  0.88910679706E+02  0.47000000000E+01 0.  1.
         -5    1    3    3    0  502  0.37296234209E+02  0.38690544417E+02 -0.10881587508E+03  0.12145349720E+03  0.47000000000E+01 0.  1.
        -11    1    1    2    0    0  0.43337112782E+02 -0.10048301844E+03 -0.13900775399E+03  0.17691268471E+03  0.00000000000E+00 0.  1.
         11    1    1    2    0    0 -0.24038887231E+02 -0.21558927463E+01 -0.10685604997E+02  0.26395039818E+02  0.00000000000E+00 0. -1.
<mgrwt>
<rscale>  0 0.15615172E+03</rscale>
<asrwt>0</asrwt>
<pdfrwt beam="2">  1        1 0.53575792E-01 0.16288690E+03</pdfrwt>
<pdfrwt beam="1">  1       -1 0.10066039E-01 0.16288690E+03</pdfrwt>
<totfact> 0.42495979E+03</totfact>
</mgrwt>
</event>
<event>
 7    1  0.6387485E-006  0.1287128E+03  0.7546771E-02  0.1243909E+00
          2   -1    0    0  501    0  0.00000000000E+00  0.00000000000E+00  0.52057027182E+03  0.52057027182E+03  0.00000000000E+00 0. -1.
         -2   -1    0    0    0  501 -0.00000000000E+00 -0.00000000000E+00 -0.28156705330E+02  0.28156705330E+02  0.00000000000E+00 0.  1.
         23    2    1    2    0    0 -0.11034149945E+02 -0.28587376329E+02  0.17517102459E+03  0.21737494250E+03  0.12501194831E+03 0.  0.
          5    1    3    3  502    0  0.68405987719E+01  0.29184124345E+02  0.14770690708E+03  0.15079100538E+03  0.47000000000E+01 0. -1.
         -5    1    3    3    0  502 -0.17874748717E+02 -0.57771500674E+02  0.27464117515E+02  0.66583937122E+02  0.47000000000E+01 0. -1.
        -11    1    1    2    0    0  0.75525047328E+01 -0.30378339840E+02  0.16712614456E+03  0.17003244413E+03  0.00000000000E+00 0. -1.
         11    1    1    2    0    0  0.34816452120E+01  0.58965716169E+02  0.15011639733E+03  0.16131959052E+03  0.00000000000E+00 0.  1.
<mgrwt>
<rscale>  0 0.11950933E+03</rscale>
<asrwt>0</asrwt>
<pdfrwt beam="1">  1        2 0.80087727E-01 0.12871277E+03</pdfrwt>
<pdfrwt beam="2">  1       -2 0.43318012E-02 0.12871277E+03</pdfrwt>
<totfact> 0.13669576E+04</totfact>
</mgrwt>
</event>
<event>
 7    1  0.6387485E-006  0.1307510E+03  0.7546771E-02  0.1237092E+00
         -2   -1    0    0    0  501 -0.00000000000E+00  0.00000000000E+00  0.42479418339E+03  0.42479418339E+03  0.00000000000E+00 0.  1.
          2   -1    0    0  501    0  0.00000000000E+00 -0.00000000000E+00 -0.32744919654E+02  0.32744919654E+02  0.00000000000E+00 0. -1.
         23    2    1    2    0    0  0.38355190353E+02  0.59678649581E+00  0.22963264248E+03  0.26424793677E+03  0.12499737923E+03 0.  0.
          5    1    3    3  502    0  0.57459713795E+02  0.50766056066E+02  0.13834178534E+03  0.15823827201E+03  0.47000000000E+01 0.  1.
         -5    1    3    3    0  502 -0.19104523442E+02 -0.50169269571E+02  0.91290857146E+02  0.10600966477E+03  0.47000000000E+01 0.  1.
        -11    1    1    2    0    0 -0.71552141953E+02 -0.51070918625E+00  0.11356926102E+03  0.13423094610E+03  0.00000000000E+00 0.  1.
         11    1    1    2    0    0  0.33196951600E+02 -0.86077309554E-01  0.48847360227E+02  0.59060220166E+02  0.00000000000E+00 0. -1.
<mgrwt>
<rscale>  0 0.12371447E+03</rscale>
<asrwt>0</asrwt>
<pdfrwt beam="2">  1        2 0.50376803E-02 0.13075099E+03</pdfrwt>
<pdfrwt beam="1">  1       -2 0.65352947E-01 0.13075099E+03</pdfrwt>
<totfact> 0.32734101E+03</totfact>
</mgrwt>
</event>
<event>
 7    1  0.6387485E-006  0.1427951E+03  0.7546771E-02  0.1220124E+00
         -2   -1    0    0    0  501 -0.00000000000E+00  0.00000000000E+00  0.82599071285E+02  0.82599071285E+02  0.00000000000E+00 0.  1.
          2   -1    0    0  501    0  0.00000000000E+00 -0.00000000000E+00 -0.29083459005E+03  0.29083459005E+03  0.00000000000E+00 0. -1.
         23    2    1    2    0    0  0.18751209898E+02 -0.66192392448E+02 -0.81854603089E+01  0.14302947101E+03  0.12512948145E+03 0.  0.
          5    1    3    3  502    0  0.54500549319E+02 -0.56656734696E+02 -0.44932352998E+02  0.90671394653E+02  0.47000000000E+01 0. -1.
         -5    1    3    3    0  502 -0.35749339421E+02 -0.95356577521E+01  0.36746892689E+02  0.52358076360E+02  0.47000000000E+01 0. -1.
        -11    1    1    2    0    0 -0.18750150535E+01  0.66469534586E+02 -0.20269146437E+03  0.21332028604E+03  0.00000000000E+00 0. -1.
         11    1    1    2    0    0 -0.16876194844E+02 -0.27714213805E+00  0.26414059138E+01  0.17083904278E+02  0.00000000000E+00 0.  1.
<mgrwt>
<rscale>  0 0.13506816E+03</rscale>
<asrwt>0</asrwt>
<pdfrwt beam="2">  1        2 0.44743784E-01 0.14279506E+03</pdfrwt>
<pdfrwt beam="1">  1       -2 0.12707549E-01 0.14279506E+03</pdfrwt>
<totfact> 0.48973064E+03</totfact>
</mgrwt>
</event>
<event>
 7    1  0.6387485E-006  0.1692222E+03  0.7546771E-02  0.1185244E+00
          2   -1    0    0  501    0  0.00000000000E+00  0.00000000000E+00  0.37541794676E+03  0.37541794676E+03  0.00000000000E+00 0. -1.
         -2   -1    0    0    0  501 -0.00000000000E+00 -0.00000000000E+00 -0.67017604058E+02  0.67017604058E+02  0.00000000000E+00 0.  1.
         23    2    1    2    0    0  0.85304307417E+02 -0.75718742807E+02  0.19009355566E+03  0.25450290387E+03  0.12500406113E+03 0.  0.
          5    1    3    3  502    0  0.23291005477E+02  0.31513569878E+02  0.20611986426E+02  0.44525498392E+02  0.47000000000E+01 0. -1.
         -5    1    3    3    0  502  0.62013301940E+02 -0.10723231269E+03  0.16948156923E+03  0.20997740548E+03  0.47000000000E+01 0. -1.
        -11    1    1    2    0    0 -0.60862977011E+02  0.16592520227E+02  0.10513950523E+03  0.12261292452E+03  0.00000000000E+00 0. -1.
         11    1    1    2    0    0 -0.24441330406E+02  0.59126222580E+02  0.13167281815E+02  0.65319722435E+02  0.00000000000E+00 0.  1.
<mgrwt>
<rscale>  0 0.16309740E+03</rscale>
<asrwt>0</asrwt>
<pdfrwt beam="1">  1        2 0.57756606E-01 0.16922224E+03</pdfrwt>
<pdfrwt beam="2">  1       -2 0.10310401E-01 0.16922224E+03</pdfrwt>
<totfact> 0.52548058E+03</totfact>
</mgrwt>
</event>
<event>
 7    1  0.6387485E-006  0.1354327E+03  0.7546771E-02  0.1229508E+00
          2   -1    0    0  501    0  0.00000000000E+00  0.00000000000E+00  0.12659204784E+03  0.12659204784E+03  0.00000000000E+00 0.  1.
         -2   -1    0    0    0  501 -0.00000000000E+00 -0.00000000000E+00 -0.12129526017E+03  0.12129526017E+03  0.00000000000E+00 0. -1.
         23    2    1    2    0    0 -0.51088886167E+02 -0.10316699457E+02 -0.13496852026E+02  0.13610356638E+03  0.12500202874E+03 0.  0.
          5    1    3    3  502    0 -0.90090160691E+01 -0.17707940213E+02 -0.65516628735E+02  0.68623991125E+02  0.47000000000E+01 0. -1.
         -5    1    3    3    0  502 -0.42079870098E+02  0.73912407553E+01  0.52019776709E+02  0.67479575252E+02  0.47000000000E+01 0. -1.
        -11    1    1    2    0    0 -0.15501121111E+01 -0.38421331003E+02  0.61958085016E+01  0.38948550250E+02  0.00000000000E+00 0.  1.
         11    1    1    2    0    0  0.52638998279E+02  0.48738030461E+02  0.12597831189E+02  0.72835191382E+02  0.00000000000E+00 0. -1.
<mgrwt>
<rscale>  0 0.12862658E+03</rscale>
<asrwt>0</asrwt>
<pdfrwt beam="1">  1        2 0.19475700E-01 0.13543270E+03</pdfrwt>
<pdfrwt beam="2">  1       -2 0.18660809E-01 0.13543270E+03</pdfrwt>
<totfact> 0.64337508E+03</totfact>
</mgrwt>
</event>
<event>
 7    1  0.6387485E-006  0.1253729E+03  0.7546771E-02  0.1250136E+00
          1   -1    0    0  501    0  0.00000000000E+00  0.00000000000E+00  0.17226730819E+03  0.17226730819E+03  0.00000000000E+00 0. -1.
         -1   -1    0    0    0  501 -0.00000000000E+00 -0.00000000000E+00 -0.74666236103E+02  0.74666236103E+02  0.00000000000E+00 0.  1.
         23    2    1    2    0    0  0.91855400261E+01 -0.26737107238E+01  0.19766420589E+02  0.12692157845E+03  0.12500741105E+03 0.  0.
          5    1    3    3  502    0  0.65257138211E+02 -0.39000472444E+01 -0.43591275818E+01  0.65687110222E+02  0.47000000000E+01 0.  1.
         -5    1    3    3    0  502 -0.56071598185E+02  0.12263365206E+01  0.24125548171E+02  0.61234468225E+02  0.47000000000E+01 0.  1.
        -11    1    1    2    0    0 -0.29450166950E+02 -0.88863236322E+01 -0.74024083912E+01  0.31639765028E+02  0.00000000000E+00 0.  1.
         11    1    1    2    0    0  0.20264626924E+02  0.11560034356E+02  0.85237059894E+02  0.88372200821E+02  0.00000000000E+00 0. -1.
<mgrwt>
<rscale>  0 0.11583207E+03</rscale>
<asrwt>0</asrwt>
<pdfrwt beam="1">  1        1 0.26502663E-01 0.12537295E+03</pdfrwt>
<pdfrwt beam="2">  1       -1 0.11487113E-01 0.12537295E+03</pdfrwt>
<totfact> 0.81862416E+03</totfact>
</mgrwt>
</event>
<event>
 7    1  0.6387485E-006  0.1324873E+03  0.7546771E-02  0.1235596E+00
         -1   -1    0    0    0  501 -0.00000000000E+00  0.00000000000E+00  0.31815688213E+02  0.31815688213E+02  0.00000000000E+00 0.  1.
          1   -1    0    0  501    0  0.00000000000E+00 -0.00000000000E+00 -0.46856792385E+03  0.46856792385E+03  0.00000000000E+00 0. -1.
         23    2    1    2    0    0  0.54882800244E+02  0.36389892693E+02 -0.18065949129E+03  0.22403288772E+03  0.11496319817E+03 0.  0.
          5    1    3    3  502    0 -0.11207369542E+02  0.59579993576E+02 -0.10066572817E+03  0.11760552536E+03  0.47000000000E+01 0. -1.
         -5    1    3    3    0  502  0.66090169786E+02 -0.23190100883E+02 -0.79993763124E+02  0.10642736237E+03  0.47000000000E+01 0.  1.
        -11    1    1    2    0    0 -0.74150556163E+02 -0.38221270360E+02 -0.19056700276E+03  0.20802632773E+03  0.00000000000E+00 0. -1.
         11    1    1    2    0    0  0.19267755919E+02  0.18313776672E+01 -0.65525741584E+02  0.68324396612E+02  0.00000000000E+00 0.  1.
<mgrwt>
<rscale>  0 0.12466352E+03</rscale>
<asrwt>0</asrwt>
<pdfrwt beam="2">  1        1 0.72087367E-01 0.13248729E+03</pdfrwt>
<pdfrwt beam="1">  1       -1 0.48947217E-02 0.13248729E+03</pdfrwt>
<totfact> 0.85233554E+03</totfact>
</mgrwt>
</event>
<event>
 7    1  0.6387485E-006  0.1292398E+03  0.7546771E-02  0.1242900E+00
         -2   -1    0    0    0  501 -0.00000000000E+00  0.00000000000E+00  0.20262710993E+02  0.20262710993E+02  0.00000000000E+00 0. -1.
          2   -1    0    0  501    0  0.00000000000E+00 -0.00000000000E+00 -0.63160581082E+03  0.63160581082E+03  0.00000000000E+00 0.  1.
         23    2    1    2    0    0 -0.32356848675E+01 -0.32673842018E+02 -0.32689657356E+03  0.35151715043E+03  0.12499955051E+03 0.  0.
          5    1    3    3  502    0 -0.20440822938E+02 -0.68574125749E+02 -0.28354458416E+03  0.29247198015E+03  0.47000000000E+01 0.  1.
         -5    1    3    3    0  502  0.17205138070E+02  0.35900283731E+02 -0.43351989404E+02  0.59045170279E+02  0.47000000000E+01 0.  1.
        -11    1    1    2    0    0 -0.37184428148E+02  0.63080190699E+01 -0.60726801808E+02  0.71485783615E+02  0.00000000000E+00 0.  1.
         11    1    1    2    0    0  0.40420113016E+02  0.26365822948E+02 -0.22371972446E+03  0.22886558778E+03  0.00000000000E+00 0. -1.
<mgrwt>
<rscale>  0 0.12011970E+03</rscale>
<asrwt>0</asrwt>
<pdfrwt beam="2">  1        2 0.97170137E-01 0.12923984E+03</pdfrwt>
<pdfrwt beam="1">  1       -2 0.31173398E-02 0.12923984E+03</pdfrwt>
<totfact> 0.17897496E+04</totfact>
</mgrwt>
</event>
<event>
 7    1  0.6387485E-006  0.3816610E+03  0.7546771E-02  0.1051303E+00
          1   -1    0    0  501    0  0.00000000000E+00  0.00000000000E+00  0.96098933340E+03  0.96098933340E+03  0.00000000000E+00 0. -1.
         -1   -1    0    0    0  501 -0.00000000000E+00 -0.00000000000E+00 -0.53622927242E+03  0.53622927242E+03  0.00000000000E+00 0.  1.
         23    2    1    2    0    0 -0.10240353193E+02  0.36046959622E+03 -0.42423250849E+03  0.57064730099E+03  0.12498770436E+03 0.  0.
          5    1    3    3  502    0  0.12943161436E+02  0.43147961026E+02 -0.68550746297E+01  0.45807794280E+02  0.47000000000E+01 0. -1.
         -5    1    3    3    0  502 -0.23183514628E+02  0.31732163520E+03 -0.41737743386E+03  0.52483950671E+03  0.47000000000E+01 0. -1.
        -11    1    1    2    0    0  0.16247647079E+02 -0.13798041912E+02  0.26674790256E+02  0.34145518467E+02  0.00000000000E+00 0.  1.
         11    1    1    2    0    0 -0.60072938866E+01 -0.34667155431E+03  0.82231777921E+03  0.89242578636E+03  0.00000000000E+00 0. -1.
<mgrwt>
<rscale>  0 0.37900349E+03</rscale>
<asrwt>0</asrwt>
<pdfrwt beam="1">  1        1 0.14784451E+00 0.38166100E+03</pdfrwt>
<pdfrwt beam="2">  1       -1 0.82496811E-01 0.38166100E+03</pdfrwt>
<totfact> 0.25861817E+01</totfact>
</mgrwt>
</event>
<event>
 7    1  0.6387485E-006  0.1437151E+03  0.7546771E-02  0.1218649E+00
         -1   -1    0    0    0  501 -0.00000000000E+00  0.00000000000E+00  0.13883525600E+03  0.13883525600E+03  0.00000000000E+00 0.  1.
          1   -1    0    0  501    0  0.00000000000E+00 -0.00000000000E+00 -0.25508832414E+03  0.25508832414E+03  0.00000000000E+00 0. -1.
         23    2    1    2    0    0  0.24821461515E+02 -0.66441744120E+02  0.81217505211E+02  0.16507669838E+03  0.12499369136E+03 0.  0.
          5    1    3    3  502    0  0.99401215902E+01  0.36871000493E+02  0.29559249062E+02  0.48519232266E+02  0.47000000000E+01 0. -1.
         -5    1    3    3    0  502  0.14881339925E+02 -0.10331274461E+03  0.51658256149E+02  0.11655746611E+03  0.47000000000E+01 0. -1.
        -11    1    1    2    0    0 -0.12594531371E+02  0.34126748597E+02 -0.93217578138E+01  0.37551995407E+02  0.00000000000E+00 0.  1.
         11    1    1    2    0    0 -0.12226930144E+02  0.32314995522E+02 -0.18814881554E+03  0.19129488636E+03  0.00000000000E+00 0. -1.
<mgrwt>
<rscale>  0 0.13611898E+03</rscale>
<asrwt>0</asrwt>
<pdfrwt beam="2">  1        1 0.39244357E-01 0.14371511E+03</pdfrwt>
<pdfrwt beam="1">  1       -1 0.21359270E-01 0.14371511E+03</pdfrwt>
<totfact> 0.19090774E+03</totfact>
</mgrwt>
</event>
<event>
 7    1  0.6387485E-006  0.1342516E+03  0.7546771E-02  0.1236247E+00
          2   -1    0    0  501    0  0.00000000000E+00  0.00000000000E+00  0.52926403444E+02  0.52926403444E+02  0.00000000000E+00 0. -1.
         -2   -1    0    0    0  501 -0.00000000000E+00 -0.00000000000E+00 -0.27893855845E+03  0.27893855845E+03  0.00000000000E+00 0.  1.
         23    2    1    2    0    0  0.44407974974E+02  0.21044475169E+02 -0.17612177469E+03  0.22145513374E+03  0.12493421695E+03 0.  0.
          5    1    3    3  502    0 -0.35659377557E+02 -0.16284487041E+02 -0.88655802638E+02  0.97050075051E+02  0.47000000000E+01 0.  1.
         -5    1    3    3    0  502  0.80067352531E+02  0.37328962210E+02 -0.87465972051E+02  0.12440505869E+03  0.47000000000E+01 0.  1.
        -11    1    1    2    0    0 -0.14371403455E+02  0.13992752231E+02 -0.59915364236E+02  0.63183741768E+02  0.00000000000E+00 0.  1.
         11    1    1    2    0    0 -0.30036571518E+02 -0.35037227400E+02  0.10024983921E+02  0.47226086383E+02  0.00000000000E+00 0. -1.
<mgrwt>
<rscale>  0 0.12424911E+03</rscale>
<asrwt>0</asrwt>
<pdfrwt beam="1">  1        2 0.81425235E-02 0.13425162E+03</pdfrwt>
<pdfrwt beam="2">  1       -2 0.42913625E-01 0.13425162E+03</pdfrwt>
<totfact> 0.41176208E+03</totfact>
</mgrwt>
</event>
<event>
 7    1  0.6387485E-006  0.1252682E+03  0.7546771E-02  0.1250462E+00
          3   -1    0    0  501    0  0.00000000000E+00  0.00000000000E+00  0.10961896026E+03  0.10961896026E+03  0.00000000000E+00 0. -1.
         -3   -1    0    0    0  501 -0.00000000000E+00 -0.00000000000E+00 -0.10938428385E+03  0.10938428385E+03  0.00000000000E+00 0.  1.
         23    2    1    2    0    0 -0.59983074632E+01  0.54849281096E+01 -0.16956375203E+02  0.12641057478E+03  0.12500420243E+03 0.  0.
          5    1    3    3  502    0  0.49748182462E+02  0.18595431582E+02  0.21262622170E+02  0.57400878352E+02  0.47000000000E+01 0. -1.
         -5    1    3    3    0  502 -0.55746489926E+02 -0.13110503472E+02 -0.38218997373E+02  0.69009696424E+02  0.47000000000E+01 0. -1.
        -11    1    1    2    0    0 -0.35163415641E+02 -0.14049171291E+01 -0.16855036922E+02  0.39019634305E+02  0.00000000000E+00 0.  1.
         11    1    1    2    0    0  0.41161723104E+02 -0.40800109804E+01  0.34046088531E+02  0.53573035034E+02  0.00000000000E+00 0. -1.
<mgrwt>
<rscale>  0 0.11564327E+03</rscale>
<asrwt>0</asrwt>
<pdfrwt beam="1">  1        3 0.16864455E-01 0.12526817E+03</pdfrwt>
<pdfrwt beam="2">  1       -3 0.16828351E-01 0.12526817E+03</pdfrwt>
<totfact> 0.20808642E+03</totfact>
</mgrwt>
</event>
<event>
 7    1  0.6387485E-006  0.1955501E+03  0.7546771E-02  0.1157661E+00
          1   -1    0    0  501    0  0.00000000000E+00  0.00000000000E+00  0.13570281864E+03  0.13570281864E+03  0.00000000000E+00 0. -1.
         -1   -1    0    0    0  501 -0.00000000000E+00 -0.00000000000E+00 -0.28077356170E+03  0.28077356170E+03  0.00000000000E+00 0.  1.
         23    2    1    2    0    0  0.44447732917E+02 -0.14366123240E+03 -0.13692495783E+03  0.23872223250E+03  0.12500283820E+03 0.  0.
          5    1    3    3  502    0 -0.29412668507E+02  0.14821745693E+01 -0.77764952142E+01  0.30819892732E+02  0.47000000000E+01 0. -1.
         -5    1    3    3    0  502  0.73860401424E+02 -0.14514340697E+03 -0.12914846262E+03  0.20790233977E+03  0.47000000000E+01 0. -1.
        -11    1    1    2    0    0  0.17109415684E+02  0.10140392731E+03 -0.23531244554E+01  0.10286411315E+03  0.00000000000E+00 0. -1.
         11    1    1    2    0    0 -0.61557148601E+02  0.42257305084E+02 -0.57926607788E+01  0.74890034689E+02  0.00000000000E+00 0.  1.
<mgrwt>
<rscale>  0 0.19089055E+03</rscale>
<asrwt>0</asrwt>
<pdfrwt beam="1">  1        1 0.20877357E-01 0.19555015E+03</pdfrwt>
<pdfrwt beam="2">  1       -1 0.43195932E-01 0.19555015E+03</pdfrwt>
<totfact> 0.12888510E+03</totfact>
</mgrwt>
</event>
<event>
 7    1  0.6387485E-006  0.1511691E+03  0.7546771E-02  0.1207955E+00
          1   -1    0    0  501    0  0.00000000000E+00  0.00000000000E+00  0.55288180037E+03  0.55288180037E+03  0.00000000000E+00 0. -1.
         -1   -1    0    0    0  501 -0.00000000000E+00 -0.00000000000E+00 -0.34440026258E+02  0.34440026258E+02  0.00000000000E+00 0.  1.
         23    2    1    2    0    0  0.13489131514E+01  0.84995937721E+02  0.27615828434E+03  0.31482615695E+03  0.12500392830E+03 0.  0.
          5    1    3    3  502    0  0.29944009519E+02  0.10773690804E+03  0.18125110515E+03  0.21302098061E+03  0.47000000000E+01 0. -1.
         -5    1    3    3    0  502 -0.28595096367E+02 -0.22740970319E+02  0.94907179193E+02  0.10180517634E+03  0.47000000000E+01 0. -1.
        -11    1    1    2    0    0 -0.44950952522E+02 -0.55851395297E+02  0.15261922418E+03  0.16861967287E+03  0.00000000000E+00 0.  1.
         11    1    1    2    0    0  0.43602039371E+02 -0.29144542423E+02  0.89664265592E+02  0.10387599682E+03  0.00000000000E+00 0. -1.
<mgrwt>
<rscale>  0 0.14406973E+03</rscale>
<asrwt>0</asrwt>
<pdfrwt beam="1">  1        1 0.85058732E-01 0.15116915E+03</pdfrwt>
<pdfrwt beam="2">  1       -1 0.52984660E-02 0.15116915E+03</pdfrwt>
<totfact> 0.61489579E+03</totfact>
</mgrwt>
</event>
<event>
 7    1  0.6387485E-006  0.1344455E+03  0.7546771E-02  0.1233603E+00
          1   -1    0    0  501    0  0.00000000000E+00  0.00000000000E+00  0.25920444172E+03  0.25920444172E+03  0.00000000000E+00 0. -1.
         -1   -1    0    0    0  501 -0.00000000000E+00 -0.00000000000E+00 -0.78935418660E+02  0.78935418660E+02  0.00000000000E+00 0.  1.
         23    2    1    2    0    0  0.82489234753E+01 -0.48823792397E+02  0.49509483153E+01  0.13453663284E+03  0.12499514488E+03 0.  0.
          5    1    3    3  502    0  0.58650372616E+02 -0.54144721066E+02  0.18065123017E+02  0.81975335906E+02  0.47000000000E+01 0. -1.
         -5    1    3    3    0  502 -0.50401449141E+02  0.53209286692E+01 -0.13114174702E+02  0.52561296935E+02  0.47000000000E+01 0. -1.
        -11    1    1    2    0    0 -0.41616067929E+02  0.29817036442E+02  0.46421108089E+02  0.69107684437E+02  0.00000000000E+00 0.  1.
         11    1    1    2    0    0  0.33367144454E+02  0.19006755955E+02  0.12889696665E+03  0.13449554310E+03  0.00000000000E+00 0. -1.
<mgrwt>
<rscale>  0 0.12594275E+03</rscale>
<asrwt>0</asrwt>
<pdfrwt beam="1">  1        1 0.39877606E-01 0.13444550E+03</pdfrwt>
<pdfrwt beam="2">  1       -1 0.12143911E-01 0.13444550E+03</pdfrwt>
<totfact> 0.45492148E+03</totfact>
</mgrwt>
</event>
<event>
 7    1  0.6387485E-006  0.1359664E+03  0.7546771E-02  0.1232656E+00
          3   -1    0    0  501    0  0.00000000000E+00  0.00000000000E+00  0.13780907235E+02  0.13780907235E+02  0.00000000000E+00 0. -1.
         -3   -1    0    0    0  501 -0.00000000000E+00 -0.00000000000E+00 -0.10820326394E+04  0.10820326394E+04  0.00000000000E+00 0.  1.
         23    2    1    2    0    0 -0.35617486862E+02 -0.40049158928E+02 -0.72788396760E+03  0.74047411924E+03  0.12495723454E+03 0.  0.
          5    1    3    3  502    0  0.31489431124E+02 -0.33331235513E+02 -0.51626074242E+03  0.51831438307E+03  0.47000000000E+01 0.  1.
         -5    1    3    3    0  502 -0.67106917986E+02 -0.67179234146E+01 -0.21162322519E+03  0.22215973617E+03  0.47000000000E+01 0.  1.
        -11    1    1    2    0    0  0.63759202168E+02  0.28373441801E+02 -0.20390827499E+03  0.21552000526E+03  0.00000000000E+00 0. -1.
         11    1    1    2    0    0 -0.28141715306E+02  0.11675717127E+02 -0.13645948957E+03  0.13981942213E+03  0.00000000000E+00 0.  1.
<mgrwt>
<rscale>  0 0.12655685E+03</rscale>
<asrwt>0</asrwt>
<pdfrwt beam="1">  1        3 0.21201399E-02 0.13596636E+03</pdfrwt>
<pdfrwt beam="2">  1       -3 0.16646654E+00 0.13596636E+03</pdfrwt>
<totfact> 0.53232293E+02</totfact>
</mgrwt>
</event>
<event>
 7    1  0.6387485E-006  0.1406633E+03  0.7546771E-02  0.1223721E+00
         -2   -1    0    0    0  501 -0.00000000000E+00  0.00000000000E+00  0.72113083676E+02  0.72113083676E+02  0.00000000000E+00 0.  1.
          2   -1    0    0  501    0  0.00000000000E+00 -0.00000000000E+00 -0.22716400469E+03  0.22716400469E+03  0.00000000000E+00 0. -1.
         23    2    1    2    0    0  0.57082307914E+02 -0.30042953565E+02 -0.58923319867E+02  0.15250615697E+03  0.12500080541E+03 0.  0.
          5    1    3    3  502    0  0.37372425183E+02 -0.74922577851E+02 -0.12413289023E+02  0.84771873757E+02  0.47000000000E+01 0.  1.
         -5    1    3    3    0  502  0.19709882732E+02  0.44879624286E+02 -0.46510030844E+02  0.67734283213E+02  0.47000000000E+01 0.  1.
        -11    1    1    2    0    0 -0.65182612707E+02  0.18838212818E+02 -0.21944925075E+02  0.71310805619E+02  0.00000000000E+00 0.  1.
         11    1    1    2    0    0  0.81003047926E+01  0.11204740747E+02 -0.74182676075E+02  0.75460125779E+02  0.00000000000E+00 0. -1.
<mgrwt>
<rscale>  0 0.13254979E+03</rscale>
<asrwt>0</asrwt>
<pdfrwt beam="2">  1        2 0.34948308E-01 0.14066332E+03</pdfrwt>
<pdfrwt beam="1">  1       -2 0.11094321E-01 0.14066332E+03</pdfrwt>
<totfact> 0.79077118E+03</totfact>
</mgrwt>
</event>
<event>
 7    1  0.6387485E-006  0.2161761E+03  0.7546771E-02  0.1140269E+00
         -1   -1    0    0    0  501 -0.00000000000E+00  0.00000000000E+00  0.49396133154E+03  0.49396133154E+03  0.00000000000E+00 0.  1.
          1   -1    0    0  501    0  0.00000000000E+00 -0.00000000000E+00 -0.10665709726E+03  0.10665709726E+03  0.00000000000E+00 0. -1.
         23    2    1    2    0    0  0.17595380940E+03 -0.12097568525E+02  0.32891997503E+03  0.39359938179E+03  0.12500411658E+03 0.  0.
          5    1    3    3  502    0  0.13318780918E+03 -0.51266071031E+02  0.29101488784E+03  0.32415884609E+03  0.47000000000E+01 0. -1.
         -5    1    3    3    0  502  0.42766000218E+02  0.39168502507E+02  0.37905087195E+02  0.69440535701E+02  0.47000000000E+01 0. -1.
        -11    1    1    2    0    0 -0.10528519536E+03 -0.35578910789E+02  0.17604845494E+02  0.11252005084E+03  0.00000000000E+00 0. -1.
         11    1    1    2    0    0 -0.70668614041E+02  0.47676479314E+02  0.40779413754E+02  0.94498996166E+02  0.00000000000E+00 0.  1.
<mgrwt>
<rscale>  0 0.21164556E+03</rscale>
<asrwt>0</asrwt>
<pdfrwt beam="2">  1        1 0.16408785E-01 0.21617614E+03</pdfrwt>
<pdfrwt beam="1">  1       -1 0.75994050E-01 0.21617614E+03</pdfrwt>
<totfact> 0.60096728E+02</totfact>
</mgrwt>
</event>
<event>
 7    1  0.6387485E-006  0.1304214E+03  0.7546771E-02  0.1240434E+00
         -1   -1    0    0    0  501 -0.00000000000E+00  0.00000000000E+00  0.62429544055E+02  0.62429544055E+02  0.00000000000E+00 0.  1.
          1   -1    0    0  501    0  0.00000000000E+00 -0.00000000000E+00 -0.21463143828E+03  0.21463143828E+03  0.00000000000E+00 0. -1.
         23    2    1    2    0    0  0.23945307009E+02  0.28474334578E+02 -0.66567280530E+02  0.14642728393E+03  0.12500232472E+03 0.  0.
          5    1    3    3  502    0  0.55523278066E+02  0.48730285643E+02 -0.50199799867E+01  0.74194105865E+02  0.47000000000E+01 0.  1.
         -5    1    3    3    0  502 -0.31577971058E+02 -0.20255951066E+02 -0.61547300543E+02  0.72233178068E+02  0.47000000000E+01 0.  1.
        -11    1    1    2    0    0 -0.14331117050E+01 -0.14153789619E+02  0.18385238709E+02  0.23246517419E+02  0.00000000000E+00 0.  1.
         11    1    1    2    0    0 -0.22512195304E+02 -0.14320544959E+02 -0.10401985241E+03  0.10738718099E+03  0.00000000000E+00 0. -1.
<mgrwt>
<rscale>  0 0.12162876E+03</rscale>
<asrwt>0</asrwt>
<pdfrwt beam="2">  1        1 0.33020222E-01 0.13042142E+03</pdfrwt>
<pdfrwt beam="1">  1       -1 0.96045452E-02 0.13042142E+03</pdfrwt>
<totfact> 0.82134944E+03</totfact>
</mgrwt>
</event>
<event>
 7    1  0.6387485E-006  0.2784511E+03  0.7546771E-02  0.1098367E+00
         -2   -1    0    0    0  501 -0.00000000000E+00  0.00000000000E+00  0.21306367928E+03  0.21306367928E+03  0.00000000000E+00 0.  1.
          2   -1    0    0  501    0  0.00000000000E+00 -0.00000000000E+00 -0.38145017150E+03  0.38145017150E+03  0.00000000000E+00 0. -1.
         23    2    1    2    0    0 -0.14316373603E+03  0.20350514322E+03  0.30897674064E+01  0.27846825219E+03  0.12499928871E+03 0.  0.
          5    1    3    3  502    0  0.10622046370E+02 -0.57292077973E+01 -0.12877894081E+02  0.18264223143E+02  0.47000000000E+01 0.  1.
         -5    1    3    3    0  502 -0.15378578240E+03  0.20923435102E+03  0.15967661487E+02  0.26020402904E+03  0.47000000000E+01 0.  1.
        -11    1    1    2    0    0  0.37121070250E+02 -0.83679864311E+02 -0.15983698078E+02  0.92928855324E+02  0.00000000000E+00 0.  1.
         11    1    1    2    0    0  0.10604266578E+03 -0.11982527891E+03 -0.15549256155E+03  0.22311674327E+03  0.00000000000E+00 0. -1.
<mgrwt>
<rscale>  0 0.27515062E+03</rscale>
<asrwt>0</asrwt>
<pdfrwt beam="2">  1        2 0.58684641E-01 0.27845111E+03</pdfrwt>
<pdfrwt beam="1">  1       -2 0.32779028E-01 0.27845111E+03</pdfrwt>
<totfact> 0.73263075E+02</totfact>
</mgrwt>
</event>
<event>
 7    1  0.6387485E-006  0.1263334E+03  0.7546771E-02  0.1248063E+00
         -2   -1    0    0    0  501 -0.00000000000E+00  0.00000000000E+00  0.47649786210E+02  0.47649786210E+02  0.00000000000E+00 0.  1.
          2   -1    0    0  501    0  0.00000000000E+00 -0.00000000000E+00 -0.25850458224E+03  0.25850458224E+03  0.00000000000E+00 0. -1.
         23    2    1    2    0    0  0.13591607273E+01  0.18255048458E+02 -0.98059552316E+02  0.15992437453E+03  0.12500014263E+03 0.  0.
          5    1    3    3  502    0  0.20966244550E+02  0.61714099355E+02 -0.90187299093E+02  0.11137348153E+03  0.47000000000E+01 0.  1.
         -5    1    3    3    0  502 -0.19607083822E+02 -0.43459050898E+02 -0.78722532233E+01  0.48550893007E+02  0.47000000000E+01 0.  1.
        -11    1    1    2    0    0  0.33153370111E+02 -0.38447615162E+02 -0.46696037184E+02  0.68977423481E+02  0.00000000000E+00 0.  1.
         11    1    1    2    0    0 -0.34512530838E+02  0.20192566705E+02 -0.66099206534E+02  0.77252570439E+02  0.00000000000E+00 0. -1.
<mgrwt>
<rscale>  0 0.11703915E+03</rscale>
<asrwt>0</asrwt>
<pdfrwt beam="2">  1        2 0.39769936E-01 0.12633341E+03</pdfrwt>
<pdfrwt beam="1">  1       -2 0.73307364E-02 0.12633341E+03</pdfrwt>
<totfact> 0.13030545E+04</totfact>
</mgrwt>
</event>
<event>
 7    1  0.6387485E-006  0.2924343E+03  0.7546771E-02  0.1090760E+00
          1   -1    0    0  501    0  0.00000000000E+00  0.00000000000E+00  0.13403943185E+04  0.13403943185E+04  0.00000000000E+00 0. -1.
         -1   -1    0    0    0  501 -0.00000000000E+00 -0.00000000000E+00 -0.98072272738E+02  0.98072272738E+02  0.00000000000E+00 0.  1.
         23    2    1    2    0    0  0.24794950919E+03 -0.91726831417E+02  0.18798802157E+03  0.34764542771E+03  0.12500030579E+03 0.  0.
          5    1    3    3  502    0  0.17534980990E+03 -0.59552612638E+02  0.19353593008E+03  0.26790355678E+03  0.47000000000E+01 0.  1.
         -5    1    3    3    0  502  0.72599699292E+02 -0.32174218780E+02 -0.55479085117E+01  0.79741870935E+02  0.47000000000E+01 0.  1.
        -11    1    1    2    0    0 -0.19701487849E+03  0.10428929044E+03  0.76696991161E+03  0.79870768355E+03  0.00000000000E+00 0.  1.
         11    1    1    2    0    0 -0.50934630703E+02 -0.12562459027E+02  0.28736411255E+03  0.29211347994E+03  0.00000000000E+00 0. -1.
<mgrwt>
<rscale>  0 0.28921519E+03</rscale>
<asrwt>0</asrwt>
<pdfrwt beam="1">  1        1 0.20621450E+00 0.29243435E+03</pdfrwt>
<pdfrwt beam="2">  1       -1 0.15088043E-01 0.29243435E+03</pdfrwt>
<totfact> 0.29227292E+02</totfact>
</mgrwt>
</event>
<event>
 7    1  0.6387485E-006  0.2256469E+03  0.7546771E-02  0.1132822E+00
          1   -1    0    0  501    0  0.00000000000E+00  0.00000000000E+00  0.10370619667E+03  0.10370619667E+03  0.00000000000E+00 0. -1.
         -1   -1    0    0    0  501 -0.00000000000E+00 -0.00000000000E+00 -0.46420623503E+03  0.46420623503E+03  0.00000000000E+00 0.  1.
         23    2    1    2    0    0  0.15313338884E+03  0.10882009632E+03 -0.22482184317E+03  0.31853004892E+03  0.12499953102E+03 0.  0.
          5    1    3    3  502    0  0.74118526543E+02  0.10968680076E+03 -0.83610140461E+02  0.15664448865E+03  0.47000000000E+01 0.  1.
         -5    1    3    3    0  502  0.79014862298E+02 -0.86670443576E+00 -0.14121170271E+03  0.16188556026E+03  0.47000000000E+01 0.  1.
        -11    1    1    2    0    0 -0.13157201907E+03 -0.73857861095E+02 -0.58259503194E+02  0.16174161357E+03  0.00000000000E+00 0. -1.
         11    1    1    2    0    0 -0.21561369770E+02 -0.34962235225E+02 -0.77418691992E+02  0.87640769212E+02  0.00000000000E+00 0.  1.
<mgrwt>
<rscale>  0 0.22142938E+03</rscale>
<asrwt>0</asrwt>
<pdfrwt beam="1">  1        1 0.15954800E-01 0.22564692E+03</pdfrwt>
<pdfrwt beam="2">  1       -1 0.71416344E-01 0.22564692E+03</pdfrwt>
<totfact> 0.70706483E+02</totfact>
</mgrwt>
</event>
<event>
 7    1  0.6387485E-006  0.1431354E+03  0.7546771E-02  0.1222735E+00
         -2   -1    0    0    0  501 -0.00000000000E+00  0.00000000000E+00  0.16417503976E+03  0.16417503976E+03  0.00000000000E+00 0.  1.
          2   -1    0    0  501    0  0.00000000000E+00 -0.00000000000E+00 -0.10416938283E+03  0.10416938283E+03  0.00000000000E+00 0. -1.
         23    2    1    2    0    0 -0.44634532834E+02 -0.53583019318E+02  0.72000616142E+02  0.16022433398E+03  0.12499746795E+03 0.  0.
          5    1    3    3  502    0 -0.49164568579E+02  0.12336707790E+02  0.78609801314E+02  0.93653296927E+02  0.47000000000E+01 0. -1.
         -5    1    3    3    0  502  0.45300357449E+01 -0.65919727107E+02 -0.66091851721E+01  0.66571037054E+02  0.47000000000E+01 0. -1.
        -11    1    1    2    0    0  0.55694348061E+02  0.56686723202E+02 -0.31499973100E+02  0.85483877419E+02  0.00000000000E+00 0. -1.
         11    1    1    2    0    0 -0.11059815227E+02 -0.31037038840E+01  0.19505013887E+02  0.22636211198E+02  0.00000000000E+00 0.  1.
<mgrwt>
<rscale>  0 0.13323387E+03</rscale>
<asrwt>0</asrwt>
<pdfrwt beam="2">  1        2 0.16026059E-01 0.14313542E+03</pdfrwt>
<pdfrwt beam="1">  1       -2 0.25257699E-01 0.14313542E+03</pdfrwt>
<totfact> 0.48100577E+03</totfact>
</mgrwt>
</event>
<event>
 7    1  0.6387485E-006  0.2302714E+03  0.7546771E-02  0.1129413E+00
         -2   -1    0    0    0  501 -0.00000000000E+00  0.00000000000E+00  0.34515605922E+02  0.34515605922E+02  0.00000000000E+00 0.  1.
          2   -1    0    0  501    0  0.00000000000E+00 -0.00000000000E+00 -0.14713116481E+04  0.14713116481E+04  0.00000000000E+00 0. -1.
         23    2    1    2    0    0 -0.13190553997E+03 -0.14142732736E+03 -0.61766787606E+03  0.65919537202E+03  0.12499669191E+03 0.  0.
          5    1    3    3  502    0 -0.14613005846E+03 -0.14700624124E+03 -0.60243274217E+03  0.63711233529E+03  0.47000000000E+01 0.  1.
         -5    1    3    3    0  502  0.14224518498E+02  0.55789138790E+01 -0.15235133892E+02  0.22083036732E+02  0.47000000000E+01 0.  1.
        -11    1    1    2    0    0 -0.83310671078E+01  0.20357892219E+02 -0.38699623595E+02  0.44514169891E+02  0.00000000000E+00 0.  1.
         11    1    1    2    0    0  0.14023660707E+03  0.12106943514E+03 -0.78042854256E+03  0.80211771214E+03  0.00000000000E+00 0. -1.
<mgrwt>
<rscale>  0 0.22610258E+03</rscale>
<asrwt>0</asrwt>
<pdfrwt beam="2">  1        2 0.22635563E+00 0.23027143E+03</pdfrwt>
<pdfrwt beam="1">  1       -2 0.53100935E-02 0.23027143E+03</pdfrwt>
<totfact> 0.25246095E+03</totfact>
</mgrwt>
</event>
<event>
 7    1  0.6387485E-006  0.1638775E+03  0.7546771E-02  0.1191467E+00
         -2   -1    0    0    0  501 -0.00000000000E+00  0.00000000000E+00  0.18697364778E+03  0.18697364778E+03  0.00000000000E+00 0. -1.
          2   -1    0    0  501    0  0.00000000000E+00 -0.00000000000E+00 -0.12513829379E+03  0.12513829379E+03  0.00000000000E+00 0.  1.
         23    2    1    2    0    0 -0.87799030888E+02 -0.59348714415E+02  0.50977411356E+02  0.17162326166E+03  0.12499963098E+03 0.  0.
          5    1    3    3  502    0 -0.18951115367E+02  0.17692400946E+02  0.62235936353E+02  0.67583782068E+02  0.47000000000E+01 0. -1.
         -5    1    3    3    0  502 -0.68847915521E+02 -0.77041115361E+02 -0.11258524997E+02  0.10403947959E+03  0.47000000000E+01 0. -1.
        -11    1    1    2    0    0  0.71272284711E+02  0.51438945711E+02 -0.32268132456E+02  0.93631918041E+02  0.00000000000E+00 0.  1.
         11    1    1    2    0    0  0.16526746177E+02  0.79097687043E+01  0.43126075097E+02  0.46856761875E+02  0.00000000000E+00 0. -1.
<mgrwt>
<rscale>  0 0.15757041E+03</rscale>
<asrwt>0</asrwt>
<pdfrwt beam="2">  1        2 0.19252045E-01 0.16387754E+03</pdfrwt>
<pdfrwt beam="1">  1       -2 0.28765177E-01 0.16387754E+03</pdfrwt>
<totfact> 0.31164037E+03</totfact>
</mgrwt>
</event>
<event>
 6    1  0.6387485E-006  0.1417372E+03  0.7546771E-02  0.1229243E+00
         -1   -1    0    0    0  501 -0.00000000000E+00  0.00000000000E+00  0.22229674614E+03  0.22229674614E+03  0.00000000000E+00 0.  1.
          1   -1    0    0  501    0  0.00000000000E+00 -0.00000000000E+00 -0.99438536856E+02  0.99438536856E+02  0.00000000000E+00 0. -1.
          5    1    1    2  502    0 -0.63864478891E+02  0.49912801891E+02  0.12444655517E+03  0.14859002170E+03  0.47000000000E+01 0. -1.
         -5    1    1    2    0  502  0.29850060531E+02 -0.46562914383E+02  0.39486048347E+02  0.68120254871E+02  0.47000000000E+01 0.  1.
        -11    1    1    2    0    0 -0.14828775772E+02 -0.16166421995E+02 -0.49208884064E+02  0.53877268507E+02  0.00000000000E+00 0. -1.
         11    1    1    2    0    0  0.48843194131E+02  0.12816534487E+02  0.81344898349E+01  0.51147737917E+02  0.00000000000E+00 0.  1.
<mgrwt>
<rscale>  0 0.12880260E+03</rscale>
<asrwt>0</asrwt>
<pdfrwt beam="2">  1        1 0.15298236E-01 0.14173724E+03</pdfrwt>
<pdfrwt beam="1">  1       -1 0.34199499E-01 0.14173724E+03</pdfrwt>
<totfact> 0.28623461E+03</totfact>
</mgrwt>
</event>
<event>
 7    1  0.6387485E-006  0.1881744E+03  0.7546771E-02  0.1165214E+00
          1   -1    0    0  501    0  0.00000000000E+00  0.00000000000E+00  0.32374474829E+03  0.32374474829E+03  0.00000000000E+00 0. -1.
         -1   -1    0    0    0  501 -0.00000000000E+00 -0.00000000000E+00 -0.13383341464E+03  0.13383341464E+03  0.00000000000E+00 0.  1.
         23    2    1    2    0    0 -0.27147244826E+02 -0.13801420677E+03 -0.19965332472E+02  0.18923062946E+03  0.12499888980E+03 0.  0.
          5    1    3    3  502    0 -0.43502569803E+02  0.51000844429E+01 -0.46965817305E+01  0.44301606299E+02  0.47000000000E+01 0. -1.
         -5    1    3    3    0  502  0.16355324976E+02 -0.14311429121E+03 -0.15268750741E+02  0.14492902316E+03  0.47000000000E+01 0. -1.
        -11    1    1    2    0    0 -0.21411740929E+01  0.95079249183E+02  0.19042619727E+03  0.21285390497E+03  0.00000000000E+00 0. -1.
         11    1    1    2    0    0  0.29288418919E+02  0.42934957589E+02  0.19450468848E+02  0.55493628502E+02  0.00000000000E+00 0.  1.
<mgrwt>
<rscale>  0 0.18270139E+03</rscale>
<asrwt>0</asrwt>
<pdfrwt beam="1">  1        1 0.49806884E-01 0.18817443E+03</pdfrwt>
<pdfrwt beam="2">  1       -1 0.20589756E-01 0.18817443E+03</pdfrwt>
<totfact> 0.15169847E+03</totfact>
</mgrwt>
</event>
<event>
 7    1  0.6387485E-006  0.2367738E+03  0.7546771E-02  0.1123684E+00
         -2   -1    0    0    0  501 -0.00000000000E+00  0.00000000000E+00  0.78855888192E+02  0.78855888192E+02  0.00000000000E+00 0.  1.
          2   -1    0    0  501    0  0.00000000000E+00 -0.00000000000E+00 -0.71200174365E+03  0.71200174365E+03  0.00000000000E+00 0. -1.
         23    2    1    2    0    0  0.15366702083E+03  0.13775531902E+03 -0.40500793698E+03  0.46914097449E+03  0.11606784103E+03 0.  0.
          5    1    3    3  502    0  0.21709458532E+02  0.44389289225E+02 -0.21008056007E+03  0.21586486817E+03  0.47000000000E+01 0. -1.
         -5    1    3    3    0  502  0.13195756230E+03  0.93366029796E+02 -0.19492737690E+03  0.25327610632E+03  0.47000000000E+01 0.  1.
        -11    1    1    2    0    0 -0.16560655178E+03 -0.12313102558E+03 -0.19698163743E+03  0.28528677666E+03  0.00000000000E+00 0. -1.
         11    1    1    2    0    0  0.11939530951E+02 -0.14624293440E+02 -0.31156281049E+02  0.36429880686E+02  0.00000000000E+00 0.  1.
<mgrwt>
<rscale>  0 0.23424932E+03</rscale>
<asrwt>0</asrwt>
<pdfrwt beam="2">  1        2 0.10953873E+00 0.23677378E+03</pdfrwt>
<pdfrwt beam="1">  1       -2 0.12131675E-01 0.23677378E+03</pdfrwt>
<totfact> 0.19888956E+03</totfact>
</mgrwt>
</event>
<event>
 6    1  0.6387485E-006  0.1666563E+03  0.7546771E-02  0.1192630E+00
         -1   -1    0    0    0  501 -0.00000000000E+00  0.00000000000E+00  0.13083435356E+03  0.13083435356E+03  0.00000000000E+00 0.  1.
          1   -1    0    0  501    0  0.00000000000E+00 -0.00000000000E+00 -0.19961190217E+03  0.19961190217E+03  0.00000000000E+00 0. -1.
          5    1    1    2  502    0  0.31491741883E+02  0.53236054222E+02 -0.46660910872E+02  0.77621761635E+02  0.47000000000E+01 0. -1.
         -5    1    1    2    0  502  0.51135699986E+02 -0.14474151298E+02  0.74053317665E+02  0.91270722173E+02  0.47000000000E+01 0.  1.
        -11    1    1    2    0    0 -0.57755405090E+02 -0.69390269317E+02 -0.69424361646E+02  0.11388783202E+03  0.00000000000E+00 0.  1.
         11    1    1    2    0    0 -0.24872036779E+02  0.30628366393E+02 -0.26745593749E+02  0.47665939899E+02  0.00000000000E+00 0. -1.
<mgrwt>
<rscale>  0 0.15656490E+03</rscale>
<asrwt>0</asrwt>
<pdfrwt beam="2">  1        1 0.30709523E-01 0.16665631E+03</pdfrwt>
<pdfrwt beam="1">  1       -1 0.20128362E-01 0.16665631E+03</pdfrwt>
<totfact> 0.28667628E+03</totfact>
</mgrwt>
</event>
<event>
 7    1  0.6387485E-006  0.1326450E+03  0.7546771E-02  0.1236541E+00
          2   -1    0    0  501    0  0.00000000000E+00  0.00000000000E+00  0.23357730123E+03  0.23357730123E+03  0.00000000000E+00 0. -1.
         -2   -1    0    0    0  501 -0.00000000000E+00 -0.00000000000E+00 -0.63317832405E+02  0.63317832405E+02  0.00000000000E+00 0.  1.
         23    2    1    2    0    0  0.14587280073E+02  0.41936850232E+02  0.55785705320E+02  0.14389836977E+03  0.12499283083E+03 0.  0.
          5    1    3    3  502    0 -0.12718309613E+02 -0.15932289156E+02 -0.30122874603E+02  0.36675207041E+02  0.47000000000E+01 0.  1.
         -5    1    3    3    0  502  0.27305589686E+02  0.57869139388E+02  0.85908579923E+02  0.10722316273E+03  0.47000000000E+01 0.  1.
        -11    1    1    2    0    0  0.97311362578E+01  0.17942837946E+02  0.73945731766E+02  0.76711222731E+02  0.00000000000E+00 0. -1.
         11    1    1    2    0    0 -0.24318416330E+02 -0.59879688178E+02  0.40528031738E+02  0.76285541131E+02  0.00000000000E+00 0.  1.
<mgrwt>
<rscale>  0 0.12406311E+03</rscale>
<asrwt>0</asrwt>
<pdfrwt beam="1">  1        2 0.35934969E-01 0.13264500E+03</pdfrwt>
<pdfrwt beam="2">  1       -2 0.97412051E-02 0.13264500E+03</pdfrwt>
<totfact> 0.93830814E+03</totfact>
</mgrwt>
</event>
<event>
 7    1  0.6387485E-006  0.1279309E+03  0.7546771E-02  0.1243942E+00
          1   -1    0    0  501    0  0.00000000000E+00  0.00000000000E+00  0.12389284943E+03  0.12389284943E+03  0.00000000000E+00 0. -1.
         -1   -1    0    0    0  501 -0.00000000000E+00 -0.00000000000E+00 -0.10342930334E+03  0.10342930334E+03  0.00000000000E+00 0.  1.
         23    2    1    2    0    0 -0.25566275065E+02  0.91967321424E+01  0.22723138991E+02  0.12993324014E+03  0.12501236556E+03 0.  0.
          5    1    3    3  502    0 -0.67109529235E+02  0.32911139353E+02 -0.38864275060E+01  0.74993508562E+02  0.47000000000E+01 0. -1.
         -5    1    3    3    0  502  0.41543254170E+02 -0.23714407211E+02  0.26609566497E+02  0.54939731575E+02  0.47000000000E+01 0. -1.
        -11    1    1    2    0    0  0.31442311791E+02 -0.48337878911E+02  0.10220985846E+01  0.57673340409E+02  0.00000000000E+00 0.  1.
         11    1    1    2    0    0 -0.58760367264E+01  0.39141146768E+02 -0.32816914812E+01  0.39715572222E+02  0.00000000000E+00 0. -1.
<mgrwt>
<rscale>  0 0.11948947E+03</rscale>
<asrwt>0</asrwt>
<pdfrwt beam="1">  1        1 0.19060438E-01 0.12793086E+03</pdfrwt>
<pdfrwt beam="2">  1       -1 0.15912201E-01 0.12793086E+03</pdfrwt>
<totfact> 0.74881559E+03</totfact>
</mgrwt>
</event>
<event>
 7    1  0.6387485E-006  0.1656585E+03  0.7546771E-02  0.1189780E+00
         -1   -1    0    0    0  501 -0.00000000000E+00  0.00000000000E+00  0.71532321279E+03  0.71532321279E+03  0.00000000000E+00 0.  1.
          1   -1    0    0  501    0  0.00000000000E+00 -0.00000000000E+00 -0.11828406113E+03  0.11828406113E+03  0.00000000000E+00 0. -1.
         23    2    1    2    0    0  0.10711308367E+03 -0.18565197079E+02  0.65923717921E+03  0.67973258776E+03  0.12499941270E+03 0.  0.
          5    1    3    3  502    0  0.69262851695E+02 -0.49650184194E+02  0.19455769754E+03  0.21245533904E+03  0.47000000000E+01 0.  1.
         -5    1    3    3    0  502  0.37850231976E+02  0.31084987115E+02  0.46467948167E+03  0.46727724871E+03  0.47000000000E+01 0.  1.
        -11    1    1    2    0    0 -0.63921730381E+02  0.44992838546E+02 -0.67079455006E+02  0.10300483687E+03  0.00000000000E+00 0. -1.
         11    1    1    2    0    0 -0.43191353289E+02 -0.26427641466E+02  0.48814274594E+01  0.50869849287E+02  0.00000000000E+00 0.  1.
<mgrwt>
<rscale>  0 0.15904411E+03</rscale>
<asrwt>0</asrwt>
<pdfrwt beam="2">  1        1 0.18197548E-01 0.16565848E+03</pdfrwt>
<pdfrwt beam="1">  1       -1 0.11004972E+00 0.16565848E+03</pdfrwt>
<totfact> 0.23705118E+02</totfact>
</mgrwt>
</event>
<event>
 7    1  0.6387485E-006  0.1753761E+03  0.7546771E-02  0.1178477E+00
         -1   -1    0    0    0  501 -0.00000000000E+00  0.00000000000E+00  0.26779760655E+03  0.26779760655E+03  0.00000000000E+00 0.  1.
          1   -1    0    0  501    0  0.00000000000E+00 -0.00000000000E+00 -0.10403307508E+03  0.10403307508E+03  0.00000000000E+00 0. -1.
         23    2    1    2    0    0  0.25478956555E+02  0.12032572661E+03  0.12175059124E+03  0.21349467651E+03  0.12501724969E+03 0.  0.
          5    1    3    3  502    0  0.49657146837E+02  0.15551605468E+02  0.84979892604E+02  0.99756487566E+02  0.47000000000E+01 0. -1.
         -5    1    3    3    0  502 -0.24178190282E+02  0.10477412114E+03  0.36770698632E+02  0.11373818894E+03  0.47000000000E+01 0. -1.
        -11    1    1    2    0    0 -0.50499558021E+02 -0.99332917296E+02  0.88405376983E+01  0.11178277562E+03  0.00000000000E+00 0. -1.
         11    1    1    2    0    0  0.25020601466E+02 -0.20992809314E+02  0.33173402540E+02  0.46553229498E+02  0.00000000000E+00 0.  1.
<mgrwt>
<rscale>  0 0.16939836E+03</rscale>
<asrwt>0</asrwt>
<pdfrwt beam="2">  1        1 0.16005089E-01 0.17537608E+03</pdfrwt>
<pdfrwt beam="1">  1       -1 0.41199631E-01 0.17537608E+03</pdfrwt>
<totfact> 0.19693329E+03</totfact>
</mgrwt>
</event>
<event>
 7    1  0.6387485E-006  0.1484056E+03  0.7546771E-02  0.1210659E+00
         -2   -1    0    0    0  501 -0.00000000000E+00  0.00000000000E+00  0.54748948594E+02  0.54748948594E+02  0.00000000000E+00 0.  1.
          2   -1    0    0  501    0  0.00000000000E+00 -0.00000000000E+00 -0.34162237031E+03  0.34162237031E+03  0.00000000000E+00 0. -1.
         23    2    1    2    0    0 -0.79950206108E+02 -0.26818355963E+01 -0.17020074991E+03  0.22581525432E+03  0.12500002446E+03 0.  0.
          5    1    3    3  502    0 -0.57233853636E+02 -0.61249386765E+02 -0.11259888527E+03  0.14045568819E+03  0.47000000000E+01 0.  1.
         -5    1    3    3    0  502 -0.22716352471E+02  0.58567551169E+02 -0.57601864648E+02  0.85359566133E+02  0.47000000000E+01 0.  1.
        -11    1    1    2    0    0  0.11719886635E+02 -0.20433495379E+02  0.93923042229E+01  0.25359393817E+02  0.00000000000E+00 0.  1.
         11    1    1    2    0    0  0.68230319472E+02  0.23115330975E+02 -0.12606497602E+03  0.14519667076E+03  0.00000000000E+00 0. -1.
<mgrwt>
<rscale>  0 0.14200321E+03</rscale>
<asrwt>0</asrwt>
<pdfrwt beam="2">  1        2 0.52557288E-01 0.14840564E+03</pdfrwt>
<pdfrwt beam="1">  1       -2 0.84229151E-02 0.14840564E+03</pdfrwt>
<totfact> 0.79200920E+03</totfact>
</mgrwt>
</event>
<event>
 7    1  0.6387485E-006  0.2696039E+03  0.7546771E-02  0.1103523E+00
          1   -1    0    0  501    0  0.00000000000E+00  0.00000000000E+00  0.29837679868E+03  0.29837679868E+03  0.00000000000E+00 0. -1.
         -1   -1    0    0    0  501 -0.00000000000E+00 -0.00000000000E+00 -0.23410388656E+03  0.23410388656E+03  0.00000000000E+00 0.  1.
         23    2    1    2    0    0 -0.16074762865E+03  0.17669155436E+03  0.61570465106E+02  0.27654510214E+03  0.12500626322E+03 0.  0.
          5    1    3    3  502    0 -0.75494214833E+02  0.81294890548E+02 -0.34726764918E+02  0.11634549370E+03  0.47000000000E+01 0.  1.
         -5    1    3    3    0  502 -0.85253413821E+02  0.95396663808E+02  0.96297230025E+02  0.16019960844E+03  0.47000000000E+01 0.  1.
        -11    1    1    2    0    0  0.13592806565E+03 -0.84507337689E+02 -0.52142908878E+01  0.16014093163E+03  0.00000000000E+00 0.  1.
         11    1    1    2    0    0  0.24819563002E+02 -0.92184216667E+02  0.79167378969E+01  0.95794651464E+02  0.00000000000E+00 0. -1.
<mgrwt>
<rscale>  0 0.26611617E+03</rscale>
<asrwt>0</asrwt>
<pdfrwt beam="1">  1        1 0.45904123E-01 0.26960392E+03</pdfrwt>
<pdfrwt beam="2">  1       -1 0.36015982E-01 0.26960392E+03</pdfrwt>
<totfact> 0.65842709E+02</totfact>
</mgrwt>
</event>
<event>
 7    1  0.6387485E-006  0.1259835E+03  0.7546771E-02  0.1244620E+00
          2   -1    0    0  501    0  0.00000000000E+00  0.00000000000E+00  0.51571872997E+02  0.51571872997E+02  0.00000000000E+00 0. -1.
         -2   -1    0    0    0  501 -0.00000000000E+00 -0.00000000000E+00 -0.35452014323E+03  0.35452014323E+03  0.00000000000E+00 0.  1.
         23    2    1    2    0    0 -0.37324351230E+02 -0.20641052903E+02 -0.27379554834E+03  0.30138985461E+03  0.11854400832E+03 0.  0.
          5    1    3    3  502    0 -0.24494985375E+02 -0.45155001630E+02 -0.26775977704E+03  0.27268363846E+03  0.47000000000E+01 0. -1.
         -5    1    3    3    0  502 -0.12829365855E+02  0.24513948727E+02 -0.60357712976E+01  0.28706216149E+02  0.47000000000E+01 0.  1.
        -11    1    1    2    0    0  0.60361000664E+01  0.47851652773E+02 -0.39067016455E+02  0.62068083198E+02  0.00000000000E+00 0.  1.
         11    1    1    2    0    0  0.31288251164E+02 -0.27210599870E+02  0.99142945639E+01  0.42634078422E+02  0.00000000000E+00 0. -1.
<mgrwt>
<rscale>  0 0.11908126E+03</rscale>
<asrwt>0</asrwt>
<pdfrwt beam="1">  1        2 0.79341345E-02 0.12598350E+03</pdfrwt>
<pdfrwt beam="2">  1       -2 0.54541559E-01 0.12598350E+03</pdfrwt>
<totfact> 0.26454237E+03</totfact>
</mgrwt>
</event>
<event>
 7    1  0.6387485E-006  0.1308214E+03  0.7546771E-02  0.1260320E+00
         -2   -1    0    0    0  501 -0.00000000000E+00  0.00000000000E+00  0.12239208398E+03  0.12239208398E+03  0.00000000000E+00 0.  1.
          2   -1    0    0  501    0  0.00000000000E+00 -0.00000000000E+00 -0.83317623125E+02  0.83317623125E+02  0.00000000000E+00 0. -1.
         23    2    1    2    0    0 -0.18708526654E+02  0.60011038481E+02  0.48087831060E+02  0.13937957280E+03  0.11472964790E+03 0.  0.
          5    1    3    3  502    0 -0.61640705104E+02  0.28682751611E+02  0.52232918919E+02  0.85864105332E+02  0.47000000000E+01 0. -1.
         -5    1    3    3    0  502  0.42932178450E+02  0.31328286871E+02 -0.41450878583E+01  0.53515467465E+02  0.47000000000E+01 0.  1.
        -11    1    1    2    0    0  0.18818266449E+02 -0.28503320946E+02 -0.33708178502E+01  0.34320968373E+02  0.00000000000E+00 0.  1.
         11    1    1    2    0    0 -0.10973979472E+00 -0.31507717535E+02 -0.56425523501E+01  0.32009165939E+02  0.00000000000E+00 0. -1.
<mgrwt>
<rscale>  0 0.11013489E+03</rscale>
<asrwt>0</asrwt>
<pdfrwt beam="2">  1        2 0.12818096E-01 0.13082135E+03</pdfrwt>
<pdfrwt beam="1">  1       -2 0.18829551E-01 0.13082135E+03</pdfrwt>
<totfact> 0.10279772E+04</totfact>
</mgrwt>
</event>
<event>
 7    1  0.6387485E-006  0.1319793E+03  0.7546771E-02  0.1245657E+00
         -2   -1    0    0    0  501 -0.00000000000E+00  0.00000000000E+00  0.35215661031E+02  0.35215661031E+02  0.00000000000E+00 0.  1.
          2   -1    0    0  501    0  0.00000000000E+00 -0.00000000000E+00 -0.43960011311E+03  0.43960011311E+03  0.00000000000E+00 0. -1.
         23    2    1    2    0    0 -0.43315147793E+01 -0.42105978107E+02 -0.12201775027E+03  0.17974112366E+03  0.12500745873E+03 0.  0.
          5    1    3    3  502    0 -0.61129574643E+02 -0.38745695509E+02 -0.84824423344E+02  0.11160343459E+03  0.47000000000E+01 0.  1.
         -5    1    3    3    0  502  0.56798059864E+02 -0.33602825979E+01 -0.37193326927E+02  0.68137689067E+02  0.47000000000E+01 0.  1.
        -11    1    1    2    0    0 -0.24505939099E+01 -0.13688044210E+02 -0.10409294436E+02  0.17370128827E+02  0.00000000000E+00 0.  1.
         11    1    1    2    0    0  0.67821086892E+01  0.55794022317E+02 -0.27195740737E+03  0.27770452165E+03  0.00000000000E+00 0. -1.
<mgrwt>
<rscale>  0 0.11846153E+03</rscale>
<asrwt>0</asrwt>
<pdfrwt beam="2">  1        2 0.67630785E-01 0.13197932E+03</pdfrwt>
<pdfrwt beam="1">  1       -2 0.54177941E-02 0.13197932E+03</pdfrwt>
<totfact> 0.11778375E+04</totfact>
</mgrwt>
</event>
<event>
 7    1  0.6387485E-006  0.1321780E+03  0.7546771E-02  0.1237418E+00
         -2   -1    0    0    0  501 -0.00000000000E+00  0.00000000000E+00  0.45492542627E+02  0.45492542627E+02  0.00000000000E+00 0.  1.
          2   -1    0    0  501    0  0.00000000000E+00 -0.00000000000E+00 -0.31867423021E+03  0.31867423021E+03  0.00000000000E+00 0. -1.
         23    2    1    2    0    0  0.18629720360E+02 -0.38702753385E+02 -0.10806676542E+03  0.17073209311E+03  0.12500420885E+03 0.  0.
          5    1    3    3  502    0  0.44406916253E+02 -0.70646071354E+02 -0.43871190138E+02  0.94390746014E+02  0.47000000000E+01 0.  1.
         -5    1    3    3    0  502 -0.25777195893E+02  0.31943317969E+02 -0.64195575279E+02  0.76341347096E+02  0.47000000000E+01 0.  1.
        -11    1    1    2    0    0 -0.30885888275E+02  0.76133641554E+01 -0.15541542181E+03  0.15863749476E+03  0.00000000000E+00 0. -1.
         11    1    1    2    0    0  0.12256167914E+02  0.31089389229E+02 -0.96995003609E+01  0.34797184970E+02  0.00000000000E+00 0.  1.
<mgrwt>
<rscale>  0 0.12350917E+03</rscale>
<asrwt>0</asrwt>
<pdfrwt beam="2">  1        2 0.49026805E-01 0.13217799E+03</pdfrwt>
<pdfrwt beam="1">  1       -2 0.69988526E-02 0.13217799E+03</pdfrwt>
<totfact> 0.11251177E+04</totfact>
</mgrwt>
</event>
<event>
 6    1  0.6387485E-006  0.2907226E+03  0.7546771E-02  0.1108484E+00
         -2   -1    0    0    0  501 -0.00000000000E+00  0.00000000000E+00  0.45558017182E+02  0.45558017182E+02  0.00000000000E+00 0.  1.
          2   -1    0    0  501    0  0.00000000000E+00 -0.00000000000E+00 -0.14934143426E+04  0.14934143426E+04  0.00000000000E+00 0. -1.
          5    1    1    2  502    0  0.15499397383E+02  0.18738883944E+03 -0.42143017605E+03  0.46149787838E+03  0.47000000000E+01 0. -1.
         -5    1    1    2    0  502 -0.82238899501E+02 -0.46158095586E+02 -0.11644292660E+03  0.14991614835E+03  0.47000000000E+01 0.  1.
        -11    1    1    2    0    0  0.68223292862E+02 -0.42106830958E+02 -0.43791521517E+03  0.44519337212E+03  0.00000000000E+00 0. -1.
         11    1    1    2    0    0 -0.14837907445E+01 -0.99123912892E+02 -0.47206800755E+03  0.48236496089E+03  0.00000000000E+00 0.  1.
<mgrwt>
<rscale>  0 0.25778106E+03</rscale>
<asrwt>0</asrwt>
<pdfrwt beam="2">  1        2 0.22975603E+00 0.29072261E+03</pdfrwt>
<pdfrwt beam="1">  1       -2 0.70089264E-02 0.29072261E+03</pdfrwt>
<totfact> 0.15994204E+03</totfact>
</mgrwt>
</event>
<event>
 7    1  0.6387485E-006  0.1510181E+03  0.7546771E-02  0.1208803E+00
         -1   -1    0    0    0  501 -0.00000000000E+00  0.00000000000E+00  0.19773709511E+03  0.19773709511E+03  0.00000000000E+00 0.  1.
          1   -1    0    0  501    0  0.00000000000E+00 -0.00000000000E+00 -0.10427102237E+03  0.10427102237E+03  0.00000000000E+00 0. -1.
         23    2    1    2    0    0  0.79331841563E+02 -0.29804321193E+02  0.96356554719E+02  0.17913972123E+03  0.12499846175E+03 0.  0.
          5    1    3    3  502    0  0.96260266314E+02 -0.39018185818E+02  0.11277334395E+03  0.15338961765E+03  0.47000000000E+01 0.  1.
         -5    1    3    3    0  502 -0.16928424751E+02  0.92138646250E+01 -0.16416789236E+02  0.25750103586E+02  0.47000000000E+01 0.  1.
        -11    1    1    2    0    0 -0.22515496525E+02 -0.16370728410E+02 -0.33462593341E+02  0.43528076980E+02  0.00000000000E+00 0. -1.
         11    1    1    2    0    0 -0.56816345038E+02  0.46175049603E+02  0.30572111361E+02  0.79340319273E+02  0.00000000000E+00 0.  1.
<mgrwt>
<rscale>  0 0.14341734E+03</rscale>
<asrwt>0</asrwt>
<pdfrwt beam="2">  1        1 0.16041696E-01 0.15101806E+03</pdfrwt>
<pdfrwt beam="1">  1       -1 0.30421092E-01 0.15101806E+03</pdfrwt>
<totfact> 0.32948808E+03</totfact>
</mgrwt>
</event>
<event>
 7    1  0.6387485E-006  0.1542883E+03  0.7546771E-02  0.1204707E+00
          1   -1    0    0  501    0  0.00000000000E+00  0.00000000000E+00  0.58229684163E+03  0.58229684163E+03  0.00000000000E+00 0. -1.
         -1   -1    0    0    0  501 -0.00000000000E+00 -0.00000000000E+00 -0.35303666393E+02  0.35303666393E+02  0.00000000000E+00 0.  1.
         23    2    1    2    0    0 -0.18441765577E+02 -0.88546236613E+02  0.23406675850E+03  0.28034288406E+03  0.12499740187E+03 0.  0.
          5    1    3    3  502    0 -0.53305762633E+02 -0.30612891470E+01  0.45386660083E+02  0.70234711750E+02  0.47000000000E+01 0. -1.
         -5    1    3    3    0  502  0.34863997056E+02 -0.85484947466E+02  0.18868009842E+03  0.21010817231E+03  0.47000000000E+01 0. -1.
        -11    1    1    2    0    0 -0.32225535200E+02  0.27237769878E+02  0.15202271784E+03  0.15776973083E+03  0.00000000000E+00 0. -1.
         11    1    1    2    0    0  0.50667300777E+02  0.61308466735E+02  0.16090369889E+03  0.17948789313E+03  0.00000000000E+00 0.  1.
<mgrwt>
<rscale>  0 0.14660534E+03</rscale>
<asrwt>0</asrwt>
<pdfrwt beam="1">  1        1 0.89584122E-01 0.15428832E+03</pdfrwt>
<pdfrwt beam="2">  1       -1 0.54313337E-02 0.15428832E+03</pdfrwt>
<totfact> 0.55326643E+03</totfact>
</mgrwt>
</event>
<event>
 7    1  0.6387485E-006  0.1297171E+03  0.7546771E-02  0.1243601E+00
         -4   -1    0    0    0  501 -0.00000000000E+00  0.00000000000E+00  0.66537048756E+02  0.66537048756E+02  0.00000000000E+00 0. -1.
          4   -1    0    0  501    0  0.00000000000E+00 -0.00000000000E+00 -0.23770102979E+03  0.23770102979E+03  0.00000000000E+00 0.  1.
         23    2    1    2    0    0 -0.27024617213E+02 -0.21738412814E+02 -0.27607254430E+02  0.13262235164E+03  0.12499455640E+03 0.  0.
          5    1    3    3  502    0 -0.82232666640E+01 -0.59473231699E+01 -0.76710670772E+02  0.77521672956E+02  0.47000000000E+01 0. -1.
         -5    1    3    3    0  502 -0.18801350549E+02 -0.15791089644E+02  0.49103416342E+02  0.55100678681E+02  0.47000000000E+01 0. -1.
        -11    1    1    2    0    0  0.53128279311E+02  0.31276466224E+02 -0.71636227135E+02  0.94512329566E+02  0.00000000000E+00 0. -1.
         11    1    1    2    0    0 -0.26103662098E+02 -0.95380534098E+01 -0.71920499465E+02  0.77103397338E+02  0.00000000000E+00 0.  1.
<mgrwt>
<rscale>  0 0.11969486E+03</rscale>
<asrwt>0</asrwt>
<pdfrwt beam="2">  1        4 0.36569389E-01 0.12971711E+03</pdfrwt>
<pdfrwt beam="1">  1       -4 0.10236469E-01 0.12971711E+03</pdfrwt>
<totfact> 0.86649101E+02</totfact>
</mgrwt>
</event>
<event>
 6    1  0.6387485E-006  0.5088183E+03  0.7546771E-02  0.1062661E+00
          2   -1    0    0  501    0  0.00000000000E+00  0.00000000000E+00  0.17643560626E+04  0.17643560626E+04  0.00000000000E+00 0. -1.
         -2   -1    0    0    0  501 -0.00000000000E+00 -0.00000000000E+00 -0.61942255525E+02  0.61942255525E+02  0.00000000000E+00 0.  1.
          5    1    1    2  502    0 -0.45746718153E+02 -0.23848424196E+01  0.10826776063E+04  0.10836564672E+04  0.47000000000E+01 0. -1.
         -5    1    1    2    0  502  0.11307193568E+03 -0.83967328112E+01  0.95089322298E+00  0.11348463314E+03  0.47000000000E+01 0.  1.
        -11    1    1    2    0    0  0.12911732041E+02 -0.23174903971E+02  0.15669654702E+03  0.15892638813E+03  0.00000000000E+00 0.  1.
         11    1    1    2    0    0 -0.80236949567E+02  0.33956479202E+02  0.46208876046E+03  0.47023082960E+03  0.00000000000E+00 0. -1.
<mgrwt>
<rscale>  0 0.34988774E+03</rscale>
<asrwt>0</asrwt>
<pdfrwt beam="1">  1        2 0.27143936E+00 0.50881833E+03</pdfrwt>
<pdfrwt beam="2">  1       -2 0.95295791E-02 0.50881833E+03</pdfrwt>
<totfact> 0.69302981E+02</totfact>
</mgrwt>
</event>
<event>
 7    1  0.6387485E-006  0.1671774E+03  0.7546771E-02  0.1188420E+00
          2   -1    0    0  501    0  0.00000000000E+00  0.00000000000E+00  0.46191869509E+03  0.46191869509E+03  0.00000000000E+00 0. -1.
         -2   -1    0    0    0  501 -0.00000000000E+00 -0.00000000000E+00 -0.52457846353E+02  0.52457846353E+02  0.00000000000E+00 0.  1.
         23    2    1    2    0    0  0.40725992224E+02 -0.10326696694E+03  0.25731981509E+03  0.30685787361E+03  0.12500237781E+03 0.  0.
          5    1    3    3  502    0  0.12720611660E+02  0.70981027133E+01  0.14850066172E+03  0.14928741928E+03  0.47000000000E+01 0. -1.
         -5    1    3    3    0  502  0.28005380564E+02 -0.11036506966E+03  0.10881915336E+03  0.15757045434E+03  0.47000000000E+01 0. -1.
        -11    1    1    2    0    0 -0.34913370496E+02  0.94184351436E+02  0.16347850654E+03  0.19187198231E+03  0.00000000000E+00 0. -1.
         11    1    1    2    0    0 -0.58126217287E+01  0.90826155068E+01 -0.11337472897E+02  0.15646685512E+02  0.00000000000E+00 0.  1.
<mgrwt>
<rscale>  0 0.16024569E+03</rscale>
<asrwt>0</asrwt>
<pdfrwt beam="1">  1        2 0.71064412E-01 0.16717735E+03</pdfrwt>
<pdfrwt beam="2">  1       -2 0.80704382E-02 0.16717735E+03</pdfrwt>
<totfact> 0.61614831E+03</totfact>
</mgrwt>
</event>
<event>
 7    1  0.6387485E-006  0.1283493E+03  0.7546771E-02  0.1244401E+00
          3   -1    0    0  501    0  0.00000000000E+00  0.00000000000E+00  0.38770525587E+02  0.38770525587E+02  0.00000000000E+00 0. -1.
         -3   -1    0    0    0  501 -0.00000000000E+00 -0.00000000000E+00 -0.39288511053E+03  0.39288511053E+03  0.00000000000E+00 0.  1.
         23    2    1    2    0    0 -0.27067349786E+02  0.10832874120E+02 -0.28851213209E+03  0.31577334578E+03  0.12499425170E+03 0.  0.
          5    1    3    3  502    0  0.16237912489E+02  0.53015413958E+02 -0.72387291991E+02  0.91303417028E+02  0.47000000000E+01 0.  1.
         -5    1    3    3    0  502 -0.43305262274E+02 -0.42182539838E+02 -0.21612484010E+03  0.22446992876E+03  0.47000000000E+01 0.  1.
        -11    1    1    2    0    0 -0.37615928743E+01 -0.41764805922E+02 -0.65601879910E+01  0.42443900164E+02  0.00000000000E+00 0.  1.
         11    1    1    2    0    0  0.30828942660E+02  0.30931931802E+02 -0.59042264858E+02  0.73438390166E+02  0.00000000000E+00 0. -1.
<mgrwt>
<rscale>  0 0.11921324E+03</rscale>
<asrwt>0</asrwt>
<pdfrwt beam="1">  1        3 0.59646960E-02 0.12834935E+03</pdfrwt>
<pdfrwt beam="2">  1       -3 0.60443866E-01 0.12834935E+03</pdfrwt>
<totfact> 0.10642479E+03</totfact>
</mgrwt>
</event>
<event>
 7    1  0.6387485E-006  0.2033966E+03  0.7546771E-02  0.1151036E+00
         -2   -1    0    0    0  501 -0.00000000000E+00  0.00000000000E+00  0.57209977795E+02  0.57209977795E+02  0.00000000000E+00 0. -1.
          2   -1    0    0  501    0  0.00000000000E+00 -0.00000000000E+00 -0.65939640626E+03  0.65939640626E+03  0.00000000000E+00 0.  1.
         23    2    1    2    0    0  0.15912576438E+03  0.20648806502E+02 -0.29495250596E+03  0.35828361093E+03  0.12499113162E+03 0.  0.
          5    1    3    3  502    0  0.81310667865E+02  0.11548813321E+02 -0.25938080784E+03  0.27211264813E+03  0.47000000000E+01 0. -1.
         -5    1    3    3    0  502  0.77815096516E+02  0.90999931816E+01 -0.35571698128E+02  0.86170962797E+02  0.47000000000E+01 0. -1.
        -11    1    1    2    0    0 -0.41204107384E+02  0.32195877029E+02 -0.61838604010E+02  0.80983738546E+02  0.00000000000E+00 0. -1.
         11    1    1    2    0    0 -0.11792165700E+03 -0.52844683531E+02 -0.24539531849E+03  0.27733903458E+03  0.00000000000E+00 0.  1.
<mgrwt>
<rscale>  0 0.19847080E+03</rscale>
<asrwt>0</asrwt>
<pdfrwt beam="2">  1        2 0.10144559E+00 0.20339657E+03</pdfrwt>
<pdfrwt beam="1">  1       -2 0.88015359E-02 0.20339657E+03</pdfrwt>
<totfact> 0.36247485E+03</totfact>
</mgrwt>
</event>
<event>
 7    1  0.6387485E-006  0.1596147E+03  0.7546771E-02  0.1198728E+00
         -2   -1    0    0    0  501 -0.00000000000E+00  0.00000000000E+00  0.31784758463E+03  0.31784758463E+03  0.00000000000E+00 0.  1.
          2   -1    0    0  501    0  0.00000000000E+00 -0.00000000000E+00 -0.12977334455E+03  0.12977334455E+03  0.00000000000E+00 0. -1.
         23    2    1    2    0    0  0.99072361647E+02 -0.59656343582E+01  0.25590665480E+03  0.30160417118E+03  0.12500375381E+03 0.  0.
          5    1    3    3  502    0  0.12707509815E+03 -0.18344582847E+02  0.21139531751E+03  0.24737557388E+03  0.47000000000E+01 0.  1.
         -5    1    3    3    0  502 -0.28002736503E+02  0.12378948488E+02  0.44511337298E+02  0.54228597302E+02  0.47000000000E+01 0.  1.
        -11    1    1    2    0    0 -0.94335572620E+02  0.22722665001E+02 -0.79173496821E+02  0.12523562738E+03  0.00000000000E+00 0. -1.
         11    1    1    2    0    0 -0.47367890278E+01 -0.16757030643E+02  0.11341082101E+02  0.20781130611E+02  0.00000000000E+00 0.  1.
<mgrwt>
<rscale>  0 0.15142868E+03</rscale>
<asrwt>0</asrwt>
<pdfrwt beam="2">  1        2 0.19965130E-01 0.15961472E+03</pdfrwt>
<pdfrwt beam="1">  1       -2 0.48899628E-01 0.15961472E+03</pdfrwt>
<totfact> 0.11022035E+03</totfact>
</mgrwt>
</event>
<event>
 7    1  0.6387485E-006  0.1277386E+03  0.7546771E-02  0.1239085E+00
          1   -1    0    0  501    0  0.00000000000E+00  0.00000000000E+00  0.10426383441E+04  0.10426383441E+04  0.00000000000E+00 0. -1.
         -1   -1    0    0    0  501 -0.00000000000E+00 -0.00000000000E+00 -0.13839667324E+02  0.13839667324E+02  0.00000000000E+00 0.  1.
         23    2    1    2    0    0  0.18294816124E+02 -0.18875747025E+02  0.45356874531E+03  0.47121306047E+03  0.12500458996E+03 0.  0.
          5    1    3    3  502    0 -0.48930448007E+02 -0.12864992627E+02  0.28639581750E+03  0.29086827097E+03  0.47000000000E+01 0. -1.
         -5    1    3    3    0  502  0.67225264131E+02 -0.60107543985E+01  0.16717292782E+03  0.18034478950E+03  0.47000000000E+01 0. -1.
        -11    1    1    2    0    0  0.13450339299E+02 -0.38830355158E+02  0.18429903368E+03  0.18882489753E+03  0.00000000000E+00 0.  1.
         11    1    1    2    0    0 -0.31745155423E+02  0.57706102183E+02  0.39093089781E+03  0.39644005346E+03  0.00000000000E+00 0. -1.
<mgrwt>
<rscale>  0 0.12246492E+03</rscale>
<asrwt>0</asrwt>
<pdfrwt beam="1">  1        1 0.16040584E+00 0.12773857E+03</pdfrwt>
<pdfrwt beam="2">  1       -1 0.21291804E-02 0.12773857E+03</pdfrwt>
<totfact> 0.89598513E+03</totfact>
</mgrwt>
</event>
<event>
 7    1  0.6387485E-006  0.1298339E+03  0.7546771E-02  0.1242856E+00
         -4   -1    0    0    0  501 -0.00000000000E+00  0.00000000000E+00  0.10560196593E+04  0.10560196593E+04  0.00000000000E+00 0.  1.
          4   -1    0    0  501    0  0.00000000000E+00 -0.00000000000E+00 -0.12383892500E+02  0.12383892500E+02  0.00000000000E+00 0. -1.
         23    2    1    2    0    0  0.30548316935E+02  0.17265290429E+02  0.69380626593E+03  0.70584982557E+03  0.12500220672E+03 0.  0.
          5    1    3    3  502    0  0.28629750757E+02  0.56466004164E+02  0.60881912601E+03  0.61211999678E+03  0.47000000000E+01 0. -1.
         -5    1    3    3    0  502  0.19185661781E+01 -0.39200713735E+02  0.84987139922E+02  0.93729828794E+02  0.47000000000E+01 0. -1.
        -11    1    1    2    0    0 -0.61487731094E+02 -0.11750318232E+02  0.25836300128E+03  0.26583876972E+03  0.00000000000E+00 0.  1.
         11    1    1    2    0    0  0.30939414159E+02 -0.55149721966E+01  0.91466499573E+02  0.96714956501E+02  0.00000000000E+00 0. -1.
<mgrwt>
<rscale>  0 0.12014597E+03</rscale>
<asrwt>0</asrwt>
<pdfrwt beam="2">  1        4 0.19052151E-02 0.12983390E+03</pdfrwt>
<pdfrwt beam="1">  1       -4 0.16246449E+00 0.12983390E+03</pdfrwt>
<totfact> 0.46843932E+02</totfact>
</mgrwt>
</event>
<event>
 6    1  0.6387485E-006  0.2267992E+03  0.7546771E-02  0.1145739E+00
          2   -1    0    0  501    0  0.00000000000E+00  0.00000000000E+00  0.28884009530E+03  0.28884009530E+03  0.00000000000E+00 0. -1.
         -2   -1    0    0    0  501 -0.00000000000E+00 -0.00000000000E+00 -0.21832623995E+03  0.21832623995E+03  0.00000000000E+00 0.  1.
          5    1    1    2  502    0 -0.30575198845E+02 -0.20842360064E+02  0.45710164166E+02  0.58997931028E+02  0.47000000000E+01 0. -1.
         -5    1    1    2    0  502  0.29573027692E+02 -0.99002063253E+02 -0.17169851243E+03  0.20044560775E+03  0.47000000000E+01 0.  1.
        -11    1    1    2    0    0  0.18503225250E+01  0.10906672103E+03  0.20615106802E+03  0.23323215081E+03  0.00000000000E+00 0. -1.
         11    1    1    2    0    0 -0.84815137227E+00  0.10777702291E+02 -0.96488644003E+01  0.14490645659E+02  0.00000000000E+00 0.  1.
<mgrwt>
<rscale>  0 0.20481517E+03</rscale>
<asrwt>0</asrwt>
<pdfrwt beam="1">  1        2 0.44436938E-01 0.22679922E+03</pdfrwt>
<pdfrwt beam="2">  1       -2 0.33588652E-01 0.22679922E+03</pdfrwt>
<totfact> 0.94479991E+02</totfact>
</mgrwt>
</event>
<event>
 7    1  0.6387485E-006  0.1929473E+03  0.7546771E-02  0.1157459E+00
         -2   -1    0    0    0  501 -0.00000000000E+00  0.00000000000E+00  0.13470074149E+04  0.13470074149E+04  0.00000000000E+00 0.  1.
          2   -1    0    0  501    0  0.00000000000E+00 -0.00000000000E+00 -0.32756037075E+02  0.32756037075E+02  0.00000000000E+00 0. -1.
         23    2    1    2    0    0 -0.14518308433E+02  0.14626813226E+03  0.96603290576E+03  0.98511331860E+03  0.12499411058E+03 0.  0.
          5    1    3    3  502    0 -0.26298160030E+02  0.75983876061E+02  0.19782959511E+03  0.21359724095E+03  0.47000000000E+01 0. -1.
         -5    1    3    3    0  502  0.11779851597E+02  0.70284256197E+02  0.76820331065E+03  0.77151607765E+03  0.47000000000E+01 0. -1.
        -11    1    1    2    0    0  0.64579447922E+00 -0.15011589150E+03  0.34932179482E+03  0.38021167035E+03  0.00000000000E+00 0.  1.
         11    1    1    2    0    0  0.13872513954E+02  0.38477592447E+01 -0.11033227185E+01  0.14438463063E+02  0.00000000000E+00 0. -1.
<mgrwt>
<rscale>  0 0.19111504E+03</rscale>
<asrwt>0</asrwt>
<pdfrwt beam="2">  1        2 0.50393913E-02 0.19294734E+03</pdfrwt>
<pdfrwt beam="1">  1       -2 0.20723187E+00 0.19294734E+03</pdfrwt>
<totfact> 0.20159433E+02</totfact>
</mgrwt>
</event>
<event>
 7    1  0.6387485E-006  0.1320702E+03  0.7546771E-02  0.1238615E+00
          2   -1    0    0  501    0  0.00000000000E+00  0.00000000000E+00  0.38824219109E+03  0.38824219109E+03  0.00000000000E+00 0.  1.
         -2   -1    0    0    0  501 -0.00000000000E+00 -0.00000000000E+00 -0.34591052169E+02  0.34591052169E+02  0.00000000000E+00 0. -1.
         23    2    1    2    0    0  0.39949710029E+02 -0.14873367216E+02  0.18168828088E+03  0.22461785188E+03  0.12500140635E+03 0.  0.
          5    1    3    3  502    0 -0.18685739972E+02 -0.55731847690E+02  0.65547314069E+02  0.88168793271E+02  0.47000000000E+01 0.  1.
         -5    1    3    3    0  502  0.58635450002E+02  0.40858480473E+02  0.11614096681E+03  0.13644905861E+03  0.47000000000E+01 0.  1.
        -11    1    1    2    0    0 -0.22991515806E+02 -0.32540733701E+02  0.11735463068E+03  0.12393392793E+03  0.00000000000E+00 0.  1.
         11    1    1    2    0    0 -0.16958194223E+02  0.47414100918E+02  0.54608227355E+02  0.74281463448E+02  0.00000000000E+00 0. -1.
<mgrwt>
<rscale>  0 0.12275848E+03</rscale>
<asrwt>0</asrwt>
<pdfrwt beam="1">  1        2 0.59729565E-01 0.13207024E+03</pdfrwt>
<pdfrwt beam="2">  1       -2 0.53217006E-02 0.13207024E+03</pdfrwt>
<totfact> 0.13822830E+04</totfact>
</mgrwt>
</event>
<event>
 7    1  0.6387485E-006  0.1392635E+03  0.7546771E-02  0.1224286E+00
          3   -1    0    0  501    0  0.00000000000E+00  0.00000000000E+00  0.27217110627E+02  0.27217110627E+02  0.00000000000E+00 0. -1.
         -3   -1    0    0    0  501 -0.00000000000E+00 -0.00000000000E+00 -0.58512181612E+03  0.58512181612E+03  0.00000000000E+00 0.  1.
         23    2    1    2    0    0 -0.21628225121E+02 -0.57471533017E+02 -0.31945991008E+03  0.34849525492E+03  0.12499420517E+03 0.  0.
          5    1    3    3  502    0  0.20299398684E+02  0.28191331186E+02 -0.14942854217E+03  0.15348549103E+03  0.47000000000E+01 0.  1.
         -5    1    3    3    0  502 -0.41927623805E+02 -0.85662864202E+02 -0.17003136790E+03  0.19500976389E+03  0.47000000000E+01 0.  1.
        -11    1    1    2    0    0  0.58482528535E+02  0.45744850800E+02 -0.15406710218E+03  0.17102476281E+03  0.00000000000E+00 0.  1.
         11    1    1    2    0    0 -0.36854303414E+02  0.11726682216E+02 -0.84377693235E+02  0.92818909019E+02  0.00000000000E+00 0. -1.
<mgrwt>
<rscale>  0 0.13215963E+03</rscale>
<asrwt>0</asrwt>
<pdfrwt beam="1">  1        3 0.41872481E-02 0.13926345E+03</pdfrwt>
<pdfrwt beam="2">  1       -3 0.90018734E-01 0.13926345E+03</pdfrwt>
<totfact> 0.80500374E+02</totfact>
</mgrwt>
</event>
<event>
 7    1  0.6387485E-006  0.1322471E+03  0.7546771E-02  0.1239119E+00
         -1   -1    0    0    0  501 -0.00000000000E+00  0.00000000000E+00  0.17259118702E+03  0.17259118702E+03  0.00000000000E+00 0.  1.
          1   -1    0    0  501    0  0.00000000000E+00 -0.00000000000E+00 -0.11003551068E+03  0.11003551068E+03  0.00000000000E+00 0. -1.
         23    2    1    2    0    0  0.42092486764E+02 -0.96429558575E+01  0.11226192593E+03  0.17347056848E+03  0.12499813629E+03 0.  0.
          5    1    3    3  502    0  0.74609431228E+02  0.12208599163E+02  0.11050421012E+03  0.13397345847E+03  0.47000000000E+01 0. -1.
         -5    1    3    3    0  502 -0.32516944464E+02 -0.21851555020E+02  0.17577158155E+01  0.39497110008E+02  0.47000000000E+01 0. -1.
        -11    1    1    2    0    0 -0.16418994258E+02 -0.34726933326E+01  0.24414421902E+02  0.29626119696E+02  0.00000000000E+00 0.  1.
         11    1    1    2    0    0 -0.25673492505E+02  0.13115649190E+02 -0.74120671492E+02  0.79530009516E+02  0.00000000000E+00 0. -1.
<mgrwt>
<rscale>  0 0.12244362E+03</rscale>
<asrwt>0</asrwt>
<pdfrwt beam="2">  1        1 0.16928540E-01 0.13224711E+03</pdfrwt>
<pdfrwt beam="1">  1       -1 0.26552490E-01 0.13224711E+03</pdfrwt>
<totfact> 0.38309841E+03</totfact>
</mgrwt>
</event>
<event>
 7    1  0.6387485E-006  0.1391556E+03  0.7546771E-02  0.1225242E+00
          1   -1    0    0  501    0  0.00000000000E+00  0.00000000000E+00  0.30267882556E+02  0.30267882556E+02  0.00000000000E+00 0. -1.
         -1   -1    0    0    0  501 -0.00000000000E+00 -0.00000000000E+00 -0.53430490980E+03  0.53430490980E+03  0.00000000000E+00 0.  1.
         23    2    1    2    0    0 -0.28865701750E+02  0.53918566374E+02 -0.33027187875E+03  0.35839056118E+03  0.12499535956E+03 0.  0.
          5    1    3    3  502    0  0.40692308753E+02  0.54909960644E+02 -0.14306256688E+03  0.15861890118E+03  0.47000000000E+01 0. -1.
         -5    1    3    3    0  502 -0.69558010503E+02 -0.99139427014E+00 -0.18720931188E+03  0.19977166000E+03  0.47000000000E+01 0. -1.
        -11    1    1    2    0    0  0.31406664677E+02 -0.75808076730E+02 -0.10087955643E+03  0.13003817896E+03  0.00000000000E+00 0.  1.
         11    1    1    2    0    0 -0.25409629269E+01  0.21889510356E+02 -0.72885592061E+02  0.76144052205E+02  0.00000000000E+00 0. -1.
<mgrwt>
<rscale>  0 0.13150361E+03</rscale>
<asrwt>0</asrwt>
<pdfrwt beam="1">  1        1 0.46565978E-02 0.13915560E+03</pdfrwt>
<pdfrwt beam="2">  1       -1 0.82200747E-01 0.13915560E+03</pdfrwt>
<totfact> 0.27388709E+03</totfact>
</mgrwt>
</event>
<event>
 7    1  0.6387485E-006  0.1299505E+03  0.7546771E-02  0.1244476E+00
         -2   -1    0    0    0  501 -0.00000000000E+00  0.00000000000E+00  0.46013433675E+02  0.46013433675E+02  0.00000000000E+00 0.  1.
          2   -1    0    0  501    0  0.00000000000E+00 -0.00000000000E+00 -0.26752877037E+03  0.26752877037E+03  0.00000000000E+00 0. -1.
         23    2    1    2    0    0  0.35164889955E+02 -0.48555598014E+01 -0.12642033381E+03  0.18129873162E+03  0.12500793311E+03 0.  0.
          5    1    3    3  502    0  0.12316675453E+02  0.37143592496E+02 -0.12728616765E+03  0.13324866015E+03  0.47000000000E+01 0. -1.
         -5    1    3    3    0  502  0.22848214501E+02 -0.41999152297E+02  0.86583383928E+00  0.48050071465E+02  0.47000000000E+01 0. -1.
        -11    1    1    2    0    0 -0.33677348720E+02  0.21840091690E+02 -0.48837258388E+01  0.40435185172E+02  0.00000000000E+00 0.  1.
         11    1    1    2    0    0 -0.14875412346E+01 -0.16984531889E+02 -0.90211277041E+02  0.91808287250E+02  0.00000000000E+00 0. -1.
<mgrwt>
<rscale>  0 0.11916814E+03</rscale>
<asrwt>0</asrwt>
<pdfrwt beam="2">  1        2 0.41158273E-01 0.12995049E+03</pdfrwt>
<pdfrwt beam="1">  1       -2 0.70789898E-02 0.12995049E+03</pdfrwt>
<totfact> 0.13287798E+04</totfact>
</mgrwt>
</event>
<event>
 6    1  0.6387485E-006  0.1446645E+03  0.7546771E-02  0.1220304E+00
          2   -1    0    0  501    0  0.00000000000E+00  0.00000000000E+00  0.27788169792E+03  0.27788169792E+03  0.00000000000E+00 0. -1.
         -2   -1    0    0    0  501 -0.00000000000E+00 -0.00000000000E+00 -0.84145684165E+02  0.84145684165E+02  0.00000000000E+00 0.  1.
          5    1    1    2  502    0  0.36027679559E+02  0.57118728005E+02  0.41737885956E+02  0.79527881321E+02  0.47000000000E+01 0. -1.
         -5    1    1    2    0  502 -0.54057326415E+02  0.68879234634E+01 -0.35608690484E+02  0.65266429861E+02  0.47000000000E+01 0.  1.
        -11    1    1    2    0    0  0.32528738382E+02 -0.77217871645E+02  0.11671183066E+03  0.14367452780E+03  0.00000000000E+00 0. -1.
         11    1    1    2    0    0 -0.14499091526E+02  0.13211220177E+02  0.70894987623E+02  0.73558543105E+02  0.00000000000E+00 0.  1.
<mgrwt>
<rscale>  0 0.13494026E+03</rscale>
<asrwt>0</asrwt>
<pdfrwt beam="1">  1        2 0.42751030E-01 0.14466453E+03</pdfrwt>
<pdfrwt beam="2">  1       -2 0.12945490E-01 0.14466453E+03</pdfrwt>
<totfact> 0.49925113E+03</totfact>
</mgrwt>
</event>
<event>
 7    1  0.6387485E-006  0.1515009E+03  0.7546771E-02  0.1208453E+00
          1   -1    0    0  501    0  0.00000000000E+00  0.00000000000E+00  0.17951558296E+03  0.17951558296E+03  0.00000000000E+00 0. -1.
         -1   -1    0    0    0  501 -0.00000000000E+00 -0.00000000000E+00 -0.10650176126E+03  0.10650176126E+03  0.00000000000E+00 0.  1.
         23    2    1    2    0    0  0.55099425796E+02  0.65509300764E+02  0.21355896106E+02  0.15299869311E+03  0.12500044234E+03 0.  0.
          5    1    3    3  502    0  0.47684664878E+02 -0.11977014250E+02 -0.31692410567E+02  0.58683686169E+02  0.47000000000E+01 0.  1.
         -5    1    3    3    0  502  0.74147609178E+01  0.77486315014E+02  0.53048306674E+02  0.94315006944E+02  0.47000000000E+01 0.  1.
        -11    1    1    2    0    0 -0.76919664798E+02 -0.57595397178E+02  0.53053228592E+02  0.10976570354E+03  0.00000000000E+00 0. -1.
         11    1    1    2    0    0  0.21820239002E+02 -0.79139035858E+01 -0.13953029955E+01  0.23252947566E+02  0.00000000000E+00 0.  1.
<mgrwt>
<rscale>  0 0.14368610E+03</rscale>
<asrwt>0</asrwt>
<pdfrwt beam="1">  1        1 0.27617782E-01 0.15150091E+03</pdfrwt>
<pdfrwt beam="2">  1       -1 0.16384886E-01 0.15150091E+03</pdfrwt>
<totfact> 0.45271760E+03</totfact>
</mgrwt>
</event>
<event>
 7    1  0.6387485E-006  0.1317746E+03  0.7546771E-02  0.1238063E+00
          1   -1    0    0  501    0  0.00000000000E+00  0.00000000000E+00  0.18689933737E+02  0.18689933737E+02  0.00000000000E+00 0. -1.
         -1   -1    0    0    0  501 -0.00000000000E+00 -0.00000000000E+00 -0.72785536015E+03  0.72785536015E+03  0.00000000000E+00 0.  1.
         23    2    1    2    0    0 -0.27023189545E+02  0.31753305707E+02 -0.36576584953E+03  0.38877910241E+03  0.12500403430E+03 0.  0.
          5    1    3    3  502    0  0.53371393519E+01 -0.39162126676E+02 -0.21843565953E+03  0.22203239533E+03  0.47000000000E+01 0.  1.
         -5    1    3    3    0  502 -0.32360328896E+02  0.70915432384E+02 -0.14733019000E+03  0.16674670708E+03  0.47000000000E+01 0.  1.
        -11    1    1    2    0    0  0.41786738241E+02  0.13066898105E+02 -0.24193988958E+03  0.24586944805E+03  0.00000000000E+00 0.  1.
         11    1    1    2    0    0 -0.14763548696E+02 -0.44820203812E+02 -0.10145968731E+03  0.11189674342E+03  0.00000000000E+00 0. -1.
<mgrwt>
<rscale>  0 0.12310355E+03</rscale>
<asrwt>0</asrwt>
<pdfrwt beam="1">  1        1 0.28753740E-02 0.13177456E+03</pdfrwt>
<pdfrwt beam="2">  1       -1 0.11197776E+00 0.13177456E+03</pdfrwt>
<totfact> 0.27137778E+03</totfact>
</mgrwt>
</event>
<event>
 7    1  0.6387485E-006  0.1566617E+03  0.7546771E-02  0.1200544E+00
          1   -1    0    0  501    0  0.00000000000E+00  0.00000000000E+00  0.45314161967E+02  0.45314161967E+02  0.00000000000E+00 0. -1.
         -1   -1    0    0    0  501 -0.00000000000E+00 -0.00000000000E+00 -0.47357292109E+03  0.47357292109E+03  0.00000000000E+00 0.  1.
         23    2    1    2    0    0 -0.45047598432E+02  0.82997445077E+02 -0.27910426269E+03  0.32006575789E+03  0.12500015163E+03 0.  0.
          5    1    3    3  502    0  0.85534367594E+01  0.99739435542E+02 -0.18394523818E+03  0.20947328453E+03  0.47000000000E+01 0. -1.
         -5    1    3    3    0  502 -0.53601035192E+02 -0.16741990465E+02 -0.95159024505E+02  0.11059247336E+03  0.47000000000E+01 0. -1.
        -11    1    1    2    0    0 -0.87073545756E+01 -0.75925074784E+02 -0.76145787928E+02  0.10788241758E+03  0.00000000000E+00 0.  1.
         11    1    1    2    0    0  0.53754953008E+02 -0.70723702930E+01 -0.73008708507E+02  0.90938907582E+02  0.00000000000E+00 0. -1.
<mgrwt>
<rscale>  0 0.14994229E+03</rscale>
<asrwt>0</asrwt>
<pdfrwt beam="1">  1        1 0.69714094E-02 0.15666174E+03</pdfrwt>
<pdfrwt beam="2">  1       -1 0.72857374E-01 0.15666174E+03</pdfrwt>
<totfact> 0.20303011E+03</totfact>
</mgrwt>
</event>
<event>
 7    1  0.6387485E-006  0.1190675E+03  0.7546771E-02  0.1254601E+00
         -2   -1    0    0    0  501 -0.00000000000E+00  0.00000000000E+00  0.38905748462E+03  0.38905748462E+03  0.00000000000E+00 0.  1.
          2   -1    0    0  501    0  0.00000000000E+00 -0.00000000000E+00 -0.30174664796E+02  0.30174664796E+02  0.00000000000E+00 0. -1.
         23    2    1    2    0    0  0.89609419725E+01  0.37756877945E+02  0.19247884478E+03  0.22632980345E+03  0.11256639786E+03 0.  0.
          5    1    3    3  502    0 -0.13686685095E+02 -0.31218364575E+02  0.11505117858E+03  0.12008653267E+03  0.47000000000E+01 0. -1.
         -5    1    3    3    0  502  0.22647627067E+02  0.68975242520E+02  0.77427666198E+02  0.10624327078E+03  0.47000000000E+01 0.  1.
        -11    1    1    2    0    0  0.18459823650E+02 -0.51979581947E+02  0.57407257687E+02  0.79613034508E+02  0.00000000000E+00 0. -1.
         11    1    1    2    0    0 -0.27420765623E+02  0.14222704002E+02  0.10899671736E+03  0.11328931146E+03  0.00000000000E+00 0.  1.
<mgrwt>
<rscale>  0 0.11328711E+03</rscale>
<asrwt>0</asrwt>
<pdfrwt beam="2">  1        2 0.46422564E-02 0.11906752E+03</pdfrwt>
<pdfrwt beam="1">  1       -2 0.59854994E-01 0.11906752E+03</pdfrwt>
<totfact> 0.43369437E+03</totfact>
</mgrwt>
</event>
<event>
 7    1  0.6387485E-006  0.1720534E+03  0.7546771E-02  0.1181849E+00
         -1   -1    0    0    0  501 -0.00000000000E+00  0.00000000000E+00  0.18740229742E+03  0.18740229742E+03  0.00000000000E+00 0.  1.
          1   -1    0    0  501    0  0.00000000000E+00 -0.00000000000E+00 -0.15518014983E+03  0.15518014983E+03  0.00000000000E+00 0. -1.
         23    2    1    2    0    0  0.50471764414E+02 -0.10692389426E+03  0.73547476520E+02  0.18711390393E+03  0.12498905382E+03 0.  0.
          5    1    3    3  502    0  0.38678133927E+02  0.14730716527E+02  0.45376744913E+02  0.61596518021E+02  0.47000000000E+01 0.  1.
         -5    1    3    3    0  502  0.11793630487E+02 -0.12165461079E+03  0.28170731608E+02  0.12551738591E+03  0.47000000000E+01 0.  1.
        -11    1    1    2    0    0 -0.39635892002E+02  0.20094125291E+02  0.19881563757E+02  0.48683204326E+02  0.00000000000E+00 0.  1.
         11    1    1    2    0    0 -0.10835872412E+02  0.86829768972E+02 -0.61206892694E+02  0.10678533899E+03  0.00000000000E+00 0. -1.
<mgrwt>
<rscale>  0 0.16621882E+03</rscale>
<asrwt>0</asrwt>
<pdfrwt beam="2">  1        1 0.23873869E-01 0.17205343E+03</pdfrwt>
<pdfrwt beam="1">  1       -1 0.28831123E-01 0.17205343E+03</pdfrwt>
<totfact> 0.21808737E+03</totfact>
</mgrwt>
</event>
<event>
 7    1  0.6387485E-006  0.3265760E+03  0.7546771E-02  0.1073868E+00
         -2   -1    0    0    0  501 -0.00000000000E+00  0.00000000000E+00  0.35524212292E+03  0.35524212292E+03  0.00000000000E+00 0.  1.
          2   -1    0    0  501    0  0.00000000000E+00 -0.00000000000E+00 -0.29644869557E+03  0.29644869557E+03  0.00000000000E+00 0. -1.
         23    2    1    2    0    0  0.56793113528E+02 -0.29631256504E+03  0.75699012672E+02  0.33523462019E+03  0.12500126443E+03 0.  0.
          5    1    3    3  502    0  0.27634430047E+02 -0.65596311771E+02  0.73782217266E+02  0.10262769327E+03  0.47000000000E+01 0.  1.
         -5    1    3    3    0  502  0.29158683481E+02 -0.23071625327E+03  0.19167954064E+01  0.23260692691E+03  0.47000000000E+01 0.  1.
        -11    1    1    2    0    0 -0.37393644215E+02  0.19523895078E+03 -0.55740266556E+02  0.20645461934E+03  0.00000000000E+00 0. -1.
         11    1    1    2    0    0 -0.19399469313E+02  0.10107361426E+03  0.38834681227E+02  0.11000157896E+03  0.00000000000E+00 0.  1.
<mgrwt>
<rscale>  0 0.32390041E+03</rscale>
<asrwt>0</asrwt>
<pdfrwt beam="2">  1        2 0.45607492E-01 0.32657604E+03</pdfrwt>
<pdfrwt beam="1">  1       -2 0.54652634E-01 0.32657604E+03</pdfrwt>
<totfact> 0.35666377E+02</totfact>
</mgrwt>
</event>
<event>
 7    1  0.6387485E-006  0.1984161E+03  0.7546771E-02  0.1155541E+00
          4   -1    0    0  501    0  0.00000000000E+00  0.00000000000E+00  0.13330583194E+04  0.13330583194E+04  0.00000000000E+00 0.  1.
         -4   -1    0    0    0  501 -0.00000000000E+00 -0.00000000000E+00 -0.26858496458E+02  0.26858496458E+02  0.00000000000E+00 0. -1.
         23    2    1    2    0    0  0.69108773223E+02  0.13772259940E+03  0.62901813815E+03  0.65957014584E+03  0.12500168891E+03 0.  0.
          5    1    3    3  502    0  0.20397077672E+02  0.10399194840E+03  0.55296021499E+03  0.56304303163E+03  0.47000000000E+01 0.  1.
         -5    1    3    3    0  502  0.48711695551E+02  0.33730651005E+02  0.76057923164E+02  0.96527114205E+02  0.47000000000E+01 0.  1.
        -11    1    1    2    0    0 -0.45412303632E+02 -0.37841468936E+02  0.11978990365E+03  0.13358096837E+03  0.00000000000E+00 0. -1.
         11    1    1    2    0    0 -0.23696469591E+02 -0.99881130468E+02  0.55739178112E+03  0.56676570164E+03  0.00000000000E+00 0.  1.
<mgrwt>
<rscale>  0 0.19327438E+03</rscale>
<asrwt>0</asrwt>
<pdfrwt beam="1">  1        4 0.20508584E+00 0.19841613E+03</pdfrwt>
<pdfrwt beam="2">  1       -4 0.41320774E-02 0.19841613E+03</pdfrwt>
<totfact> 0.77852796E+01</totfact>
</mgrwt>
</event>
<event>
 7    1  0.6387485E-006  0.2174807E+03  0.7546771E-02  0.1139044E+00
          2   -1    0    0  501    0  0.00000000000E+00  0.00000000000E+00  0.35539821373E+03  0.35539821373E+03  0.00000000000E+00 0. -1.
         -2   -1    0    0    0  501 -0.00000000000E+00 -0.00000000000E+00 -0.13711418409E+03  0.13711418409E+03  0.00000000000E+00 0.  1.
         23    2    1    2    0    0 -0.12950335996E+03 -0.12207864226E+03  0.34466979535E+02  0.22019494991E+03  0.12499411247E+03 0.  0.
          5    1    3    3  502    0 -0.12845131644E+03 -0.13319084371E+03  0.15336602240E+01  0.18510533125E+03  0.47000000000E+01 0.  1.
         -5    1    3    3    0  502 -0.10520435130E+01  0.11112201451E+02  0.32933319311E+02  0.35089618657E+02  0.47000000000E+01 0.  1.
        -11    1    1    2    0    0  0.37876674911E+02  0.89993650133E-01  0.65541354931E+01  0.38439657819E+02  0.00000000000E+00 0.  1.
         11    1    1    2    0    0  0.91626685044E+02  0.12198864861E+03  0.17726291462E+03  0.23387779009E+03  0.00000000000E+00 0. -1.
<mgrwt>
<rscale>  0 0.21321623E+03</rscale>
<asrwt>0</asrwt>
<pdfrwt beam="1">  1        2 0.54676648E-01 0.21748067E+03</pdfrwt>
<pdfrwt beam="2">  1       -2 0.21094490E-01 0.21748067E+03</pdfrwt>
<totfact> 0.17309539E+03</totfact>
</mgrwt>
</event>
<event>
 7    1  0.6387485E-006  0.1400057E+03  0.7546771E-02  0.1224363E+00
         -2   -1    0    0    0  501 -0.00000000000E+00  0.00000000000E+00  0.77115365805E+02  0.77115365805E+02  0.00000000000E+00 0.  1.
          2   -1    0    0  501    0  0.00000000000E+00 -0.00000000000E+00 -0.21172677950E+03  0.21172677950E+03  0.00000000000E+00 0. -1.
         23    2    1    2    0    0  0.43175273004E+02  0.45957620672E+02 -0.47807154102E+02  0.14794295682E+03  0.12500154955E+03 0.  0.
          5    1    3    3  502    0  0.27235548997E+02 -0.40140082016E+02 -0.33396812142E+02  0.59079932081E+02  0.47000000000E+01 0.  1.
         -5    1    3    3    0  502  0.15939724007E+02  0.86097702688E+02 -0.14410341960E+02  0.88863024734E+02  0.47000000000E+01 0.  1.
        -11    1    1    2    0    0 -0.38661103210E+02 -0.59438692886E+01 -0.92311465082E+02  0.10025675573E+03  0.00000000000E+00 0. -1.
         11    1    1    2    0    0 -0.45141697937E+01 -0.40013751383E+02  0.55072054865E+01  0.40642432764E+02  0.00000000000E+00 0.  1.
<mgrwt>
<rscale>  0 0.13210676E+03</rscale>
<asrwt>0</asrwt>
<pdfrwt beam="2">  1        2 0.32573351E-01 0.14000569E+03</pdfrwt>
<pdfrwt beam="1">  1       -2 0.11863902E-01 0.14000569E+03</pdfrwt>
<totfact> 0.76631483E+03</totfact>
</mgrwt>
</event>
<event>
 7    1  0.6387485E-006  0.1531590E+03  0.7546771E-02  0.1204761E+00
          1   -1    0    0  501    0  0.00000000000E+00  0.00000000000E+00  0.38333167563E+02  0.38333167563E+02  0.00000000000E+00 0. -1.
         -1   -1    0    0    0  501 -0.00000000000E+00 -0.00000000000E+00 -0.54547276274E+03  0.54547276274E+03  0.00000000000E+00 0.  1.
         23    2    1    2    0    0 -0.26607875248E+02  0.84403577706E+02 -0.34097377289E+03  0.37379244325E+03  0.12500293549E+03 0.  0.
          5    1    3    3  502    0 -0.25683335898E+01  0.11234579898E+03 -0.28711553450E+03  0.30835952237E+03  0.47000000000E+01 0.  1.
         -5    1    3    3    0  502 -0.24039541659E+02 -0.27942221275E+02 -0.53858238386E+02  0.65432920881E+02  0.47000000000E+01 0.  1.
        -11    1    1    2    0    0  0.43549051605E+01 -0.13101207130E+02  0.11060286635E+02  0.17690018871E+02  0.00000000000E+00 0. -1.
         11    1    1    2    0    0  0.22252970088E+02 -0.71302370576E+02 -0.17722610892E+03  0.19232346818E+03  0.00000000000E+00 0.  1.
<mgrwt>
<rscale>  0 0.14656307E+03</rscale>
<asrwt>0</asrwt>
<pdfrwt beam="1">  1        1 0.58974106E-02 0.15315899E+03</pdfrwt>
<pdfrwt beam="2">  1       -1 0.83918884E-01 0.15315899E+03</pdfrwt>
<totfact> 0.19083741E+03</totfact>
</mgrwt>
</event>
<event>
 7    1  0.6387485E-006  0.2696518E+03  0.7546771E-02  0.1103625E+00
         -2   -1    0    0    0  501 -0.00000000000E+00  0.00000000000E+00  0.23665988491E+03  0.23665988491E+03  0.00000000000E+00 0.  1.
          2   -1    0    0  501    0  0.00000000000E+00 -0.00000000000E+00 -0.29794370262E+03  0.29794370262E+03  0.00000000000E+00 0. -1.
         23    2    1    2    0    0  0.22961583672E+03 -0.66058617217E+02  0.96154178172E+01  0.26982319603E+03  0.12499970991E+03 0.  0.
          5    1    3    3  502    0  0.22861849635E+03 -0.85808760060E+02 -0.58110151903E+01  0.24430599271E+03  0.47000000000E+01 0. -1.
         -5    1    3    3    0  502  0.99734037028E+00  0.19750142843E+02  0.15426433008E+02  0.25517203324E+02  0.47000000000E+01 0. -1.
        -11    1    1    2    0    0 -0.13336841239E+03  0.33607372831E+02  0.55568761105E+01  0.13764980133E+03  0.00000000000E+00 0.  1.
         11    1    1    2    0    0 -0.96247424325E+02  0.32451244387E+02 -0.76456111632E+02  0.12713059017E+03  0.00000000000E+00 0. -1.
<mgrwt>
<rscale>  0 0.26594087E+03</rscale>
<asrwt>0</asrwt>
<pdfrwt beam="2">  1        2 0.45837493E-01 0.26965181E+03</pdfrwt>
<pdfrwt beam="1">  1       -2 0.36409213E-01 0.26965181E+03</pdfrwt>
<totfact> 0.78724592E+02</totfact>
</mgrwt>
</event>
<event>
 6    1  0.6387485E-006  0.2957353E+03  0.7546771E-02  0.1090498E+00
         -1   -1    0    0    0  501 -0.00000000000E+00  0.00000000000E+00  0.20166302457E+03  0.20166302457E+03  0.00000000000E+00 0.  1.
          1   -1    0    0  501    0  0.00000000000E+00 -0.00000000000E+00 -0.45484537253E+03  0.45484537253E+03  0.00000000000E+00 0. -1.
          5    1    1    2  502    0  0.60428070696E+02 -0.98228386999E+02 -0.79321218280E+02  0.14005110999E+03  0.47000000000E+01 0. -1.
         -5    1    1    2    0  502  0.40275703980E+02 -0.13754089588E+03  0.61929076329E+02  0.15619516915E+03  0.47000000000E+01 0.  1.
        -11    1    1    2    0    0 -0.86860088828E+02  0.92514724504E+02 -0.12978072431E+03  0.18151221911E+03  0.00000000000E+00 0.  1.
         11    1    1    2    0    0 -0.13843685848E+02  0.14325455837E+03 -0.10600948169E+03  0.17874989886E+03  0.00000000000E+00 0. -1.
<mgrwt>
<rscale>  0 0.28971558E+03</rscale>
<asrwt>0</asrwt>
<pdfrwt beam="2">  1        1 0.69976210E-01 0.29573531E+03</pdfrwt>
<pdfrwt beam="1">  1       -1 0.31025081E-01 0.29573531E+03</pdfrwt>
<totfact> 0.49607684E+02</totfact>
</mgrwt>
</event>
<event>
 7    1  0.6387485E-006  0.1118158E+03  0.7546771E-02  0.1267250E+00
         -2   -1    0    0    0  501 -0.00000000000E+00  0.00000000000E+00  0.16029015209E+03  0.16029015209E+03  0.00000000000E+00 0.  1.
          2   -1    0    0  501    0  0.00000000000E+00 -0.00000000000E+00 -0.10974250148E+03  0.10974250148E+03  0.00000000000E+00 0. -1.
         23    2    1    2    0    0 -0.24554816169E+01 -0.17220455278E+02  0.11294864011E+03  0.15893448675E+03  0.11045452596E+03 0.  0.
          5    1    3    3  502    0 -0.43650657658E+02  0.13899200114E+02  0.15562056726E+02  0.48609004179E+02  0.47000000000E+01 0. -1.
         -5    1    3    3    0  502  0.41195176041E+02 -0.31119655392E+02  0.97386583388E+02  0.11032548257E+03  0.47000000000E+01 0.  1.
        -11    1    1    2    0    0  0.22971584804E+02  0.41574909373E+02 -0.81521917215E+01  0.48193620196E+02  0.00000000000E+00 0.  1.
         11    1    1    2    0    0 -0.20516103187E+02 -0.24354454095E+02 -0.54248797785E+02  0.62904546619E+02  0.00000000000E+00 0. -1.
<mgrwt>
<rscale>  0 0.10647008E+03</rscale>
<asrwt>0</asrwt>
<pdfrwt beam="2">  1        2 0.16883462E-01 0.11181581E+03</pdfrwt>
<pdfrwt beam="1">  1       -2 0.24660023E-01 0.11181581E+03</pdfrwt>
<totfact> 0.46455394E+03</totfact>
</mgrwt>
</event>
<event>
 7    1  0.6387485E-006  0.1406276E+03  0.7546771E-02  0.1222928E+00
         -2   -1    0    0    0  501 -0.00000000000E+00  0.00000000000E+00  0.17927356401E+03  0.17927356401E+03  0.00000000000E+00 0.  1.
          2   -1    0    0  501    0  0.00000000000E+00 -0.00000000000E+00 -0.93631101801E+02  0.93631101801E+02  0.00000000000E+00 0. -1.
         23    2    1    2    0    0  0.62268174881E+02 -0.16564657214E+02  0.75473035204E+02  0.15960048072E+03  0.12499768370E+03 0.  0.
          5    1    3    3  502    0  0.28146312305E+02 -0.58532698629E+01 -0.33745579740E+02  0.44579477526E+02  0.47000000000E+01 0.  1.
         -5    1    3    3    0  502  0.34121862576E+02 -0.10711387351E+02  0.10921861494E+03  0.11502100319E+03  0.47000000000E+01 0.  1.
        -11    1    1    2    0    0 -0.66833881277E+02  0.10390692979E+01  0.41049596837E+02  0.78440530034E+02  0.00000000000E+00 0.  1.
         11    1    1    2    0    0  0.45657063960E+01  0.15525587916E+02 -0.30880169835E+02  0.34863655058E+02  0.00000000000E+00 0. -1.
<mgrwt>
<rscale>  0 0.13309919E+03</rscale>
<asrwt>0</asrwt>
<pdfrwt beam="2">  1        2 0.14404785E-01 0.14062764E+03</pdfrwt>
<pdfrwt beam="1">  1       -2 0.27580548E-01 0.14062764E+03</pdfrwt>
<totfact> 0.46614918E+03</totfact>
</mgrwt>
</event>
<event>
 7    1  0.6387485E-006  0.1397366E+03  0.7546771E-02  0.1224451E+00
          1   -1    0    0  501    0  0.00000000000E+00  0.00000000000E+00  0.18727968358E+03  0.18727968358E+03  0.00000000000E+00 0. -1.
         -1   -1    0    0    0  501 -0.00000000000E+00 -0.00000000000E+00 -0.88791311544E+02  0.88791311544E+02  0.00000000000E+00 0.  1.
         23    2    1    2    0    0 -0.62394363575E+02 -0.30311991766E+01  0.23332313662E+02  0.14167118916E+03  0.12499633675E+03 0.  0.
          5    1    3    3  502    0 -0.65429912164E+02 -0.21084360795E+02  0.65745408897E+02  0.95237453068E+02  0.47000000000E+01 0. -1.
         -5    1    3    3    0  502  0.30355485883E+01  0.18053161618E+02 -0.42413095235E+02  0.46433736088E+02  0.47000000000E+01 0. -1.
        -11    1    1    2    0    0  0.19033000167E+02 -0.71745282231E+01  0.86148643108E+02  0.88517329715E+02  0.00000000000E+00 0. -1.
         11    1    1    2    0    0  0.43361363408E+02  0.10205727400E+02 -0.10992584730E+02  0.45882476256E+02  0.00000000000E+00 0.  1.
<mgrwt>
<rscale>  0 0.13204608E+03</rscale>
<asrwt>0</asrwt>
<pdfrwt beam="1">  1        1 0.28812259E-01 0.13973664E+03</pdfrwt>
<pdfrwt beam="2">  1       -1 0.13660202E-01 0.13973664E+03</pdfrwt>
<totfact> 0.56851684E+03</totfact>
</mgrwt>
</event>
<event>
 7    1  0.6387485E-006  0.1423365E+03  0.7546771E-02  0.1220806E+00
          3   -1    0    0  501    0  0.00000000000E+00  0.00000000000E+00  0.43497560804E+02  0.43497560804E+02  0.00000000000E+00 0. -1.
         -3   -1    0    0    0  501 -0.00000000000E+00 -0.00000000000E+00 -0.64189044736E+03  0.64189044736E+03  0.00000000000E+00 0.  1.
         23    2    1    2    0    0  0.68062955424E+02  0.63478013186E+00 -0.53813806541E+03  0.55664375261E+03  0.12500688394E+03 0.  0.
          5    1    3    3  502    0 -0.66732240043E+01 -0.18787378407E+02 -0.38045087298E+03  0.38100190847E+03  0.47000000000E+01 0. -1.
         -5    1    3    3    0  502  0.74736179428E+02  0.19422158539E+02 -0.15768719243E+03  0.17564184414E+03  0.47000000000E+01 0. -1.
        -11    1    1    2    0    0 -0.28229167543E+02  0.40343708048E+02 -0.50928983786E+02  0.70839692749E+02  0.00000000000E+00 0.  1.
         11    1    1    2    0    0 -0.39833787881E+02 -0.40978488180E+02 -0.93258373561E+01  0.57904562799E+02  0.00000000000E+00 0. -1.
<mgrwt>
<rscale>  0 0.13458532E+03</rscale>
<asrwt>0</asrwt>
<pdfrwt beam="1">  1        3 0.66919328E-02 0.14233654E+03</pdfrwt>
<pdfrwt beam="2">  1       -3 0.98752371E-01 0.14233654E+03</pdfrwt>
<totfact> 0.31152268E+02</totfact>
</mgrwt>
</event>
<event>
 7    1  0.6387485E-006  0.1309314E+03  0.7546771E-02  0.1239984E+00
         -2   -1    0    0    0  501 -0.00000000000E+00  0.00000000000E+00  0.71084051433E+02  0.71084051433E+02  0.00000000000E+00 0.  1.
          2   -1    0    0  501    0  0.00000000000E+00 -0.00000000000E+00 -0.18531950939E+03  0.18531950939E+03  0.00000000000E+00 0. -1.
         23    2    1    2    0    0 -0.17828112725E+02 -0.34637613161E+02 -0.59633683005E+02  0.14387216432E+03  0.12500167067E+03 0.  0.
          5    1    3    3  502    0  0.11337170067E+02 -0.36321850804E+02  0.30509234195E+02  0.48997057484E+02  0.47000000000E+01 0. -1.
         -5    1    3    3    0  502 -0.29165282792E+02  0.16842376431E+01 -0.90142917200E+02  0.94875106841E+02  0.47000000000E+01 0. -1.
        -11    1    1    2    0    0 -0.22385441823E+02  0.15161854245E+02 -0.61630796799E+02  0.67300408200E+02  0.00000000000E+00 0. -1.
         11    1    1    2    0    0  0.40213554548E+02  0.19475758916E+02  0.70290218436E+01  0.45230988303E+02  0.00000000000E+00 0.  1.
<mgrwt>
<rscale>  0 0.12190688E+03</rscale>
<asrwt>0</asrwt>
<pdfrwt beam="2">  1        2 0.28510694E-01 0.13093137E+03</pdfrwt>
<pdfrwt beam="1">  1       -2 0.10936008E-01 0.13093137E+03</pdfrwt>
<totfact> 0.10023909E+04</totfact>
</mgrwt>
</event>
<event>
 7    1  0.6387485E-006  0.1349029E+03  0.7546771E-02  0.1228253E+00
          1   -1    0    0  501    0  0.00000000000E+00  0.00000000000E+00  0.20774513964E+03  0.20774513964E+03  0.00000000000E+00 0. -1.
         -1   -1    0    0    0  501 -0.00000000000E+00 -0.00000000000E+00 -0.75128232060E+02  0.75128232060E+02  0.00000000000E+00 0.  1.
         23    2    1    2    0    0  0.68548971765E+02 -0.17808878717E+02  0.62555356028E+02  0.14870092312E+03  0.11481582765E+03 0.  0.
          5    1    3    3  502    0  0.43523902856E+02 -0.53448763746E+01  0.95527817045E+02  0.10521668904E+03  0.47000000000E+01 0. -1.
         -5    1    3    3    0  502  0.25025068909E+02 -0.12464002342E+02 -0.32972461017E+02  0.43484234083E+02  0.47000000000E+01 0.  1.
        -11    1    1    2    0    0 -0.45535176844E+02 -0.26837828994E+02  0.66421527449E+01  0.53271376821E+02  0.00000000000E+00 0.  1.
         11    1    1    2    0    0 -0.23013794921E+02  0.44646707711E+02  0.63419398804E+02  0.80901071752E+02  0.00000000000E+00 0. -1.
<mgrwt>
<rscale>  0 0.12946383E+03</rscale>
<asrwt>0</asrwt>
<pdfrwt beam="1">  1        1 0.31960790E-01 0.13490290E+03</pdfrwt>
<pdfrwt beam="2">  1       -1 0.11558190E-01 0.13490290E+03</pdfrwt>
<totfact> 0.64578514E+03</totfact>
</mgrwt>
</event>
<event>
 7    1  0.6387485E-006  0.1483511E+03  0.7546771E-02  0.1207558E+00
         -1   -1    0    0    0  501 -0.00000000000E+00  0.00000000000E+00  0.10304810330E+04  0.10304810330E+04  0.00000000000E+00 0.  1.
          1   -1    0    0  501    0  0.00000000000E+00 -0.00000000000E+00 -0.77797146316E+02  0.77797146316E+02  0.00000000000E+00 0. -1.
         23    2    1    2    0    0 -0.27799350022E+02  0.93030546955E+02  0.96341072692E+03  0.97476576237E+03  0.11216316786E+03 0.  0.
          5    1    3    3  502    0 -0.56572801983E+02  0.10152874602E+03  0.69838487237E+03  0.70800571194E+03  0.47000000000E+01 0. -1.
         -5    1    3    3    0  502  0.28773451960E+02 -0.84981990612E+01  0.26502585455E+03  0.26676005043E+03  0.47000000000E+01 0.  1.
        -11    1    1    2    0    0  0.56725280465E+02 -0.76336722122E+02 -0.23144387892E+02  0.97881128309E+02  0.00000000000E+00 0. -1.
         11    1    1    2    0    0 -0.28925930442E+02 -0.16693824833E+02  0.12417547649E+02  0.35631288625E+02  0.00000000000E+00 0.  1.
<mgrwt>
<rscale>  0 0.14437667E+03</rscale>
<asrwt>0</asrwt>
<pdfrwt beam="2">  1        1 0.11968792E-01 0.14835115E+03</pdfrwt>
<pdfrwt beam="1">  1       -1 0.15853553E+00 0.14835115E+03</pdfrwt>
<totfact> 0.16687211E+02</totfact>
</mgrwt>
</event>
<event>
 7    1  0.6387485E-006  0.1374780E+03  0.7546771E-02  0.1229138E+00
         -2   -1    0    0    0  501 -0.00000000000E+00  0.00000000000E+00  0.62064618644E+02  0.62064618644E+02  0.00000000000E+00 0.  1.
          2   -1    0    0  501    0  0.00000000000E+00 -0.00000000000E+00 -0.24141577929E+03  0.24141577929E+03  0.00000000000E+00 0. -1.
         23    2    1    2    0    0  0.60115279828E+01 -0.56915236268E+02 -0.11584063212E+03  0.17977554734E+03  0.12499885113E+03 0.  0.
          5    1    3    3  502    0 -0.30212016515E+02 -0.34218411432E+02 -0.12726009335E+03  0.13528077093E+03  0.47000000000E+01 0. -1.
         -5    1    3    3    0  502  0.36223544498E+02 -0.22696824835E+02  0.11419461231E+02  0.44494776417E+02  0.47000000000E+01 0. -1.
        -11    1    1    2    0    0 -0.44482434324E+02  0.15124449361E+02 -0.15938686195E+02  0.49613280978E+02  0.00000000000E+00 0. -1.
         11    1    1    2    0    0  0.38470906341E+02  0.41790786907E+02 -0.47571842337E+02  0.74091569617E+02  0.00000000000E+00 0.  1.
<mgrwt>
<rscale>  0 0.12887302E+03</rscale>
<asrwt>0</asrwt>
<pdfrwt beam="2">  1        2 0.37140889E-01 0.13747798E+03</pdfrwt>
<pdfrwt beam="1">  1       -2 0.95484029E-02 0.13747798E+03</pdfrwt>
<totfact> 0.93706940E+03</totfact>
</mgrwt>
</event>
<event>
 7    1  0.6387485E-006  0.1564614E+03  0.7546771E-02  0.1200828E+00
          4   -1    0    0  501    0  0.00000000000E+00  0.00000000000E+00  0.13457746851E+03  0.13457746851E+03  0.00000000000E+00 0. -1.
         -4   -1    0    0    0  501 -0.00000000000E+00 -0.00000000000E+00 -0.15576110844E+03  0.15576110844E+03  0.00000000000E+00 0.  1.
         23    2    1    2    0    0 -0.60070497410E+02 -0.72433286308E+02 -0.28235022079E+02  0.15898865356E+03  0.12500051946E+03 0.  0.
          5    1    3    3  502    0 -0.37380094504E+02 -0.69460735348E+02  0.38776613249E+02  0.88021480078E+02  0.47000000000E+01 0.  1.
         -5    1    3    3    0  502 -0.22690402906E+02 -0.29725509604E+01 -0.67011635328E+02  0.70967173486E+02  0.47000000000E+01 0.  1.
        -11    1    1    2    0    0 -0.14327098242E+02  0.48827064614E+02 -0.89686390846E+01  0.51669957131E+02  0.00000000000E+00 0. -1.
         11    1    1    2    0    0  0.74397595652E+02  0.23606221694E+02  0.16020021232E+02  0.79679966251E+02  0.00000000000E+00 0.  1.
<mgrwt>
<rscale>  0 0.14971187E+03</rscale>
<asrwt>0</asrwt>
<pdfrwt beam="1">  1        4 0.20704226E-01 0.15646142E+03</pdfrwt>
<pdfrwt beam="2">  1       -4 0.23963247E-01 0.15646142E+03</pdfrwt>
<totfact> 0.58482927E+02</totfact>
</mgrwt>
</event>
<event>
 7    1  0.6387485E-006  0.1862576E+03  0.7546771E-02  0.1166751E+00
          1   -1    0    0  501    0  0.00000000000E+00  0.00000000000E+00  0.20947549045E+03  0.20947549045E+03  0.00000000000E+00 0. -1.
         -1   -1    0    0    0  501 -0.00000000000E+00 -0.00000000000E+00 -0.15325105986E+03  0.15325105986E+03  0.00000000000E+00 0.  1.
         23    2    1    2    0    0  0.96413962122E+02  0.98854100535E+02 -0.23851285960E+01  0.18627290079E+03  0.12499647773E+03 0.  0.
          5    1    3    3  502    0  0.10670282721E+03  0.12082527856E+03 -0.55425089169E+01  0.16136000334E+03  0.47000000000E+01 0.  1.
         -5    1    3    3    0  502 -0.10288865087E+02 -0.21971178024E+02  0.31573803210E+01  0.24912897444E+02  0.47000000000E+01 0.  1.
        -11    1    1    2    0    0 -0.25437632419E+02 -0.89967607792E+02  0.44500989480E+02  0.10354507067E+03  0.00000000000E+00 0.  1.
         11    1    1    2    0    0 -0.70976329703E+02 -0.88864927427E+01  0.14108569709E+02  0.72908578855E+02  0.00000000000E+00 0. -1.
<mgrwt>
<rscale>  0 0.18109110E+03</rscale>
<asrwt>0</asrwt>
<pdfrwt beam="1">  1        1 0.32226999E-01 0.18625763E+03</pdfrwt>
<pdfrwt beam="2">  1       -1 0.23577086E-01 0.18625763E+03</pdfrwt>
<totfact> 0.20942947E+03</totfact>
</mgrwt>
</event>
<event>
 7    1  0.6387485E-006  0.1547073E+03  0.7546771E-02  0.1204452E+00
          2   -1    0    0  501    0  0.00000000000E+00  0.00000000000E+00  0.50218823633E+03  0.50218823633E+03  0.00000000000E+00 0. -1.
         -2   -1    0    0    0  501 -0.00000000000E+00 -0.00000000000E+00 -0.40475078844E+02  0.40475078844E+02  0.00000000000E+00 0.  1.
         23    2    1    2    0    0 -0.33706809221E+02  0.84699974956E+02  0.20387673058E+03  0.25592979598E+03  0.12499641777E+03 0.  0.
          5    1    3    3  502    0  0.27490073466E+02  0.48520838567E+02  0.16612663410E+03  0.17530009832E+03  0.47000000000E+01 0. -1.
         -5    1    3    3    0  502 -0.61196882687E+02  0.36179136389E+02  0.37750096479E+02  0.80629697659E+02  0.47000000000E+01 0. -1.
        -11    1    1    2    0    0  0.39247400495E+02 -0.48995450613E+02  0.64337561597E+02  0.89890124366E+02  0.00000000000E+00 0.  1.
         11    1    1    2    0    0 -0.55405912733E+01 -0.35704524343E+02  0.19349886531E+03  0.19684339483E+03  0.00000000000E+00 0. -1.
<mgrwt>
<rscale>  0 0.14680692E+03</rscale>
<asrwt>0</asrwt>
<pdfrwt beam="1">  1        2 0.77259724E-01 0.15470727E+03</pdfrwt>
<pdfrwt beam="2">  1       -2 0.62269356E-02 0.15470727E+03</pdfrwt>
<totfact> 0.83395121E+03</totfact>
</mgrwt>
</event>
<event>
 7    1  0.6387485E-006  0.1350697E+03  0.7546771E-02  0.1231242E+00
         -3   -1    0    0    0  501 -0.00000000000E+00  0.00000000000E+00  0.38238204436E+03  0.38238204436E+03  0.00000000000E+00 0.  1.
          3   -1    0    0  501    0  0.00000000000E+00 -0.00000000000E+00 -0.39274653262E+02  0.39274653262E+02  0.00000000000E+00 0. -1.
         23    2    1    2    0    0 -0.29187927312E+02  0.42034252328E+02  0.22268687559E+03  0.26044820425E+03  0.12500003627E+03 0.  0.
          5    1    3    3  502    0 -0.40170172508E+02  0.15273407891E+02  0.82427102170E+01  0.44010817075E+02  0.47000000000E+01 0. -1.
         -5    1    3    3    0  502  0.10982245195E+02  0.26760844437E+02  0.21444416537E+03  0.21643738717E+03  0.47000000000E+01 0. -1.
        -11    1    1    2    0    0 -0.98490862199E+01 -0.38682133306E+02  0.61245437830E+01  0.40383436865E+02  0.00000000000E+00 0. -1.
         11    1    1    2    0    0  0.39037013532E+02 -0.33521190214E+01  0.11429597173E+03  0.12082505651E+03  0.00000000000E+00 0.  1.
<mgrwt>
<rscale>  0 0.12748076E+03</rscale>
<asrwt>0</asrwt>
<pdfrwt beam="2">  1        3 0.60422546E-02 0.13506970E+03</pdfrwt>
<pdfrwt beam="1">  1       -3 0.58828004E-01 0.13506970E+03</pdfrwt>
<totfact> 0.11114520E+03</totfact>
</mgrwt>
</event>
<event>
 6    1  0.6387485E-006  0.1561964E+03  0.7546771E-02  0.1207773E+00
         -3   -1    0    0    0  501 -0.00000000000E+00  0.00000000000E+00  0.20464167596E+02  0.20464167596E+02  0.00000000000E+00 0.  1.
          3   -1    0    0  501    0  0.00000000000E+00 -0.00000000000E+00 -0.90231228026E+03  0.90231228026E+03  0.00000000000E+00 0. -1.
          5    1    1    2  502    0 -0.84465383838E+02  0.41944366668E+02 -0.29702927116E+03  0.31167644904E+03  0.47000000000E+01 0. -1.
         -5    1    1    2    0  502  0.18900526063E+02 -0.57884162307E+02 -0.15635644044E+03  0.16786075360E+03  0.47000000000E+01 0.  1.
        -11    1    1    2    0    0  0.76577509653E+02  0.40131564286E+02 -0.30990032579E+03  0.32173415945E+03  0.00000000000E+00 0.  1.
         11    1    1    2    0    0 -0.11012651878E+02 -0.24191768647E+02 -0.11856207527E+03  0.12150508575E+03  0.00000000000E+00 0. -1.
<mgrwt>
<rscale>  0 0.14421055E+03</rscale>
<asrwt>0</asrwt>
<pdfrwt beam="2">  1        3 0.13881726E+00 0.15619643E+03</pdfrwt>
<pdfrwt beam="1">  1       -3 0.31483337E-02 0.15619643E+03</pdfrwt>
<totfact> 0.46714339E+02</totfact>
</mgrwt>
</event>
<event>
 7    1  0.6387485E-006  0.1420997E+03  0.7546771E-02  0.1221307E+00
         -1   -1    0    0    0  501 -0.00000000000E+00  0.00000000000E+00  0.75553624145E+02  0.75553624145E+02  0.00000000000E+00 0.  1.
          1   -1    0    0  501    0  0.00000000000E+00 -0.00000000000E+00 -0.22784378162E+03  0.22784378162E+03  0.00000000000E+00 0. -1.
         23    2    1    2    0    0  0.43647299830E+02 -0.51591713656E+02 -0.49343515595E+02  0.15042306230E+03  0.12500209374E+03 0.  0.
          5    1    3    3  502    0  0.14420413687E+02  0.11982563862E+02  0.35455925510E+02  0.40382456852E+02  0.47000000000E+01 0. -1.
         -5    1    3    3    0  502  0.29226886143E+02 -0.63574277518E+02 -0.84799441105E+02  0.11004060545E+03  0.47000000000E+01 0. -1.
        -11    1    1    2    0    0 -0.50674161382E+02  0.85066257027E+01 -0.13012771257E+02  0.53005334905E+02  0.00000000000E+00 0.  1.
         11    1    1    2    0    0  0.70268615523E+01  0.43085087954E+02 -0.89933870625E+02  0.99969008562E+02  0.00000000000E+00 0. -1.
<mgrwt>
<rscale>  0 0.13423302E+03</rscale>
<asrwt>0</asrwt>
<pdfrwt beam="2">  1        1 0.35052889E-01 0.14209967E+03</pdfrwt>
<pdfrwt beam="1">  1       -1 0.11623635E-01 0.14209967E+03</pdfrwt>
<totfact> 0.57278682E+03</totfact>
</mgrwt>
</event>
<event>
 7    1  0.6387485E-006  0.1755393E+03  0.7546771E-02  0.1178242E+00
         -1   -1    0    0    0  501 -0.00000000000E+00  0.00000000000E+00  0.83546506354E+02  0.83546506354E+02  0.00000000000E+00 0.  1.
          1   -1    0    0  501    0  0.00000000000E+00 -0.00000000000E+00 -0.33728053253E+03  0.33728053253E+03  0.00000000000E+00 0. -1.
         23    2    1    2    0    0  0.88887595648E+02 -0.85372358340E+02 -0.17828215691E+03  0.25019706057E+03  0.12499838965E+03 0.  0.
          5    1    3    3  502    0  0.11372010898E+02 -0.19248403526E+02  0.17941291868E+02  0.29048298126E+02  0.47000000000E+01 0. -1.
         -5    1    3    3    0  502  0.77515584749E+02 -0.66123954814E+02 -0.19622344877E+03  0.22114876244E+03  0.47000000000E+01 0. -1.
        -11    1    1    2    0    0 -0.37222633947E+02  0.36487359071E+02 -0.84137802719E+02  0.98974853859E+02  0.00000000000E+00 0. -1.
         11    1    1    2    0    0 -0.51664961701E+02  0.48884999269E+02  0.86859334532E+01  0.71655124457E+02  0.00000000000E+00 0.  1.
<mgrwt>
<rscale>  0 0.16962225E+03</rscale>
<asrwt>0</asrwt>
<pdfrwt beam="2">  1        1 0.51889312E-01 0.17553929E+03</pdfrwt>
<pdfrwt beam="1">  1       -1 0.12853309E-01 0.17553929E+03</pdfrwt>
<totfact> 0.30409080E+03</totfact>
</mgrwt>
</event>
<event>
 7    1  0.6387485E-006  0.1159301E+03  0.7546771E-02  0.1257965E+00
         -1   -1    0    0    0  501 -0.00000000000E+00  0.00000000000E+00  0.74573664940E+02  0.74573664940E+02  0.00000000000E+00 0.  1.
          1   -1    0    0  501    0  0.00000000000E+00 -0.00000000000E+00 -0.15581844170E+03  0.15581844170E+03  0.00000000000E+00 0. -1.
         23    2    1    2    0    0 -0.25492368527E+01 -0.33681219632E+02 -0.34240066688E+02  0.12088083127E+03  0.11090027068E+03 0.  0.
          5    1    3    3  502    0 -0.19024406349E+02 -0.14017102362E+02 -0.71471561105E+02  0.75423346799E+02  0.47000000000E+01 0. -1.
         -5    1    3    3    0  502  0.16475169497E+02 -0.19664117270E+02  0.37231494417E+02  0.45457484472E+02  0.47000000000E+01 0.  1.
        -11    1    1    2    0    0 -0.30127566935E+02  0.16977155926E+02  0.14813124556E+02  0.37620775801E+02  0.00000000000E+00 0.  1.
         11    1    1    2    0    0  0.32676803788E+02  0.16704063706E+02 -0.61817834628E+02  0.71890499568E+02  0.00000000000E+00 0. -1.
<mgrwt>
<rscale>  0 0.11141862E+03</rscale>
<asrwt>0</asrwt>
<pdfrwt beam="2">  1        1 0.23972068E-01 0.11593012E+03</pdfrwt>
<pdfrwt beam="1">  1       -1 0.11472871E-01 0.11593012E+03</pdfrwt>
<totfact> 0.92409785E+03</totfact>
</mgrwt>
</event>
<event>
 7    1  0.6387485E-006  0.1272615E+03  0.7546771E-02  0.1246689E+00
         -2   -1    0    0    0  501 -0.00000000000E+00  0.00000000000E+00  0.73501783662E+02  0.73501783662E+02  0.00000000000E+00 0.  1.
          2   -1    0    0  501    0  0.00000000000E+00 -0.00000000000E+00 -0.23806542461E+03  0.23806542461E+03  0.00000000000E+00 0. -1.
         23    2    1    2    0    0 -0.62418997053E+01  0.23126668950E+02 -0.59468393277E+01  0.12740034175E+03  0.12498671150E+03 0.  0.
          5    1    3    3  502    0  0.50821218717E+02  0.23991452895E+02 -0.31609342406E+02  0.64650031796E+02  0.47000000000E+01 0.  1.
         -5    1    3    3    0  502 -0.57063118422E+02 -0.86478394458E+00  0.25662503078E+02  0.62750309956E+02  0.47000000000E+01 0.  1.
        -11    1    1    2    0    0  0.34772406726E+02  0.19550019804E+02 -0.90243401126E+02  0.98667091730E+02  0.00000000000E+00 0.  1.
         11    1    1    2    0    0 -0.28530507021E+02 -0.42676688754E+02 -0.68373400490E+02  0.85499774786E+02  0.00000000000E+00 0. -1.
<mgrwt>
<rscale>  0 0.11784854E+03</rscale>
<asrwt>0</asrwt>
<pdfrwt beam="2">  1        2 0.36625449E-01 0.12726147E+03</pdfrwt>
<pdfrwt beam="1">  1       -2 0.11307967E-01 0.12726147E+03</pdfrwt>
<totfact> 0.72460461E+03</totfact>
</mgrwt>
</event>
<event>
 7    1  0.6387485E-006  0.1287200E+03  0.7546771E-02  0.1241279E+00
         -4   -1    0    0    0  501 -0.00000000000E+00  0.00000000000E+00  0.22249584525E+03  0.22249584525E+03  0.00000000000E+00 0.  1.
          4   -1    0    0  501    0  0.00000000000E+00 -0.00000000000E+00 -0.61115334878E+02  0.61115334878E+02  0.00000000000E+00 0. -1.
         23    2    1    2    0    0  0.25313925761E+02 -0.17395080534E+02  0.11491449977E+03  0.17255197594E+03  0.12500183390E+03 0.  0.
          5    1    3    3  502    0  0.68327978122E+02 -0.40026145671E+02  0.63191872575E+02  0.10142045006E+03  0.47000000000E+01 0. -1.
         -5    1    3    3    0  502 -0.43014052361E+02  0.22631065136E+02  0.51722627190E+02  0.71131525874E+02  0.47000000000E+01 0. -1.
        -11    1    1    2    0    0  0.16313321218E+02 -0.25078409288E+02  0.41802733723E+02  0.51405443372E+02  0.00000000000E+00 0.  1.
         11    1    1    2    0    0 -0.41627246980E+02  0.42473489822E+02  0.46632768859E+01  0.59653760821E+02  0.00000000000E+00 0. -1.
<mgrwt>
<rscale>  0 0.12110907E+03</rscale>
<asrwt>0</asrwt>
<pdfrwt beam="2">  1        4 0.94023593E-02 0.12872001E+03</pdfrwt>
<pdfrwt beam="1">  1       -4 0.34230130E-01 0.12872001E+03</pdfrwt>
<totfact> 0.11337367E+03</totfact>
</mgrwt>
</event>
<event>
 7    1  0.6387485E-006  0.1251016E+03  0.7546771E-02  0.1254478E+00
          1   -1    0    0  501    0  0.00000000000E+00  0.00000000000E+00  0.29712194186E+03  0.29712194186E+03  0.00000000000E+00 0. -1.
         -1   -1    0    0    0  501 -0.00000000000E+00 -0.00000000000E+00 -0.37140988717E+02  0.37140988717E+02  0.00000000000E+00 0.  1.
         23    2    1    2    0    0  0.10820448353E+01  0.48356779074E+01  0.16817567888E+03  0.20960311106E+03  0.12500340234E+03 0.  0.
          5    1    3    3  502    0 -0.10112152508E+02 -0.58254322773E+02  0.64419774581E+02  0.87566084228E+02  0.47000000000E+01 0.  1.
         -5    1    3    3    0  502  0.11194197344E+02  0.63090000680E+02  0.10375590430E+03  0.12203702683E+03  0.47000000000E+01 0.  1.
        -11    1    1    2    0    0  0.13520451443E+02 -0.31437577849E+02  0.74652270282E+01  0.35026468889E+02  0.00000000000E+00 0.  1.
         11    1    1    2    0    0 -0.14602496278E+02  0.26601899941E+02  0.84340047232E+02  0.89633350630E+02  0.00000000000E+00 0. -1.
<mgrwt>
<rscale>  0 0.11335613E+03</rscale>
<asrwt>0</asrwt>
<pdfrwt beam="1">  1        1 0.45711067E-01 0.12510158E+03</pdfrwt>
<pdfrwt beam="2">  1       -1 0.57139984E-02 0.12510158E+03</pdfrwt>
<totfact> 0.11948479E+04</totfact>
</mgrwt>
</event>
<event>
 7    1  0.6387485E-006  0.1781203E+03  0.7546771E-02  0.1175632E+00
          2   -1    0    0  501    0  0.00000000000E+00  0.00000000000E+00  0.64821197749E+03  0.64821197749E+03  0.00000000000E+00 0. -1.
         -2   -1    0    0    0  501 -0.00000000000E+00 -0.00000000000E+00 -0.43184007833E+02  0.43184007833E+02  0.00000000000E+00 0.  1.
         23    2    1    2    0    0  0.12444205056E+03  0.24784378926E+02  0.29488191513E+03  0.34450280631E+03  0.12500700102E+03 0.  0.
          5    1    3    3  502    0  0.93048231274E+02 -0.41495439323E+02  0.14151069396E+03  0.17443397413E+03  0.47000000000E+01 0.  1.
         -5    1    3    3    0  502  0.31393819283E+02  0.66279818249E+02  0.15337122117E+03  0.17006883218E+03  0.47000000000E+01 0.  1.
        -11    1    1    2    0    0 -0.38905132054E+02  0.50944039577E+01  0.20215335630E+03  0.20592605886E+03  0.00000000000E+00 0. -1.
         11    1    1    2    0    0 -0.85536918502E+02 -0.29878782884E+02  0.10799269823E+03  0.14096712015E+03  0.00000000000E+00 0.  1.
<mgrwt>
<rscale>  0 0.17214202E+03</rscale>
<asrwt>0</asrwt>
<pdfrwt beam="1">  1        2 0.99724912E-01 0.17812030E+03</pdfrwt>
<pdfrwt beam="2">  1       -2 0.66436940E-02 0.17812030E+03</pdfrwt>
<totfact> 0.56944518E+03</totfact>
</mgrwt>
</event>
<event>
 7    1  0.6387485E-006  0.1619734E+03  0.7546771E-02  0.1195810E+00
         -1   -1    0    0    0  501 -0.00000000000E+00  0.00000000000E+00  0.80277917646E+02  0.80277917646E+02  0.00000000000E+00 0.  1.
          1   -1    0    0  501    0  0.00000000000E+00 -0.00000000000E+00 -0.28888352639E+03  0.28888352639E+03  0.00000000000E+00 0. -1.
         23    2    1    2    0    0 -0.10010081490E+03  0.24286083620E+02 -0.65937149921E+02  0.17488020526E+03  0.12500156579E+03 0.  0.
          5    1    3    3  502    0 -0.12160836403E+03 -0.79831232131E+01 -0.57862941596E+02  0.13499086810E+03  0.47000000000E+01 0.  1.
         -5    1    3    3    0  502  0.21507549133E+02  0.32269206833E+02 -0.80742083244E+01  0.39889337164E+02  0.47000000000E+01 0.  1.
        -11    1    1    2    0    0 -0.65069459310E+01  0.12669239736E+02 -0.26972861750E+01  0.14495700519E+02  0.00000000000E+00 0.  1.
         11    1    1    2    0    0  0.10660776083E+03 -0.36955323356E+02 -0.13997117265E+03  0.17978553826E+03  0.00000000000E+00 0. -1.
<mgrwt>
<rscale>  0 0.15385905E+03</rscale>
<asrwt>0</asrwt>
<pdfrwt beam="2">  1        1 0.44443619E-01 0.16197339E+03</pdfrwt>
<pdfrwt beam="1">  1       -1 0.12350449E-01 0.16197339E+03</pdfrwt>
<totfact> 0.39126847E+03</totfact>
</mgrwt>
</event>
<event>
 7    1  0.6387485E-006  0.1277327E+03  0.7546771E-02  0.1244839E+00
         -2   -1    0    0    0  501 -0.00000000000E+00  0.00000000000E+00  0.20744000662E+03  0.20744000662E+03  0.00000000000E+00 0.  1.
          2   -1    0    0  501    0  0.00000000000E+00 -0.00000000000E+00 -0.75899894444E+02  0.75899894444E+02  0.00000000000E+00 0. -1.
         23    2    1    2    0    0 -0.18836478433E+02 -0.18323183072E+02  0.13676346107E+03  0.18713598624E+03  0.12500032442E+03 0.  0.
          5    1    3    3  502    0  0.35773705097E+02 -0.60862895286E+01 -0.27985923501E+01  0.36697724939E+02  0.47000000000E+01 0.  1.
         -5    1    3    3    0  502 -0.54610183530E+02 -0.12236893544E+02  0.13956205342E+03  0.15043826130E+03  0.47000000000E+01 0.  1.
        -11    1    1    2    0    0  0.77030252585E+00  0.54022281453E+02 -0.12701980266E+02  0.55500815868E+02  0.00000000000E+00 0. -1.
         11    1    1    2    0    0  0.18066175908E+02 -0.35699098381E+02  0.74786313697E+01  0.40703098952E+02  0.00000000000E+00 0.  1.
<mgrwt>
<rscale>  0 0.11894998E+03</rscale>
<asrwt>0</asrwt>
<pdfrwt beam="2">  1        2 0.11676907E-01 0.12773266E+03</pdfrwt>
<pdfrwt beam="1">  1       -2 0.31913847E-01 0.12773266E+03</pdfrwt>
<totfact> 0.45771041E+03</totfact>
</mgrwt>
</event>
<event>
 7    1  0.6387485E-006  0.1535865E+03  0.7546771E-02  0.1205146E+00
         -2   -1    0    0    0  501 -0.00000000000E+00  0.00000000000E+00  0.41044625912E+02  0.41044625912E+02  0.00000000000E+00 0.  1.
          2   -1    0    0  501    0  0.00000000000E+00 -0.00000000000E+00 -0.48398261890E+03  0.48398261890E+03  0.00000000000E+00 0. -1.
         23    2    1    2    0    0 -0.73522653610E+02 -0.50595469550E+02 -0.21177153789E+03  0.26160276034E+03  0.12499335112E+03 0.  0.
          5    1    3    3  502    0 -0.40900185805E+02 -0.85812041105E+02 -0.18068294410E+03  0.20421789315E+03  0.47000000000E+01 0.  1.
         -5    1    3    3    0  502 -0.32622467805E+02  0.35216571556E+02 -0.31088593800E+02  0.57384867189E+02  0.47000000000E+01 0.  1.
        -11    1    1    2    0    0  0.72288347901E+02  0.10562557391E+02 -0.86035878607E+02  0.11286870810E+03  0.00000000000E+00 0.  1.
         11    1    1    2    0    0  0.12343057089E+01  0.40032912158E+02 -0.14513057648E+03  0.15055577636E+03  0.00000000000E+00 0. -1.
<mgrwt>
<rscale>  0 0.14625992E+03</rscale>
<asrwt>0</asrwt>
<pdfrwt beam="2">  1        2 0.74458866E-01 0.15358652E+03</pdfrwt>
<pdfrwt beam="1">  1       -2 0.63145577E-02 0.15358652E+03</pdfrwt>
<totfact> 0.84985043E+03</totfact>
</mgrwt>
</event>
<event>
 7    1  0.6387485E-006  0.1681769E+03  0.7546771E-02  0.1186372E+00
          1   -1    0    0  501    0  0.00000000000E+00  0.00000000000E+00  0.18195719973E+03  0.18195719973E+03  0.00000000000E+00 0. -1.
         -1   -1    0    0    0  501 -0.00000000000E+00 -0.00000000000E+00 -0.13485287830E+03  0.13485287830E+03  0.00000000000E+00 0.  1.
         23    2    1    2    0    0 -0.82380080802E+02  0.76628457843E+02  0.27827238723E+02  0.17046354794E+03  0.12500027079E+03 0.  0.
          5    1    3    3  502    0 -0.87499634516E+02  0.10564818891E+03  0.15328853107E+02  0.13811151146E+03  0.47000000000E+01 0.  1.
         -5    1    3    3    0  502  0.51195537138E+01 -0.29019731067E+02  0.12498385616E+02  0.32352036480E+02  0.47000000000E+01 0.  1.
        -11    1    1    2    0    0  0.49483657755E+02 -0.59679711182E+02  0.54887839722E+02  0.94989342881E+02  0.00000000000E+00 0. -1.
         11    1    1    2    0    0  0.32896423048E+02 -0.16948746660E+02 -0.35610757020E+02  0.51357187211E+02  0.00000000000E+00 0.  1.
<mgrwt>
<rscale>  0 0.16207654E+03</rscale>
<asrwt>0</asrwt>
<pdfrwt beam="1">  1        1 0.27993415E-01 0.16817689E+03</pdfrwt>
<pdfrwt beam="2">  1       -1 0.20746597E-01 0.16817689E+03</pdfrwt>
<totfact> 0.30668120E+03</totfact>
</mgrwt>
</event>
<event>
 7    1  0.6387485E-006  0.1375816E+03  0.7546771E-02  0.1228106E+00
          1   -1    0    0  501    0  0.00000000000E+00  0.00000000000E+00  0.18563139090E+03  0.18563139090E+03  0.00000000000E+00 0. -1.
         -1   -1    0    0    0  501 -0.00000000000E+00 -0.00000000000E+00 -0.98048443281E+02  0.98048443281E+02  0.00000000000E+00 0.  1.
         23    2    1    2    0    0  0.67993679072E+01  0.57063630507E+02 -0.10040108673E+02  0.13794749667E+03  0.12500487481E+03 0.  0.
          5    1    3    3  502    0 -0.33260351627E+02  0.67142282840E+02 -0.41526339333E+02  0.85795477700E+02  0.47000000000E+01 0. -1.
         -5    1    3    3    0  502  0.40059719534E+02 -0.10078652333E+02  0.31486230660E+02  0.52152018975E+02  0.47000000000E+01 0. -1.
        -11    1    1    2    0    0  0.38630127310E+02 -0.29104691092E+02  0.21869014081E+02  0.53081291963E+02  0.00000000000E+00 0.  1.
         11    1    1    2    0    0 -0.45429495218E+02 -0.27958939416E+02  0.75754042211E+02  0.92651045544E+02  0.00000000000E+00 0. -1.
<mgrwt>
<rscale>  0 0.12956243E+03</rscale>
<asrwt>0</asrwt>
<pdfrwt beam="1">  1        1 0.28558675E-01 0.13758164E+03</pdfrwt>
<pdfrwt beam="2">  1       -1 0.15084376E-01 0.13758164E+03</pdfrwt>
<totfact> 0.49182251E+03</totfact>
</mgrwt>
</event>
<event>
 7    1  0.6387485E-006  0.1691761E+03  0.7546771E-02  0.1185631E+00
          1   -1    0    0  501    0  0.00000000000E+00  0.00000000000E+00  0.10001120887E+03  0.10001120887E+03  0.00000000000E+00 0. -1.
         -1   -1    0    0    0  501 -0.00000000000E+00 -0.00000000000E+00 -0.25754149349E+03  0.25754149349E+03  0.00000000000E+00 0.  1.
         23    2    1    2    0    0  0.10897670565E+03  0.33463035529E+02 -0.47788050427E+02  0.17579607111E+03  0.12499945494E+03 0.  0.
          5    1    3    3  502    0  0.54834274942E+02  0.74603507174E+02 -0.54108294717E+02  0.10734187695E+03  0.47000000000E+01 0. -1.
         -5    1    3    3    0  502  0.54142430705E+02 -0.41140471645E+02  0.63202442903E+01  0.68454194157E+02  0.47000000000E+01 0. -1.
        -11    1    1    2    0    0  0.13046333082E+02 -0.15960681641E+02 -0.87382629829E+01  0.22389895160E+02  0.00000000000E+00 0.  1.
         11    1    1    2    0    0 -0.12202303873E+03 -0.17502353888E+02 -0.10100397121E+03  0.15936673609E+03  0.00000000000E+00 0. -1.
<mgrwt>
<rscale>  0 0.16274638E+03</rscale>
<asrwt>0</asrwt>
<pdfrwt beam="1">  1        1 0.15386340E-01 0.16917612E+03</pdfrwt>
<pdfrwt beam="2">  1       -1 0.39621768E-01 0.16917612E+03</pdfrwt>
<totfact> 0.22179725E+03</totfact>
</mgrwt>
</event>
<event>
 7    1  0.6387485E-006  0.1364245E+03  0.7546771E-02  0.1226379E+00
          2   -1    0    0  501    0  0.00000000000E+00  0.00000000000E+00  0.12484421481E+03  0.12484421481E+03  0.00000000000E+00 0. -1.
         -2   -1    0    0    0  501 -0.00000000000E+00 -0.00000000000E+00 -0.12668274738E+03  0.12668274738E+03  0.00000000000E+00 0.  1.
         23    2    1    2    0    0  0.15347006928E+02 -0.69036519493E+02 -0.39386558050E+01  0.13648137901E+03  0.11666225680E+03 0.  0.
          5    1    3    3  502    0  0.30353389277E+02  0.94679095781E+00  0.41450035923E+02  0.51598644670E+02  0.47000000000E+01 0. -1.
         -5    1    3    3    0  502 -0.15006382349E+02 -0.69983310450E+02 -0.45388691728E+02  0.84882734343E+02  0.47000000000E+01 0.  1.
        -11    1    1    2    0    0 -0.20367495285E+02  0.86600050965E+02 -0.14769498264E+02  0.90180606397E+02  0.00000000000E+00 0.  1.
         11    1    1    2    0    0  0.50204883569E+01 -0.17563531472E+02  0.16869621493E+02  0.24864976783E+02  0.00000000000E+00 0. -1.
<mgrwt>
<rscale>  0 0.13072804E+03</rscale>
<asrwt>0</asrwt>
<pdfrwt beam="1">  1        2 0.19206802E-01 0.13642454E+03</pdfrwt>
<pdfrwt beam="2">  1       -2 0.19489653E-01 0.13642454E+03</pdfrwt>
<totfact> 0.60784277E+03</totfact>
</mgrwt>
</event>
<event>
 7    1  0.6387485E-006  0.1419564E+03  0.7546771E-02  0.1221515E+00
         -1   -1    0    0    0  501 -0.00000000000E+00  0.00000000000E+00  0.46743436220E+03  0.46743436220E+03  0.00000000000E+00 0.  1.
          1   -1    0    0  501    0  0.00000000000E+00 -0.00000000000E+00 -0.51674363936E+02  0.51674363936E+02  0.00000000000E+00 0. -1.
         23    2    1    2    0    0 -0.11316351701E+01 -0.67270408479E+02  0.37159379718E+03  0.39778584896E+03  0.12500017230E+03 0.  0.
          5    1    3    3  502    0  0.18507109211E+02  0.33572947632E+02  0.87334625332E+02  0.95493888212E+02  0.47000000000E+01 0.  1.
         -5    1    3    3    0  502 -0.19638744381E+02 -0.10084335611E+03  0.28425917185E+03  0.30229196075E+03  0.47000000000E+01 0.  1.
        -11    1    1    2    0    0  0.43022183247E+02  0.45628582919E+02  0.10985691777E+02  0.63667584015E+02  0.00000000000E+00 0. -1.
         11    1    1    2    0    0 -0.41890548077E+02  0.21641825560E+02  0.33180509308E+02  0.57655293163E+02  0.00000000000E+00 0.  1.
<mgrwt>
<rscale>  0 0.13408623E+03</rscale>
<asrwt>0</asrwt>
<pdfrwt beam="2">  1        1 0.79499024E-02 0.14195644E+03</pdfrwt>
<pdfrwt beam="1">  1       -1 0.71912976E-01 0.14195644E+03</pdfrwt>
<totfact> 0.17384043E+03</totfact>
</mgrwt>
</event>
<event>
 7    1  0.6387485E-006  0.1415060E+03  0.7546771E-02  0.1221668E+00
         -2   -1    0    0    0  501 -0.00000000000E+00  0.00000000000E+00  0.13323445001E+03  0.13323445001E+03  0.00000000000E+00 0.  1.
          2   -1    0    0  501    0  0.00000000000E+00 -0.00000000000E+00 -0.12894855779E+03  0.12894855779E+03  0.00000000000E+00 0. -1.
         23    2    1    2    0    0  0.13824906998E+02  0.64862048130E+02  0.32126880570E+02  0.14510717887E+03  0.12500297422E+03 0.  0.
          5    1    3    3  502    0  0.42143426890E+02  0.88700182236E+02  0.41372151222E+02  0.10666553171E+03  0.47000000000E+01 0. -1.
         -5    1    3    3    0  502 -0.28318519892E+02 -0.23838134107E+02 -0.92452706522E+01  0.38441647155E+02  0.47000000000E+01 0. -1.
        -11    1    1    2    0    0  0.42423187509E+00 -0.61248612689E+02  0.22023833706E+02  0.65089336915E+02  0.00000000000E+00 0.  1.
         11    1    1    2    0    0 -0.14249138874E+02 -0.36134354412E+01 -0.49864822056E+02  0.51986492025E+02  0.00000000000E+00 0. -1.
<mgrwt>
<rscale>  0 0.13397935E+03</rscale>
<asrwt>0</asrwt>
<pdfrwt beam="2">  1        2 0.19838240E-01 0.14150603E+03</pdfrwt>
<pdfrwt beam="1">  1       -2 0.20497608E-01 0.14150603E+03</pdfrwt>
<totfact> 0.53929406E+03</totfact>
</mgrwt>
</event>
<event>
 6    1  0.6387485E-006  0.2203046E+03  0.7546771E-02  0.1173377E+00
          2   -1    0    0  501    0  0.00000000000E+00  0.00000000000E+00  0.20237322702E+03  0.20237322702E+03  0.00000000000E+00 0. -1.
         -2   -1    0    0    0  501 -0.00000000000E+00 -0.00000000000E+00 -0.12184420344E+03  0.12184420344E+03  0.00000000000E+00 0.  1.
          5    1    1    2  502    0  0.14644670064E+02 -0.64575065517E+01  0.12260984169E+03  0.12373935926E+03  0.47000000000E+01 0. -1.
         -5    1    1    2    0  502  0.13112863090E+02 -0.11923694497E+00 -0.97048483784E+02  0.98043151727E+02  0.47000000000E+01 0.  1.
        -11    1    1    2    0    0  0.37828982585E+01  0.23130611994E+02  0.61862045978E+02  0.66153218085E+02  0.00000000000E+00 0. -1.
         11    1    1    2    0    0 -0.31540431413E+02 -0.16553868497E+02 -0.68943802930E+01  0.36281701387E+02  0.00000000000E+00 0.  1.
<mgrwt>
<rscale>  0 0.17435860E+03</rscale>
<asrwt>0</asrwt>
<pdfrwt beam="1">  1        2 0.31134343E-01 0.22030456E+03</pdfrwt>
<pdfrwt beam="2">  1       -2 0.18745262E-01 0.22030456E+03</pdfrwt>
<totfact> 0.38947810E+03</totfact>
</mgrwt>
</event>
<event>
 7    1  0.6387485E-006  0.1254226E+03  0.7546771E-02  0.1247833E+00
          1   -1    0    0  501    0  0.00000000000E+00  0.00000000000E+00  0.25776093345E+03  0.25776093345E+03  0.00000000000E+00 0. -1.
         -1   -1    0    0    0  501 -0.00000000000E+00 -0.00000000000E+00 -0.47405013642E+02  0.47405013642E+02  0.00000000000E+00 0.  1.
         23    2    1    2    0    0  0.81453647367E+00  0.98902273425E+01  0.12426629002E+03  0.17655862428E+03  0.12502942416E+03 0.  0.
          5    1    3    3  502    0 -0.21776844934E+02  0.15410020965E+02  0.14348847547E+03  0.14602305405E+03  0.47000000000E+01 0.  1.
         -5    1    3    3    0  502  0.22591381408E+02 -0.55197936227E+01 -0.19222185453E+02  0.30535570228E+02  0.47000000000E+01 0.  1.
        -11    1    1    2    0    0 -0.20485400313E+01  0.20352243156E+02 -0.13507541930E+02  0.24512527547E+02  0.00000000000E+00 0.  1.
         11    1    1    2    0    0  0.12340035576E+01 -0.30242470499E+02  0.99597171716E+02  0.10409479526E+03  0.00000000000E+00 0. -1.
<mgrwt>
<rscale>  0 0.11717403E+03</rscale>
<asrwt>0</asrwt>
<pdfrwt beam="1">  1        1 0.39655528E-01 0.12542263E+03</pdfrwt>
<pdfrwt beam="2">  1       -1 0.72930791E-02 0.12542263E+03</pdfrwt>
<totfact> 0.98962753E+03</totfact>
</mgrwt>
</event>
<event>
 6    1  0.6387485E-006  0.1982279E+03  0.7546771E-02  0.1180518E+00
         -1   -1    0    0    0  501 -0.00000000000E+00  0.00000000000E+00  0.28842870470E+02  0.28842870470E+02  0.00000000000E+00 0.  1.
          1   -1    0    0  501    0  0.00000000000E+00 -0.00000000000E+00 -0.79853768351E+03  0.79853768351E+03  0.00000000000E+00 0. -1.
          5    1    1    2  502    0  0.32298158210E+02 -0.33619411083E+02 -0.38491741676E+03  0.38775887295E+03  0.47000000000E+01 0. -1.
         -5    1    1    2    0  502 -0.24573409819E+02  0.73226136595E+02 -0.55543960006E+02  0.95253036927E+02  0.47000000000E+01 0.  1.
        -11    1    1    2    0    0 -0.53630600856E+01 -0.59921875408E+02 -0.31163017797E+03  0.31738424880E+03  0.00000000000E+00 0.  1.
         11    1    1    2    0    0 -0.23616883061E+01  0.20315149896E+02 -0.17603258309E+02  0.26984395307E+02  0.00000000000E+00 0. -1.
<mgrwt>
<rscale>  0 0.16746439E+03</rscale>
<asrwt>0</asrwt>
<pdfrwt beam="2">  1        1 0.12285193E+00 0.19822785E+03</pdfrwt>
<pdfrwt beam="1">  1       -1 0.44373654E-02 0.19822785E+03</pdfrwt>
<totfact> 0.48038875E+03</totfact>
</mgrwt>
</event>
<event>
 7    1  0.6387485E-006  0.1810809E+03  0.7546771E-02  0.1173267E+00
          1   -1    0    0  501    0  0.00000000000E+00  0.00000000000E+00  0.83640457606E+03  0.83640457606E+03  0.00000000000E+00 0. -1.
         -1   -1    0    0    0  501 -0.00000000000E+00 -0.00000000000E+00 -0.38112936320E+02  0.38112936320E+02  0.00000000000E+00 0.  1.
         23    2    1    2    0    0  0.12289555139E+03 -0.45401309145E+02  0.56936509595E+03  0.59746707823E+03  0.12500280657E+03 0.  0.
          5    1    3    3  502    0 -0.22303290519E+02 -0.24604636106E+02  0.12915303750E+03  0.13343695883E+03  0.47000000000E+01 0.  1.
         -5    1    3    3    0  502  0.14519884191E+03 -0.20796673039E+02  0.44021205845E+03  0.46403011940E+03  0.47000000000E+01 0.  1.
        -11    1    1    2    0    0 -0.45163039929E+02 -0.23780509217E+02  0.90103493525E+02  0.10355603478E+03  0.00000000000E+00 0. -1.
         11    1    1    2    0    0 -0.77732511460E+02  0.69181818362E+02  0.13882305027E+03  0.17349439938E+03  0.00000000000E+00 0.  1.
<mgrwt>
<rscale>  0 0.17446806E+03</rscale>
<asrwt>0</asrwt>
<pdfrwt beam="1">  1        1 0.12867761E+00 0.18108091E+03</pdfrwt>
<pdfrwt beam="2">  1       -1 0.58635293E-02 0.18108091E+03</pdfrwt>
<totfact> 0.29424445E+03</totfact>
</mgrwt>
</event>
<event>
 7    1  0.6387485E-006  0.1715726E+03  0.7546771E-02  0.1182762E+00
          2   -1    0    0  501    0  0.00000000000E+00  0.00000000000E+00  0.23283793289E+03  0.23283793289E+03  0.00000000000E+00 0. -1.
         -2   -1    0    0    0  501 -0.00000000000E+00 -0.00000000000E+00 -0.12732581538E+03  0.12732581538E+03  0.00000000000E+00 0.  1.
         23    2    1    2    0    0  0.10678538970E+03  0.49127226676E+02 -0.10729188922E+02  0.17190775097E+03  0.12498222072E+03 0.  0.
          5    1    3    3  502    0  0.42850987907E+02  0.53780889586E+02 -0.59634217031E+02  0.91142312293E+02  0.47000000000E+01 0. -1.
         -5    1    3    3    0  502  0.63934401792E+02 -0.46536629097E+01  0.48905028109E+02  0.80765438681E+02  0.47000000000E+01 0. -1.
        -11    1    1    2    0    0 -0.82670358610E+02 -0.41880387528E+02  0.28475624084E+02  0.96949555023E+02  0.00000000000E+00 0.  1.
         11    1    1    2    0    0 -0.24115031089E+02 -0.72468391482E+01  0.87765682350E+02  0.91306442273E+02  0.00000000000E+00 0. -1.
<mgrwt>
<rscale>  0 0.16537183E+03</rscale>
<asrwt>0</asrwt>
<pdfrwt beam="1">  1        2 0.35821220E-01 0.17157261E+03</pdfrwt>
<pdfrwt beam="2">  1       -2 0.19588587E-01 0.17157261E+03</pdfrwt>
<totfact> 0.30696223E+03</totfact>
</mgrwt>
</event>
<event>
 7    1  0.6387485E-006  0.1932026E+03  0.7546771E-02  0.1160512E+00
         -1   -1    0    0    0  501 -0.00000000000E+00  0.00000000000E+00  0.15329345791E+03  0.15329345791E+03  0.00000000000E+00 0.  1.
          1   -1    0    0  501    0  0.00000000000E+00 -0.00000000000E+00 -0.24575778701E+03  0.24575778701E+03  0.00000000000E+00 0. -1.
         23    2    1    2    0    0  0.22072615232E+02 -0.14683594809E+03  0.18573483296E+02  0.19409336146E+03  0.12360931473E+03 0.  0.
          5    1    3    3  502    0  0.23147638134E+02 -0.65357470790E+02 -0.51517405039E+02  0.86507486157E+02  0.47000000000E+01 0. -1.
         -5    1    3    3    0  502 -0.10750229019E+01 -0.81478477299E+02  0.70090888335E+02  0.10758587530E+03  0.47000000000E+01 0.  1.
        -11    1    1    2    0    0 -0.45684557216E+02  0.63284843889E+02 -0.23141306920E+02  0.81409890800E+02  0.00000000000E+00 0.  1.
         11    1    1    2    0    0  0.23611941984E+02  0.83551104200E+02 -0.87896505469E+02  0.12354799266E+03  0.00000000000E+00 0. -1.
<mgrwt>
<rscale>  0 0.18774342E+03</rscale>
<asrwt>0</asrwt>
<pdfrwt beam="2">  1        1 0.37808890E-01 0.19320264E+03</pdfrwt>
<pdfrwt beam="1">  1       -1 0.23583609E-01 0.19320264E+03</pdfrwt>
<totfact> 0.17160457E+03</totfact>
</mgrwt>
</event>
<event>
 7    1  0.6387485E-006  0.1547874E+03  0.7546771E-02  0.1202863E+00
          1   -1    0    0  501    0  0.00000000000E+00  0.00000000000E+00  0.30340487249E+03  0.30340487249E+03  0.00000000000E+00 0. -1.
         -1   -1    0    0    0  501 -0.00000000000E+00 -0.00000000000E+00 -0.67104117517E+02  0.67104117517E+02  0.00000000000E+00 0.  1.
         23    2    1    2    0    0 -0.43434021951E+02 -0.80306533404E+02  0.11336054646E+03  0.19185867626E+03  0.12499393821E+03 0.  0.
          5    1    3    3  502    0 -0.80725400505E+02 -0.41367800142E+02  0.10196250963E+03  0.13655156002E+03  0.47000000000E+01 0.  1.
         -5    1    3    3    0  502  0.37291378554E+02 -0.38938733262E+02  0.11398036840E+02  0.55307116236E+02  0.47000000000E+01 0.  1.
        -11    1    1    2    0    0 -0.69451145329E+01  0.61883244829E+02  0.25239597599E+02  0.67192320197E+02  0.00000000000E+00 0.  1.
         11    1    1    2    0    0  0.50379136484E+02  0.18423288575E+02  0.97700610912E+02  0.11145799355E+03  0.00000000000E+00 0. -1.
<mgrwt>
<rscale>  0 0.14807122E+03</rscale>
<asrwt>0</asrwt>
<pdfrwt beam="1">  1        1 0.46677672E-01 0.15478740E+03</pdfrwt>
<pdfrwt beam="2">  1       -1 0.10323711E-01 0.15478740E+03</pdfrwt>
<totfact> 0.48429263E+03</totfact>
</mgrwt>
</event>
<event>
 7    1  0.6387485E-006  0.2403715E+03  0.7546771E-02  0.1122233E+00
         -2   -1    0    0    0  501 -0.00000000000E+00  0.00000000000E+00  0.84561469209E+02  0.84561469209E+02  0.00000000000E+00 0.  1.
          2   -1    0    0  501    0  0.00000000000E+00 -0.00000000000E+00 -0.87145579071E+03  0.87145579071E+03  0.00000000000E+00 0. -1.
         23    2    1    2    0    0 -0.17412820232E+03 -0.10876052033E+03 -0.15669922052E+03  0.28693746625E+03  0.12501592780E+03 0.  0.
          5    1    3    3  502    0 -0.70554680082E+02 -0.11028084399E+03 -0.56246880776E+02  0.14256798038E+03  0.47000000000E+01 0. -1.
         -5    1    3    3    0  502 -0.10357352224E+03  0.15203236606E+01 -0.10045233974E+03  0.14436948588E+03  0.47000000000E+01 0. -1.
        -11    1    1    2    0    0  0.11112664138E+03  0.31157109417E+02 -0.43137172133E+03  0.44654390361E+03  0.00000000000E+00 0. -1.
         11    1    1    2    0    0  0.63001560933E+02  0.77603410908E+02 -0.19882337965E+03  0.22253589005E+03  0.00000000000E+00 0.  1.
<mgrwt>
<rscale>  0 0.23637264E+03</rscale>
<asrwt>0</asrwt>
<pdfrwt beam="2">  1        2 0.13407013E+00 0.24037151E+03</pdfrwt>
<pdfrwt beam="1">  1       -2 0.13009456E-01 0.24037151E+03</pdfrwt>
<totfact> 0.13747373E+03</totfact>
</mgrwt>
</event>
<event>
 7    1  0.6387485E-006  0.1743837E+03  0.7546771E-02  0.1179466E+00
         -2   -1    0    0    0  501 -0.00000000000E+00  0.00000000000E+00  0.47069689584E+02  0.47069689584E+02  0.00000000000E+00 0.  1.
          2   -1    0    0  501    0  0.00000000000E+00 -0.00000000000E+00 -0.56954769907E+03  0.56954769907E+03  0.00000000000E+00 0. -1.
         23    2    1    2    0    0  0.28960097685E+01 -0.12155754823E+03 -0.25258450477E+03  0.30693422984E+03  0.12500025998E+03 0.  0.
          5    1    3    3  502    0 -0.87979382746E+01 -0.14435258730E+03 -0.23328597790E+03  0.27451686772E+03  0.47000000000E+01 0.  1.
         -5    1    3    3    0  502  0.11693948043E+02  0.22795039078E+02 -0.19298526873E+02  0.32417362121E+02  0.47000000000E+01 0.  1.
        -11    1    1    2    0    0  0.12667584345E+02  0.11357346392E+03 -0.26888527634E+03  0.29216209753E+03  0.00000000000E+00 0. -1.
         11    1    1    2    0    0 -0.15563594113E+02  0.79840843024E+01 -0.10082283715E+01  0.17521061278E+02  0.00000000000E+00 0.  1.
<mgrwt>
<rscale>  0 0.16845722E+03</rscale>
<asrwt>0</asrwt>
<pdfrwt beam="2">  1        2 0.87622728E-01 0.17438374E+03</pdfrwt>
<pdfrwt beam="1">  1       -2 0.72414903E-02 0.17438374E+03</pdfrwt>
<totfact> 0.57840966E+03</totfact>
</mgrwt>
</event>
<event>
 7    1  0.6387485E-006  0.1382446E+03  0.7546771E-02  0.1228263E+00
         -2   -1    0    0    0  501 -0.00000000000E+00  0.00000000000E+00  0.61430058952E+02  0.61430058952E+02  0.00000000000E+00 0.  1.
          2   -1    0    0  501    0  0.00000000000E+00 -0.00000000000E+00 -0.24342261571E+03  0.24342261571E+03  0.00000000000E+00 0. -1.
         23    2    1    2    0    0  0.58954625967E+02 -0.23364891160E+01 -0.10467714721E+03  0.17340377142E+03  0.12502182086E+03 0.  0.
          5    1    3    3  502    0 -0.32910917725E+02 -0.18075418072E+02 -0.73194722329E+01  0.38542365233E+02  0.47000000000E+01 0. -1.
         -5    1    3    3    0  502  0.91865543692E+02  0.15738928956E+02 -0.97357674978E+02  0.13486140619E+03  0.47000000000E+01 0. -1.
        -11    1    1    2    0    0 -0.62005295820E+02  0.33388550674E+02 -0.70221565441E+02  0.99451094910E+02  0.00000000000E+00 0. -1.
         11    1    1    2    0    0  0.30506698527E+01 -0.31052061558E+02 -0.70938441044E+01  0.31997808327E+02  0.00000000000E+00 0.  1.
<mgrwt>
<rscale>  0 0.12945725E+03</rscale>
<asrwt>0</asrwt>
<pdfrwt beam="2">  1        2 0.37449633E-01 0.13824458E+03</pdfrwt>
<pdfrwt beam="1">  1       -2 0.94507783E-02 0.13824458E+03</pdfrwt>
<totfact> 0.94426850E+03</totfact>
</mgrwt>
</event>
<event>
 7    1  0.6387485E-006  0.2281356E+03  0.7546771E-02  0.1130811E+00
         -2   -1    0    0    0  501 -0.00000000000E+00  0.00000000000E+00  0.30866792755E+03  0.30866792755E+03  0.00000000000E+00 0.  1.
          2   -1    0    0  501    0  0.00000000000E+00 -0.00000000000E+00 -0.22126164594E+03  0.22126164594E+03  0.00000000000E+00 0. -1.
         23    2    1    2    0    0  0.17603635349E+03  0.73694340412E+02  0.18709272028E+03  0.29504157276E+03  0.12500476038E+03 0.  0.
          5    1    3    3  502    0  0.72355278310E+02  0.78034691721E+02  0.37521417748E+02  0.11293646976E+03  0.47000000000E+01 0. -1.
         -5    1    3    3    0  502  0.10368107518E+03 -0.43403513084E+01  0.14957130253E+03  0.18210510300E+03  0.47000000000E+01 0. -1.
        -11    1    1    2    0    0  0.74116923451E+00 -0.27869955673E+02 -0.25471920205E+02  0.37763772057E+02  0.00000000000E+00 0.  1.
         11    1    1    2    0    0 -0.17677752272E+03 -0.45824384739E+02 -0.74214518467E+02  0.19712422867E+03  0.00000000000E+00 0. -1.
<mgrwt>
<rscale>  0 0.22417082E+03</rscale>
<asrwt>0</asrwt>
<pdfrwt beam="2">  1        2 0.34040253E-01 0.22813558E+03</pdfrwt>
<pdfrwt beam="1">  1       -2 0.47487374E-01 0.22813558E+03</pdfrwt>
<totfact> 0.65027887E+02</totfact>
</mgrwt>
</event>
<event>
 7    1  0.6387485E-006  0.1250302E+03  0.7546771E-02  0.1251062E+00
          4   -1    0    0  501    0  0.00000000000E+00  0.00000000000E+00  0.97847624509E+02  0.97847624509E+02  0.00000000000E+00 0. -1.
         -4   -1    0    0    0  501 -0.00000000000E+00 -0.00000000000E+00 -0.12442809558E+03  0.12442809558E+03  0.00000000000E+00 0.  1.
         23    2    1    2    0    0 -0.26509091841E+01  0.35254613682E+01  0.84407973161E+01  0.12531480062E+03  0.12495237492E+03 0.  0.
          5    1    3    3  502    0 -0.59197108892E+02  0.24863361072E+02  0.57449335113E+01  0.64634191308E+02  0.47000000000E+01 0. -1.
         -5    1    3    3    0  502  0.56546199708E+02 -0.21337899704E+02  0.26958638048E+01  0.60680609315E+02  0.47000000000E+01 0. -1.
        -11    1    1    2    0    0  0.15828023611E+02 -0.10972748310E+02  0.26974388334E+02  0.33144308153E+02  0.00000000000E+00 0. -1.
         11    1    1    2    0    0 -0.13177114427E+02  0.74472869416E+01 -0.61995656725E+02  0.63816611319E+02  0.00000000000E+00 0.  1.
<mgrwt>
<rscale>  0 0.11529799E+03</rscale>
<asrwt>0</asrwt>
<pdfrwt beam="1">  1        4 0.15053481E-01 0.12503021E+03</pdfrwt>
<pdfrwt beam="2">  1       -4 0.19142784E-01 0.12503021E+03</pdfrwt>
<totfact> 0.14784736E+03</totfact>
</mgrwt>
</event>
<event>
 7    1  0.6387485E-006  0.1405191E+03  0.7546771E-02  0.1220203E+00
          4   -1    0    0  501    0  0.00000000000E+00  0.00000000000E+00  0.51286110010E+02  0.51286110010E+02  0.00000000000E+00 0. -1.
         -4   -1    0    0    0  501 -0.00000000000E+00 -0.00000000000E+00 -0.33761497580E+03  0.33761497580E+03  0.00000000000E+00 0.  1.
         23    2    1    2    0    0 -0.15802367008E+02 -0.62121101784E+02 -0.18305089552E+03  0.23076666103E+03  0.12504749260E+03 0.  0.
          5    1    3    3  502    0 -0.53487516672E+02 -0.47690175197E+02 -0.40304916482E+02  0.82351949234E+02  0.47000000000E+01 0. -1.
         -5    1    3    3    0  502  0.37685149664E+02 -0.14430926587E+02 -0.14274597904E+03  0.14841471180E+03  0.47000000000E+01 0. -1.
        -11    1    1    2    0    0 -0.20621786774E+02  0.47534979290E+02 -0.46917774010E+01  0.52027349741E+02  0.00000000000E+00 0. -1.
         11    1    1    2    0    0  0.36424153782E+02  0.14586122493E+02 -0.98586192868E+02  0.10610707503E+03  0.00000000000E+00 0.  1.
<mgrwt>
<rscale>  0 0.13501151E+03</rscale>
<asrwt>0</asrwt>
<pdfrwt beam="1">  1        4 0.78901708E-02 0.14051911E+03</pdfrwt>
<pdfrwt beam="2">  1       -4 0.51940766E-01 0.14051911E+03</pdfrwt>
<totfact> 0.67588143E+02</totfact>
</mgrwt>
</event>
<event>
 6    1  0.6387485E-006  0.3092757E+03  0.7546771E-02  0.1105435E+00
         -2   -1    0    0    0  501 -0.00000000000E+00  0.00000000000E+00  0.26789789195E+03  0.26789789195E+03  0.00000000000E+00 0.  1.
          2   -1    0    0  501    0  0.00000000000E+00 -0.00000000000E+00 -0.23477363662E+03  0.23477363662E+03  0.00000000000E+00 0. -1.
          5    1    1    2  502    0 -0.20818912416E+03  0.42276680621E+02  0.39189406296E+02  0.21607389641E+03  0.47000000000E+01 0. -1.
         -5    1    1    2    0  502  0.73237783795E+02 -0.50527047155E+02  0.64963634591E+02  0.11026839660E+03  0.47000000000E+01 0.  1.
        -11    1    1    2    0    0 -0.50558427367E+01  0.20212889097E+02 -0.79068607248E+01  0.22285440941E+02  0.00000000000E+00 0. -1.
         11    1    1    2    0    0  0.14000718310E+03 -0.11962522564E+02 -0.63121924833E+02  0.15404379462E+03  0.00000000000E+00 0.  1.
<mgrwt>
<rscale>  0 0.26286262E+03</rscale>
<asrwt>0</asrwt>
<pdfrwt beam="2">  1        2 0.36119021E-01 0.30927566E+03</pdfrwt>
<pdfrwt beam="1">  1       -2 0.41215060E-01 0.30927566E+03</pdfrwt>
<totfact> 0.80598234E+02</totfact>
</mgrwt>
</event>
<event>
 6    1  0.6387485E-006  0.1625525E+03  0.7546771E-02  0.1209052E+00
          1   -1    0    0  501    0  0.00000000000E+00  0.00000000000E+00  0.24612050337E+02  0.24612050337E+02  0.00000000000E+00 0. -1.
         -1   -1    0    0    0  501 -0.00000000000E+00 -0.00000000000E+00 -0.95780725145E+03  0.95780725145E+03  0.00000000000E+00 0.  1.
          5    1    1    2  502    0  0.49504387302E+02 -0.37846908243E+02 -0.19363879998E+03  0.20347271975E+03  0.47000000000E+01 0. -1.
         -5    1    1    2    0  502 -0.72447526461E+02  0.51227071895E+02 -0.61040221465E+03  0.61683531890E+03  0.47000000000E+01 0.  1.
        -11    1    1    2    0    0  0.58686347634E+02 -0.19126501081E+02 -0.83869381151E+02  0.10413444933E+03  0.00000000000E+00 0. -1.
         11    1    1    2    0    0 -0.35743208475E+02  0.57463374286E+01 -0.45284805327E+02  0.57976813809E+02  0.00000000000E+00 0.  1.
<mgrwt>
<rscale>  0 0.14322704E+03</rscale>
<asrwt>0</asrwt>
<pdfrwt beam="1">  1        1 0.37864690E-02 0.16255253E+03</pdfrwt>
<pdfrwt beam="2">  1       -1 0.14735497E+00 0.16255253E+03</pdfrwt>
<totfact> 0.96110112E+02</totfact>
</mgrwt>
</event>
<event>
 7    1  0.6670702E-006  0.1647177E+03  0.7546771E-02  0.1190653E+00
          1   -1    0    0  501    0  0.00000000000E+00  0.00000000000E+00  0.96678473175E+02  0.96678473175E+02  0.00000000000E+00 0. -1.
         -1   -1    0    0    0  501 -0.00000000000E+00 -0.00000000000E+00 -0.24275412058E+03  0.24275412058E+03  0.00000000000E+00 0.  1.
         23    2    1    2    0    0  0.19039453694E+02  0.10556654462E+03 -0.93993454541E+02  0.18964887175E+03  0.12500051568E+03 0.  0.
          5    1    3    3  502    0  0.42165174742E+02  0.10257025436E+03 -0.11359739972E+03  0.15882385924E+03  0.47000000000E+01 0.  1.
         -5    1    3    3    0  502 -0.23125721048E+02  0.29962902531E+01  0.19603945183E+02  0.30825012507E+02  0.47000000000E+01 0.  1.
        -11    1    1    2    0    0 -0.54264277940E+02 -0.75400898321E+02 -0.25518076089E+02  0.96338359625E+02  0.00000000000E+00 0. -1.
         11    1    1    2    0    0  0.35224824246E+02 -0.30165646296E+02 -0.26564116771E+02  0.53445362375E+02  0.00000000000E+00 0.  1.
<mgrwt>
<rscale>  0 0.15827990E+03</rscale>
<asrwt>0</asrwt>
<pdfrwt beam="1">  1        1 0.14873612E-01 0.16471771E+03</pdfrwt>
<pdfrwt beam="2">  1       -1 0.37346787E-01 0.16471771E+03</pdfrwt>
<totfact> 0.25679537E+03</totfact>
</mgrwt>
</event>
<event>
 7    1  0.6387485E-006  0.1390206E+03  0.7546771E-02  0.1226114E+00
          1   -1    0    0  501    0  0.00000000000E+00  0.00000000000E+00  0.16149896916E+03  0.16149896916E+03  0.00000000000E+00 0. -1.
         -1   -1    0    0    0  501 -0.00000000000E+00 -0.00000000000E+00 -0.15235094308E+03  0.15235094308E+03  0.00000000000E+00 0.  1.
         23    2    1    2    0    0 -0.53619467673E+02 -0.28790141932E+02 -0.90548417711E+02  0.16590887590E+03  0.12499127796E+03 0.  0.
          5    1    3    3  502    0 -0.41843633806E+02  0.42874561117E+01  0.22152819058E+02  0.47771428304E+02  0.47000000000E+01 0.  1.
         -5    1    3    3    0  502 -0.11775833867E+02 -0.33077598043E+02 -0.11270123677E+03  0.11813744760E+03  0.47000000000E+01 0.  1.
        -11    1    1    2    0    0  0.14791320111E+02  0.94496338994E+01 -0.16389920838E+02  0.24014750395E+02  0.00000000000E+00 0.  1.
         11    1    1    2    0    0  0.38828147561E+02  0.19340508032E+02  0.11608636463E+03  0.12392628594E+03  0.00000000000E+00 0. -1.
<mgrwt>
<rscale>  0 0.13090842E+03</rscale>
<asrwt>0</asrwt>
<pdfrwt beam="1">  1        1 0.24845995E-01 0.13902064E+03</pdfrwt>
<pdfrwt beam="2">  1       -1 0.23438607E-01 0.13902064E+03</pdfrwt>
<totfact> 0.28963166E+03</totfact>
</mgrwt>
</event>
<event>
 7    1  0.6387485E-006  0.2565404E+03  0.7546771E-02  0.1111532E+00
         -4   -1    0    0    0  501 -0.00000000000E+00  0.00000000000E+00  0.60549037423E+03  0.60549037423E+03  0.00000000000E+00 0.  1.
          4   -1    0    0  501    0  0.00000000000E+00 -0.00000000000E+00 -0.10450822711E+03  0.10450822711E+03  0.00000000000E+00 0. -1.
         23    2    1    2    0    0 -0.77944377853E+02 -0.20998955251E+03  0.30536948802E+03  0.39882767323E+03  0.12506818348E+03 0.  0.
          5    1    3    3  502    0 -0.25969623565E+02 -0.73459298304E+02  0.23838421181E+02  0.81615257029E+02  0.47000000000E+01 0.  1.
         -5    1    3    3    0  502 -0.51974754288E+02 -0.13653025421E+03  0.28153106684E+03  0.31721241620E+03  0.47000000000E+01 0.  1.
        -11    1    1    2    0    0  0.43464661365E+01  0.11390325394E+03  0.57963276397E+02  0.12787722408E+03  0.00000000000E+00 0.  1.
         11    1    1    2    0    0  0.73597911716E+02  0.96086298567E+02  0.13764938270E+03  0.18329370404E+03  0.00000000000E+00 0. -1.
<mgrwt>
<rscale>  0 0.25282488E+03</rscale>
<asrwt>0</asrwt>
<pdfrwt beam="2">  1        4 0.16078189E-01 0.25654042E+03</pdfrwt>
<pdfrwt beam="1">  1       -4 0.93152363E-01 0.25654042E+03</pdfrwt>
<totfact> 0.61437178E+01</totfact>
</mgrwt>
</event>
<event>
 7    1  0.6387485E-006  0.1968064E+03  0.7546771E-02  0.1157200E+00
          3   -1    0    0  501    0  0.00000000000E+00  0.00000000000E+00  0.60572763753E+02  0.60572763753E+02  0.00000000000E+00 0. -1.
         -3   -1    0    0    0  501 -0.00000000000E+00 -0.00000000000E+00 -0.11488283319E+04  0.11488283319E+04  0.00000000000E+00 0.  1.
         23    2    1    2    0    0  0.32619315590E+02 -0.14845820250E+03 -0.98670160296E+03  0.10061375686E+04  0.12501558321E+03 0.  0.
          5    1    3    3  502    0 -0.11991732719E+02 -0.59044133694E+02 -0.12710944270E+03  0.14074413594E+03  0.47000000000E+01 0.  1.
         -5    1    3    3    0  502  0.44611048309E+02 -0.89414068805E+02 -0.85959216026E+03  0.86539343267E+03  0.47000000000E+01 0.  1.
        -11    1    1    2    0    0 -0.56058138748E+02  0.14058109349E+03 -0.87729006584E+02  0.17493409434E+03  0.00000000000E+00 0. -1.
         11    1    1    2    0    0  0.23438823159E+02  0.78771090137E+01 -0.13824958618E+02  0.28329432720E+02  0.00000000000E+00 0.  1.
<mgrwt>
<rscale>  0 0.19140558E+03</rscale>
<asrwt>0</asrwt>
<pdfrwt beam="1">  1        3 0.93188876E-02 0.19680639E+03</pdfrwt>
<pdfrwt beam="2">  1       -3 0.17674280E+00 0.19680639E+03</pdfrwt>
<totfact> 0.45368984E+01</totfact>
</mgrwt>
</event>
<event>
 6    1  0.6387485E-006  0.3286922E+03  0.7546771E-02  0.1106513E+00
         -4   -1    0    0    0  501 -0.00000000000E+00  0.00000000000E+00  0.20915923889E+03  0.20915923889E+03  0.00000000000E+00 0.  1.
          4   -1    0    0  501    0  0.00000000000E+00 -0.00000000000E+00 -0.31064903571E+03  0.31064903571E+03  0.00000000000E+00 0. -1.
          5    1    1    2  502    0  0.14258993844E+03 -0.13181958491E+03 -0.32499868814E+02  0.19694320243E+03  0.47000000000E+01 0. -1.
         -5    1    1    2    0  502 -0.10527179828E+03  0.46486465668E+02  0.67775036839E+02  0.13363640455E+03  0.47000000000E+01 0.  1.
        -11    1    1    2    0    0 -0.52324717364E+02  0.89209569530E+02 -0.13932898883E+03  0.17351884760E+03  0.00000000000E+00 0.  1.
         11    1    1    2    0    0  0.15006577202E+02 -0.38764502871E+01  0.25640239830E+01  0.15709820023E+02  0.00000000000E+00 0. -1.
<mgrwt>
<rscale>  0 0.26105110E+03</rscale>
<asrwt>0</asrwt>
<pdfrwt beam="2">  1        4 0.47792159E-01 0.32869216E+03</pdfrwt>
<pdfrwt beam="1">  1       -4 0.32178345E-01 0.32869216E+03</pdfrwt>
<totfact> 0.74408474E+01</totfact>
</mgrwt>
</event>
<event>
 7    1  0.6387485E-006  0.2302747E+03  0.7546771E-02  0.1129947E+00
         -2   -1    0    0    0  501 -0.00000000000E+00  0.00000000000E+00  0.11269619304E+03  0.11269619304E+03  0.00000000000E+00 0.  1.
          2   -1    0    0  501    0  0.00000000000E+00 -0.00000000000E+00 -0.49808498710E+03  0.49808498710E+03  0.00000000000E+00 0. -1.
         23    2    1    2    0    0  0.17816125062E+03 -0.75231935557E+02 -0.89130537706E+02  0.24692246750E+03  0.12500070741E+03 0.  0.
          5    1    3    3  502    0  0.10840415995E+03  0.19031851599E+02 -0.62204237101E+02  0.12651138440E+03  0.47000000000E+01 0.  1.
         -5    1    3    3    0  502  0.69757090665E+02 -0.94263787156E+02 -0.26926300605E+02  0.12041108309E+03  0.47000000000E+01 0.  1.
        -11    1    1    2    0    0 -0.14214878871E+03  0.18756844918E+02 -0.18598361036E+03  0.23483611453E+03  0.00000000000E+00 0.  1.
         11    1    1    2    0    0 -0.36012461911E+02  0.56475090639E+02 -0.11027464599E+03  0.12902259811E+03  0.00000000000E+00 0. -1.
<mgrwt>
<rscale>  0 0.22536218E+03</rscale>
<asrwt>0</asrwt>
<pdfrwt beam="2">  1        2 0.76628460E-01 0.23027473E+03</pdfrwt>
<pdfrwt beam="1">  1       -2 0.17337876E-01 0.23027473E+03</pdfrwt>
<totfact> 0.16719495E+03</totfact>
</mgrwt>
</event>
<event>
 6    1  0.6387485E-006  0.3380396E+03  0.7546771E-02  0.1089536E+00
         -1   -1    0    0    0  501 -0.00000000000E+00  0.00000000000E+00  0.67084910584E+02  0.67084910584E+02  0.00000000000E+00 0.  1.
          1   -1    0    0  501    0  0.00000000000E+00 -0.00000000000E+00 -0.10430594397E+04  0.10430594397E+04  0.00000000000E+00 0. -1.
          5    1    1    2  502    0  0.98083880763E+02  0.15579526129E+03 -0.45650584348E+03  0.49225225874E+03  0.47000000000E+01 0. -1.
         -5    1    1    2    0  502 -0.14737256284E+03 -0.31294301474E+00 -0.23443786559E+03  0.27695121056E+03  0.47000000000E+01 0.  1.
        -11    1    1    2    0    0  0.15425930939E+02 -0.12094165579E+02 -0.11190974123E+03  0.11361346034E+03  0.00000000000E+00 0. -1.
         11    1    1    2    0    0  0.33862751139E+02 -0.14338815270E+03 -0.17312107886E+03  0.22732742068E+03  0.00000000000E+00 0.  1.
<mgrwt>
<rscale>  0 0.29156223E+03</rscale>
<asrwt>0</asrwt>
<pdfrwt beam="2">  1        1 0.16047068E+00 0.33803960E+03</pdfrwt>
<pdfrwt beam="1">  1       -1 0.10320756E-01 0.33803960E+03</pdfrwt>
<totfact> 0.86069329E+02</totfact>
</mgrwt>
</event>
<event>
 7    1  0.6387485E-006  0.1390230E+03  0.7546771E-02  0.1225035E+00
          2   -1    0    0  501    0  0.00000000000E+00  0.00000000000E+00  0.17787928039E+03  0.17787928039E+03  0.00000000000E+00 0. -1.
         -2   -1    0    0    0  501 -0.00000000000E+00 -0.00000000000E+00 -0.97053495825E+02  0.97053495825E+02  0.00000000000E+00 0.  1.
         23    2    1    2    0    0  0.89731192144E+01  0.60181711051E+02  0.35947365336E+01  0.13906950493E+03  0.12500019942E+03 0.  0.
          5    1    3    3  502    0  0.40444426569E+02  0.77402191155E+02 -0.27165257263E+02  0.91579976186E+02  0.47000000000E+01 0.  1.
         -5    1    3    3    0  502 -0.31471307354E+02 -0.17220480104E+02  0.30759993796E+02  0.47489528740E+02  0.47000000000E+01 0.  1.
        -11    1    1    2    0    0 -0.50118005310E+02 -0.36192680131E+02  0.57102261422E+02  0.84156953432E+02  0.00000000000E+00 0. -1.
         11    1    1    2    0    0  0.41144886096E+02 -0.23989030920E+02  0.20128786613E+02  0.51706317862E+02  0.00000000000E+00 0.  1.
<mgrwt>
<rscale>  0 0.13164477E+03</rscale>
<asrwt>0</asrwt>
<pdfrwt beam="1">  1        2 0.27366043E-01 0.13902304E+03</pdfrwt>
<pdfrwt beam="2">  1       -2 0.14931307E-01 0.13902304E+03</pdfrwt>
<totfact> 0.63826397E+03</totfact>
</mgrwt>
</event>
<event>
 7    1  0.6387485E-006  0.1614750E+03  0.7546771E-02  0.1194382E+00
         -2   -1    0    0    0  501 -0.00000000000E+00  0.00000000000E+00  0.65672618912E+02  0.65672618912E+02  0.00000000000E+00 0. -1.
          2   -1    0    0  501    0  0.00000000000E+00 -0.00000000000E+00 -0.35355575869E+03  0.35355575869E+03  0.00000000000E+00 0.  1.
         23    2    1    2    0    0  0.94205750797E+02  0.39662005755E+02 -0.11402432746E+03  0.19767580370E+03  0.12500551160E+03 0.  0.
          5    1    3    3  502    0  0.59901395728E+02 -0.38664905771E+02 -0.29349378444E+02  0.77243952278E+02  0.47000000000E+01 0. -1.
         -5    1    3    3    0  502  0.34304355069E+02  0.78326911527E+02 -0.84674949012E+02  0.12043185142E+03  0.47000000000E+01 0. -1.
        -11    1    1    2    0    0 -0.46671741710E+02 -0.40463427876E+02 -0.27406142285E+02  0.67576897714E+02  0.00000000000E+00 0. -1.
         11    1    1    2    0    0 -0.47534009087E+02  0.80142212018E+00 -0.14645267004E+03  0.15397567619E+03  0.00000000000E+00 0.  1.
<mgrwt>
<rscale>  0 0.15506644E+03</rscale>
<asrwt>0</asrwt>
<pdfrwt beam="2">  1        2 0.54393193E-01 0.16147500E+03</pdfrwt>
<pdfrwt beam="1">  1       -2 0.10103480E-01 0.16147500E+03</pdfrwt>
<totfact> 0.57719850E+03</totfact>
</mgrwt>
</event>
<event>
 7    1  0.6387485E-006  0.1402818E+03  0.7546771E-02  0.1223747E+00
         -1   -1    0    0    0  501 -0.00000000000E+00  0.00000000000E+00  0.37402861741E+03  0.37402861741E+03  0.00000000000E+00 0.  1.
          1   -1    0    0  501    0  0.00000000000E+00 -0.00000000000E+00 -0.42844380425E+02  0.42844380425E+02  0.00000000000E+00 0. -1.
         23    2    1    2    0    0  0.42420661616E+02 -0.47488847432E+02  0.20382044801E+03  0.24743030207E+03  0.12499710474E+03 0.  0.
          5    1    3    3  502    0  0.45745672284E+02 -0.76528216903E+02  0.79220592817E+02  0.11936174781E+03  0.47000000000E+01 0. -1.
         -5    1    3    3    0  502 -0.33250106680E+01  0.29039369471E+02  0.12459985519E+03  0.12806855425E+03  0.47000000000E+01 0. -1.
        -11    1    1    2    0    0 -0.23833805196E+02 -0.13893527500E+02  0.84949238082E+00  0.27600761109E+02  0.00000000000E+00 0. -1.
         11    1    1    2    0    0 -0.18586856421E+02  0.61382374932E+02  0.12651429660E+03  0.14184193466E+03  0.00000000000E+00 0.  1.
<mgrwt>
<rscale>  0 0.13253122E+03</rscale>
<asrwt>0</asrwt>
<pdfrwt beam="2">  1        1 0.65914434E-02 0.14028179E+03</pdfrwt>
<pdfrwt beam="1">  1       -1 0.57542862E-01 0.14028179E+03</pdfrwt>
<totfact> 0.34428972E+03</totfact>
</mgrwt>
</event>
<event>
 7    1  0.6387485E-006  0.1479316E+03  0.7546771E-02  0.1213096E+00
         -2   -1    0    0    0  501 -0.00000000000E+00  0.00000000000E+00  0.43208918698E+03  0.43208918698E+03  0.00000000000E+00 0. -1.
          2   -1    0    0  501    0  0.00000000000E+00 -0.00000000000E+00 -0.57150780409E+02  0.57150780409E+02  0.00000000000E+00 0.  1.
         23    2    1    2    0    0 -0.29405425829E+02 -0.74472703334E+02  0.33028049210E+03  0.36189634995E+03  0.12439012030E+03 0.  0.
          5    1    3    3  502    0  0.48285728270E+02 -0.36498152637E+02  0.12008125381E+03  0.13455565472E+03  0.47000000000E+01 0. -1.
         -5    1    3    3    0  502 -0.77691154099E+02 -0.37974550698E+02  0.21019923830E+03  0.22734069523E+03  0.47000000000E+01 0. -1.
        -11    1    1    2    0    0 -0.14589506628E+02 -0.55139882984E+01  0.31450652523E+02  0.35105573841E+02  0.00000000000E+00 0. -1.
         11    1    1    2    0    0  0.43994932456E+02  0.79986691633E+02  0.13207261947E+02  0.92238043606E+02  0.00000000000E+00 0.  1.
<mgrwt>
<rscale>  0 0.14017356E+03</rscale>
<asrwt>0</asrwt>
<pdfrwt beam="2">  1        2 0.87924281E-02 0.14793162E+03</pdfrwt>
<pdfrwt beam="1">  1       -2 0.66475257E-01 0.14793162E+03</pdfrwt>
<totfact> 0.15626327E+03</totfact>
</mgrwt>
</event>
<event>
 7    1  0.6387485E-006  0.1341043E+03  0.7546771E-02  0.1235565E+00
          1   -1    0    0  501    0  0.00000000000E+00  0.00000000000E+00  0.47463600084E+03  0.47463600084E+03  0.00000000000E+00 0. -1.
         -1   -1    0    0    0  501 -0.00000000000E+00 -0.00000000000E+00 -0.29395782862E+02  0.29395782862E+02  0.00000000000E+00 0.  1.
         23    2    1    2    0    0  0.34696530482E+02 -0.34106832804E+02  0.22251156803E+03  0.25979868475E+03  0.12496732942E+03 0.  0.
          5    1    3    3  502    0  0.41477478054E+02 -0.68921619012E+02  0.20437439638E+03  0.21968512615E+03  0.47000000000E+01 0. -1.
         -5    1    3    3    0  502 -0.67809475724E+01  0.34814786209E+02  0.18137171641E+02  0.40113558604E+02  0.47000000000E+01 0. -1.
        -11    1    1    2    0    0 -0.46273747875E+02  0.56425535225E+02  0.14159474753E+03  0.15929272832E+03  0.00000000000E+00 0. -1.
         11    1    1    2    0    0  0.11577217393E+02 -0.22318702421E+02  0.81133902414E+02  0.84940370621E+02  0.00000000000E+00 0.  1.
<mgrwt>
<rscale>  0 0.12468327E+03</rscale>
<asrwt>0</asrwt>
<pdfrwt beam="1">  1        1 0.73020918E-01 0.13410428E+03</pdfrwt>
<pdfrwt beam="2">  1       -1 0.45224285E-02 0.13410428E+03</pdfrwt>
<totfact> 0.94287119E+03</totfact>
</mgrwt>
</event>
<event>
 7    1  0.6387485E-006  0.1457632E+03  0.7546771E-02  0.1215093E+00
         -2   -1    0    0    0  501 -0.00000000000E+00  0.00000000000E+00  0.13654085372E+03  0.13654085372E+03  0.00000000000E+00 0. -1.
          2   -1    0    0  501    0  0.00000000000E+00 -0.00000000000E+00 -0.13711279442E+03  0.13711279442E+03  0.00000000000E+00 0.  1.
         23    2    1    2    0    0 -0.71870951918E+02  0.21356654454E+02  0.33177371149E+02  0.14949134319E+03  0.12500153325E+03 0.  0.
          5    1    3    3  502    0 -0.72281734683E+02  0.13785974333E+02  0.75916884808E+02  0.10583083509E+03  0.47000000000E+01 0.  1.
         -5    1    3    3    0  502  0.41078276571E+00  0.75706801204E+01 -0.42739513659E+02  0.43660508103E+02  0.47000000000E+01 0.  1.
        -11    1    1    2    0    0  0.16285952808E+02 -0.23258305245E+02 -0.57156098067E+02  0.63820063992E+02  0.00000000000E+00 0.  1.
         11    1    1    2    0    0  0.55584999110E+02  0.19016507915E+01  0.23406786216E+02  0.60342240949E+02  0.00000000000E+00 0. -1.
<mgrwt>
<rscale>  0 0.13869686E+03</rscale>
<asrwt>0</asrwt>
<pdfrwt beam="2">  1        2 0.21094276E-01 0.14576325E+03</pdfrwt>
<pdfrwt beam="1">  1       -2 0.21006285E-01 0.14576325E+03</pdfrwt>
<totfact> 0.48349893E+03</totfact>
</mgrwt>
</event>
<event>
 7    1  0.6387485E-006  0.1621905E+03  0.7546771E-02  0.1193478E+00
         -4   -1    0    0    0  501 -0.00000000000E+00  0.00000000000E+00  0.13864178943E+03  0.13864178943E+03  0.00000000000E+00 0.  1.
          4   -1    0    0  501    0  0.00000000000E+00 -0.00000000000E+00 -0.16839429282E+03  0.16839429282E+03  0.00000000000E+00 0. -1.
         23    2    1    2    0    0 -0.10235812002E+03  0.14285734849E+02  0.12001129105E+02  0.16263388589E+03  0.12499794712E+03 0.  0.
          5    1    3    3  502    0 -0.70875785948E+02 -0.39963269843E+02 -0.30170250559E+02  0.86906697033E+02  0.47000000000E+01 0. -1.
         -5    1    3    3    0  502 -0.31482334073E+02  0.54249004692E+02  0.42171379664E+02  0.75727188853E+02  0.47000000000E+01 0. -1.
        -11    1    1    2    0    0  0.72018901018E+02  0.29034489569E+02 -0.10394579772E+01  0.77658252371E+02  0.00000000000E+00 0.  1.
         11    1    1    2    0    0  0.30339219002E+02 -0.43320224419E+02 -0.40714174522E+02  0.66743943998E+02  0.00000000000E+00 0. -1.
<mgrwt>
<rscale>  0 0.15583777E+03</rscale>
<asrwt>0</asrwt>
<pdfrwt beam="2">  1        4 0.25906814E-01 0.16219049E+03</pdfrwt>
<pdfrwt beam="1">  1       -4 0.21329506E-01 0.16219049E+03</pdfrwt>
<totfact> 0.48278393E+02</totfact>
</mgrwt>
</event>
<event>
 7    1  0.6387485E-006  0.1780413E+03  0.7546771E-02  0.1175203E+00
         -1   -1    0    0    0  501 -0.00000000000E+00  0.00000000000E+00  0.35243290202E+02  0.35243290202E+02  0.00000000000E+00 0.  1.
          1   -1    0    0  501    0  0.00000000000E+00 -0.00000000000E+00 -0.82378091408E+03  0.82378091408E+03  0.00000000000E+00 0. -1.
         23    2    1    2    0    0 -0.32381770075E+01  0.12674907740E+03 -0.34049399849E+03  0.38423282492E+03  0.12499154503E+03 0.  0.
          5    1    3    3  502    0 -0.44565201396E+02  0.12481379661E+03 -0.22150432553E+03  0.25816815688E+03  0.47000000000E+01 0.  1.
         -5    1    3    3    0  502  0.41327024389E+02  0.19352807821E+01 -0.11898967296E+03  0.12606466804E+03  0.47000000000E+01 0.  1.
        -11    1    1    2    0    0 -0.12213335861E+02 -0.69455836566E+02 -0.37047813003E+03  0.37713038016E+03  0.00000000000E+00 0. -1.
         11    1    1    2    0    0  0.15451512869E+02 -0.57293240830E+02 -0.77565495353E+02  0.97660999197E+02  0.00000000000E+00 0.  1.
<mgrwt>
<rscale>  0 0.17256073E+03</rscale>
<asrwt>0</asrwt>
<pdfrwt beam="2">  1        1 0.12673553E+00 0.17804129E+03</pdfrwt>
<pdfrwt beam="1">  1       -1 0.54220444E-02 0.17804129E+03</pdfrwt>
<totfact> 0.33853582E+03</totfact>
</mgrwt>
</event>
<event>
 7    1  0.6387485E-006  0.1683958E+03  0.7546771E-02  0.1186357E+00
         -1   -1    0    0    0  501 -0.00000000000E+00  0.00000000000E+00  0.21473752327E+03  0.21473752327E+03  0.00000000000E+00 0.  1.
          1   -1    0    0  501    0  0.00000000000E+00 -0.00000000000E+00 -0.12815894057E+03  0.12815894057E+03  0.00000000000E+00 0. -1.
         23    2    1    2    0    0 -0.10678577340E+03  0.36400742958E+02  0.10302351426E+03  0.19741071069E+03  0.12501571387E+03 0.  0.
          5    1    3    3  502    0 -0.87170007899E+01  0.63698078498E+02  0.25309484144E+02  0.69253817907E+02  0.47000000000E+01 0.  1.
         -5    1    3    3    0  502 -0.98068772614E+02 -0.27297335540E+02  0.77714030116E+02  0.12815689278E+03  0.47000000000E+01 0.  1.
        -11    1    1    2    0    0  0.40151935492E+02  0.83846254335E+01  0.31727616891E+02  0.51856740555E+02  0.00000000000E+00 0.  1.
         11    1    1    2    0    0  0.66633837913E+02 -0.44785368392E+02 -0.48172548453E+02  0.93629012605E+02  0.00000000000E+00 0. -1.
<mgrwt>
<rscale>  0 0.16208972E+03</rscale>
<asrwt>0</asrwt>
<pdfrwt beam="2">  1        1 0.19716760E-01 0.16839580E+03</pdfrwt>
<pdfrwt beam="1">  1       -1 0.33036542E-01 0.16839580E+03</pdfrwt>
<totfact> 0.22070352E+03</totfact>
</mgrwt>
</event>
<event>
 7    1  0.6387485E-006  0.1290727E+03  0.7546771E-02  0.1242912E+00
          3   -1    0    0  501    0  0.00000000000E+00  0.00000000000E+00  0.26905714807E+02  0.26905714807E+02  0.00000000000E+00 0. -1.
         -3   -1    0    0    0  501 -0.00000000000E+00 -0.00000000000E+00 -0.47659462709E+03  0.47659462709E+03  0.00000000000E+00 0.  1.
         23    2    1    2    0    0 -0.29886565347E+02  0.11868482328E+02 -0.23850400925E+03  0.27118982127E+03  0.12500275626E+03 0.  0.
          5    1    3    3  502    0 -0.70910050765E+02  0.77040658560E+01 -0.79732210902E+02  0.10708362800E+03  0.47000000000E+01 0. -1.
         -5    1    3    3    0  502  0.41023485418E+02  0.41644164719E+01 -0.15877179835E+03  0.16410619327E+03  0.47000000000E+01 0. -1.
        -11    1    1    2    0    0 -0.24650219499E+02  0.21070919427E+02 -0.58947056255E+02  0.67278320490E+02  0.00000000000E+00 0. -1.
         11    1    1    2    0    0  0.54536784846E+02 -0.32939401755E+02 -0.15223784678E+03  0.16503220014E+03  0.00000000000E+00 0.  1.
<mgrwt>
<rscale>  0 0.12011246E+03</rscale>
<asrwt>0</asrwt>
<pdfrwt beam="1">  1        3 0.41393406E-02 0.12907268E+03</pdfrwt>
<pdfrwt beam="2">  1       -3 0.73322252E-01 0.12907268E+03</pdfrwt>
<totfact> 0.12656212E+03</totfact>
</mgrwt>
</event>
<event>
 7    1  0.6387485E-006  0.1320936E+03  0.7546771E-02  0.1237048E+00
          1   -1    0    0  501    0  0.00000000000E+00  0.00000000000E+00  0.96514640779E+02  0.96514640779E+02  0.00000000000E+00 0. -1.
         -1   -1    0    0    0  501 -0.00000000000E+00 -0.00000000000E+00 -0.18933424339E+03  0.18933424339E+03  0.00000000000E+00 0.  1.
         23    2    1    2    0    0 -0.41842085246E+02  0.86087171420E+01 -0.12221881027E+03  0.17996151114E+03  0.12499535112E+03 0.  0.
          5    1    3    3  502    0  0.42760702631E+02  0.16028796361E+02 -0.54362510479E+02  0.71153162600E+02  0.47000000000E+01 0.  1.
         -5    1    3    3    0  502 -0.84602787877E+02 -0.74200792192E+01 -0.67856299787E+02  0.10880834854E+03  0.47000000000E+01 0.  1.
        -11    1    1    2    0    0  0.59693592024E+02 -0.31334088834E+02  0.35734429701E+02  0.76302683556E+02  0.00000000000E+00 0. -1.
         11    1    1    2    0    0 -0.17851506778E+02  0.22725371692E+02 -0.63352220507E+01  0.29584689473E+02  0.00000000000E+00 0.  1.
<mgrwt>
<rscale>  0 0.12374206E+03</rscale>
<asrwt>0</asrwt>
<pdfrwt beam="1">  1        1 0.14848407E-01 0.13209356E+03</pdfrwt>
<pdfrwt beam="2">  1       -1 0.29128345E-01 0.13209356E+03</pdfrwt>
<totfact> 0.38887903E+03</totfact>
</mgrwt>
</event>
<event>
 7    1  0.6387485E-006  0.2252425E+03  0.7546771E-02  0.1132592E+00
         -1   -1    0    0    0  501 -0.00000000000E+00  0.00000000000E+00  0.57878608932E+02  0.57878608932E+02  0.00000000000E+00 0.  1.
          1   -1    0    0  501    0  0.00000000000E+00 -0.00000000000E+00 -0.90161014494E+03  0.90161014494E+03  0.00000000000E+00 0. -1.
         23    2    1    2    0    0 -0.72522042845E+02  0.17279334918E+03 -0.29336176313E+03  0.36985851424E+03  0.12496882919E+03 0.  0.
          5    1    3    3  502    0 -0.25858769607E+02  0.14005706646E+03 -0.11676336965E+03  0.18422929280E+03  0.47000000000E+01 0.  1.
         -5    1    3    3    0  502 -0.46663273238E+02  0.32736282720E+02 -0.17659839348E+03  0.18562922145E+03  0.47000000000E+01 0.  1.
        -11    1    1    2    0    0  0.52391510844E+02 -0.15102014388E+03 -0.53018750641E+03  0.55376054953E+03  0.00000000000E+00 0. -1.
         11    1    1    2    0    0  0.20130532001E+02 -0.21773205301E+02 -0.20182266466E+02  0.35869690094E+02  0.00000000000E+00 0.  1.
<mgrwt>
<rscale>  0 0.22174066E+03</rscale>
<asrwt>0</asrwt>
<pdfrwt beam="2">  1        1 0.13870925E+00 0.22524253E+03</pdfrwt>
<pdfrwt beam="1">  1       -1 0.89044017E-02 0.22524253E+03</pdfrwt>
<totfact> 0.13900259E+03</totfact>
</mgrwt>
</event>
<event>
 7    1  0.6387485E-006  0.1889063E+03  0.7546771E-02  0.1164264E+00
         -2   -1    0    0    0  501 -0.00000000000E+00  0.00000000000E+00  0.74973611125E+02  0.74973611125E+02  0.00000000000E+00 0.  1.
          2   -1    0    0  501    0  0.00000000000E+00 -0.00000000000E+00 -0.60387597872E+03  0.60387597872E+03  0.00000000000E+00 0. -1.
         23    2    1    2    0    0  0.12975608131E+03 -0.56779069922E+02 -0.91394103020E+02  0.20985347131E+03  0.12500037574E+03 0.  0.
          5    1    3    3  502    0  0.11976580448E+03 -0.63250973942E+02 -0.19606946000E+02  0.13693449514E+03  0.47000000000E+01 0. -1.
         -5    1    3    3    0  502  0.99902768294E+01  0.64719040200E+01 -0.71787157020E+02  0.72918976171E+02  0.47000000000E+01 0. -1.
        -11    1    1    2    0    0 -0.67648252783E+02  0.59795493533E+02 -0.15198286182E+03  0.17677832853E+03  0.00000000000E+00 0.  1.
         11    1    1    2    0    0 -0.62107828528E+02 -0.30164236108E+01 -0.28552540275E+03  0.29221779000E+03  0.00000000000E+00 0. -1.
<mgrwt>
<rscale>  0 0.18370627E+03</rscale>
<asrwt>0</asrwt>
<pdfrwt beam="2">  1        2 0.92903996E-01 0.18890632E+03</pdfrwt>
<pdfrwt beam="1">  1       -2 0.11534402E-01 0.18890632E+03</pdfrwt>
<totfact> 0.26105822E+03</totfact>
</mgrwt>
</event>
<event>
 7    1  0.9183585E-006  0.1934220E+03  0.7546771E-02  0.1159859E+00
          1   -1    0    0  501    0  0.00000000000E+00  0.00000000000E+00  0.36880927873E+03  0.36880927873E+03  0.00000000000E+00 0. -1.
         -1   -1    0    0    0  501 -0.00000000000E+00 -0.00000000000E+00 -0.10231722426E+03  0.10231722426E+03  0.00000000000E+00 0.  1.
         23    2    1    2    0    0  0.92186689934E+02 -0.11527696266E+03  0.63547207305E+02  0.20359347304E+03  0.12499956315E+03 0.  0.
          5    1    3    3  502    0 -0.16111294342E+02 -0.71078044339E+02  0.63644343395E+01  0.73309332399E+02  0.47000000000E+01 0. -1.
         -5    1    3    3    0  502  0.10829798428E+03 -0.44198918319E+02  0.57182772966E+02  0.13028414064E+03  0.47000000000E+01 0. -1.
        -11    1    1    2    0    0 -0.49889810281E+02  0.56097066283E+00  0.78970425859E+02  0.93411112927E+02  0.00000000000E+00 0. -1.
         11    1    1    2    0    0 -0.42296879653E+02  0.11471599199E+03  0.12397442131E+03  0.17412191702E+03  0.00000000000E+00 0.  1.
<mgrwt>
<rscale>  0 0.18845856E+03</rscale>
<asrwt>0</asrwt>
<pdfrwt beam="1">  1        1 0.56739888E-01 0.19342196E+03</pdfrwt>
<pdfrwt beam="2">  1       -1 0.15741112E-01 0.19342196E+03</pdfrwt>
<totfact> 0.19815588E+03</totfact>
</mgrwt>
</event>
<event>
 7    1  0.6387485E-006  0.1269213E+03  0.7546771E-02  0.1246219E+00
         -1   -1    0    0    0  501 -0.00000000000E+00  0.00000000000E+00  0.95127971065E+03  0.95127971065E+03  0.00000000000E+00 0.  1.
          1   -1    0    0  501    0  0.00000000000E+00 -0.00000000000E+00 -0.15488867538E+02  0.15488867538E+02  0.00000000000E+00 0. -1.
         23    2    1    2    0    0 -0.15236750141E+02 -0.15858472269E+02  0.71703788023E+03  0.72818427285E+03  0.12500145537E+03 0.  0.
          5    1    3    3  502    0 -0.45131779653E+01 -0.67280238549E+02  0.28332280798E+03  0.29127461750E+03  0.47000000000E+01 0.  1.
         -5    1    3    3    0  502 -0.10723572176E+02  0.51421766280E+02  0.43371507224E+03  0.43690965535E+03  0.47000000000E+01 0.  1.
        -11    1    1    2    0    0 -0.12099516498E+02  0.38073879610E+02  0.40514770213E+02  0.56898727696E+02  0.00000000000E+00 0. -1.
         11    1    1    2    0    0  0.27336266640E+02 -0.22215407341E+02  0.17823819267E+03  0.18168557765E+03  0.00000000000E+00 0.  1.
<mgrwt>
<rscale>  0 0.11812707E+03</rscale>
<asrwt>0</asrwt>
<pdfrwt beam="2">  1        1 0.23829034E-02 0.12692129E+03</pdfrwt>
<pdfrwt beam="1">  1       -1 0.14635068E+00 0.12692129E+03</pdfrwt>
<totfact> 0.18418043E+03</totfact>
</mgrwt>
</event>
<event>
 7    1  0.6387485E-006  0.1251609E+03  0.7546771E-02  0.1250157E+00
         -1   -1    0    0    0  501 -0.00000000000E+00  0.00000000000E+00  0.78980258004E+02  0.78980258004E+02  0.00000000000E+00 0.  1.
          1   -1    0    0  501    0  0.00000000000E+00 -0.00000000000E+00 -0.15864174456E+03  0.15864174456E+03  0.00000000000E+00 0. -1.
         23    2    1    2    0    0  0.50677349643E+01  0.37639719433E+01 -0.16570702881E+02  0.12625305225E+03  0.12500158233E+03 0.  0.
          5    1    3    3  502    0  0.30090557179E+01  0.48943391539E+02 -0.49713736504E+02  0.69986109971E+02  0.47000000000E+01 0. -1.
         -5    1    3    3    0  502  0.20586792464E+01 -0.45179419596E+02  0.33143033623E+02  0.56266942275E+02  0.47000000000E+01 0. -1.
        -11    1    1    2    0    0  0.44761429861E+01  0.37524821136E+02 -0.30969418361E+01  0.37917530326E+02  0.00000000000E+00 0.  1.
         11    1    1    2    0    0 -0.95438779504E+01 -0.41288793079E+02 -0.59993841843E+02  0.73451419996E+02  0.00000000000E+00 0. -1.
<mgrwt>
<rscale>  0 0.11581964E+03</rscale>
<asrwt>0</asrwt>
<pdfrwt beam="2">  1        1 0.24406422E-01 0.12516088E+03</pdfrwt>
<pdfrwt beam="1">  1       -1 0.12150809E-01 0.12516088E+03</pdfrwt>
<totfact> 0.83229278E+03</totfact>
</mgrwt>
</event>
<event>
 7    1  0.6387485E-006  0.1408220E+03  0.7546771E-02  0.1224143E+00
         -2   -1    0    0    0  501 -0.00000000000E+00  0.00000000000E+00  0.12405807569E+03  0.12405807569E+03  0.00000000000E+00 0.  1.
          2   -1    0    0  501    0  0.00000000000E+00 -0.00000000000E+00 -0.12933150966E+03  0.12933150966E+03  0.00000000000E+00 0. -1.
         23    2    1    2    0    0 -0.63612545829E+02  0.12524957519E+02  0.16157067149E+02  0.14174589512E+03  0.12500966929E+03 0.  0.
          5    1    3    3  502    0 -0.16728319160E+02  0.55165689591E+02 -0.28102334451E+02  0.64303352724E+02  0.47000000000E+01 0. -1.
         -5    1    3    3    0  502 -0.46884226669E+02 -0.42640732072E+02  0.44259401600E+02  0.77442542391E+02  0.47000000000E+01 0. -1.
        -11    1    1    2    0    0  0.14907447249E+02 -0.31793300922E+01 -0.51457941543E+02  0.53668052612E+02  0.00000000000E+00 0. -1.
         11    1    1    2    0    0  0.48705098580E+02 -0.93456274268E+01  0.30027440421E+02  0.57975637624E+02  0.00000000000E+00 0.  1.
<mgrwt>
<rscale>  0 0.13225846E+03</rscale>
<asrwt>0</asrwt>
<pdfrwt beam="2">  1        2 0.19897155E-01 0.14082204E+03</pdfrwt>
<pdfrwt beam="1">  1       -2 0.19085858E-01 0.14082204E+03</pdfrwt>
<totfact> 0.60624213E+03</totfact>
</mgrwt>
</event>
<event>
 7    1  0.6387485E-006  0.1749323E+03  0.7546771E-02  0.1178847E+00
          2   -1    0    0  501    0  0.00000000000E+00  0.00000000000E+00  0.15881712932E+03  0.15881712932E+03  0.00000000000E+00 0. -1.
         -2   -1    0    0    0  501 -0.00000000000E+00 -0.00000000000E+00 -0.16958282280E+03  0.16958282280E+03  0.00000000000E+00 0.  1.
         23    2    1    2    0    0  0.72839077317E+02 -0.98313547025E+02 -0.16770514712E+02  0.17573432441E+03  0.12502086985E+03 0.  0.
          5    1    3    3  502    0  0.25660407672E+02 -0.35368587288E+02 -0.68559550457E+02  0.81436450362E+02  0.47000000000E+01 0. -1.
         -5    1    3    3    0  502  0.47178669644E+02 -0.62944959737E+02  0.51789035745E+02  0.94297874043E+02  0.47000000000E+01 0. -1.
        -11    1    1    2    0    0 -0.79723795053E+02  0.74064664018E+02 -0.26043762450E+02  0.11189162398E+03  0.00000000000E+00 0.  1.
         11    1    1    2    0    0  0.68847177362E+01  0.24248883006E+02  0.32048583681E+02  0.40774003744E+02  0.00000000000E+00 0. -1.
<mgrwt>
<rscale>  0 0.16904555E+03</rscale>
<asrwt>0</asrwt>
<pdfrwt beam="1">  1        2 0.24433405E-01 0.17493228E+03</pdfrwt>
<pdfrwt beam="2">  1       -2 0.26089665E-01 0.17493228E+03</pdfrwt>
<totfact> 0.28428030E+03</totfact>
</mgrwt>
</event>
<event>
 7    1  0.8814230E-006  0.3442022E+03  0.7546771E-02  0.1065865E+00
          1   -1    0    0  501    0  0.00000000000E+00  0.00000000000E+00  0.10764156538E+04  0.10764156538E+04  0.00000000000E+00 0. -1.
         -1   -1    0    0    0  501 -0.00000000000E+00 -0.00000000000E+00 -0.10885334032E+03  0.10885334032E+03  0.00000000000E+00 0.  1.
         23    2    1    2    0    0 -0.27231006748E+03 -0.16940168897E+03  0.42412243754E+03  0.54621883935E+03  0.12500189340E+03 0.  0.
          5    1    3    3  502    0 -0.22443476737E+02  0.13134351280E+02  0.79578198614E+01  0.27597784849E+02  0.47000000000E+01 0.  1.
         -5    1    3    3    0  502 -0.24986659075E+03 -0.18253604025E+03  0.41616461768E+03  0.51862105450E+03  0.47000000000E+01 0.  1.
        -11    1    1    2    0    0  0.20571025750E+03  0.17399402962E+03  0.44015867457E+03  0.51607198256E+03  0.00000000000E+00 0. -1.
         11    1    1    2    0    0  0.66599809980E+02 -0.45923406488E+01  0.10328120136E+03  0.12297817220E+03  0.00000000000E+00 0.  1.
<mgrwt>
<rscale>  0 0.34219450E+03</rscale>
<asrwt>0</asrwt>
<pdfrwt beam="1">  1        1 0.16560240E+00 0.34420223E+03</pdfrwt>
<pdfrwt beam="2">  1       -1 0.16746668E-01 0.34420223E+03</pdfrwt>
<totfact> 0.37703868E+02</totfact>
</mgrwt>
</event>
<event>
 6    1  0.6387485E-006  0.1474461E+03  0.7546771E-02  0.1213602E+00
         -1   -1    0    0    0  501 -0.00000000000E+00  0.00000000000E+00  0.61441975973E+02  0.61441975973E+02  0.00000000000E+00 0.  1.
          1   -1    0    0  501    0  0.00000000000E+00 -0.00000000000E+00 -0.29529047589E+03  0.29529047589E+03  0.00000000000E+00 0. -1.
          5    1    1    2  502    0  0.35541881897E+02  0.23197890063E+02 -0.64103824195E+02  0.77024397099E+02  0.47000000000E+01 0. -1.
         -5    1    1    2    0  502 -0.91641274738E+02 -0.45312218020E+02 -0.90465360086E+02  0.13659206314E+03  0.47000000000E+01 0.  1.
        -11    1    1    2    0    0 -0.18448583979E+02 -0.23415615535E+02 -0.32217135706E+02  0.43892882508E+02  0.00000000000E+00 0.  1.
         11    1    1    2    0    0  0.74547976821E+02  0.45529943492E+02 -0.47062179926E+02  0.99223109112E+02  0.00000000000E+00 0. -1.
<mgrwt>
<rscale>  0 0.13979753E+03</rscale>
<asrwt>0</asrwt>
<pdfrwt beam="2">  1        1 0.45429305E-01 0.14744612E+03</pdfrwt>
<pdfrwt beam="1">  1       -1 0.94526116E-02 0.14744612E+03</pdfrwt>
<totfact> 0.57158242E+03</totfact>
</mgrwt>
</event>
<event>
 7    1  0.6387485E-006  0.1657418E+03  0.7546771E-02  0.1189354E+00
          2   -1    0    0  501    0  0.00000000000E+00  0.00000000000E+00  0.24262628400E+03  0.24262628400E+03  0.00000000000E+00 0. -1.
         -2   -1    0    0    0  501 -0.00000000000E+00 -0.00000000000E+00 -0.10672717116E+03  0.10672717116E+03  0.00000000000E+00 0.  1.
         23    2    1    2    0    0  0.29211455049E+02  0.10485976278E+03  0.21536901363E+02  0.16713525848E+03  0.12498590941E+03 0.  0.
          5    1    3    3  502    0  0.48139634760E+02  0.14922271154E+02  0.49655654954E+02  0.70907493822E+02  0.47000000000E+01 0.  1.
         -5    1    3    3    0  502 -0.18928179711E+02  0.89937491630E+02 -0.28118753591E+02  0.96227764660E+02  0.47000000000E+01 0.  1.
        -11    1    1    2    0    0 -0.10648878392E+02 -0.39076848880E+02 -0.87204941622E+01  0.41430010232E+02  0.00000000000E+00 0.  1.
         11    1    1    2    0    0 -0.18562576657E+02 -0.65782913905E+02  0.12308270564E+03  0.14078818644E+03  0.00000000000E+00 0. -1.
<mgrwt>
<rscale>  0 0.15941913E+03</rscale>
<asrwt>0</asrwt>
<pdfrwt beam="1">  1        2 0.37327120E-01 0.16574184E+03</pdfrwt>
<pdfrwt beam="2">  1       -2 0.16419565E-01 0.16574184E+03</pdfrwt>
<totfact> 0.39415198E+03</totfact>
</mgrwt>
</event>
<event>
 7    1  0.6387485E-006  0.1345400E+03  0.7546771E-02  0.1233601E+00
         -1   -1    0    0    0  501 -0.00000000000E+00  0.00000000000E+00  0.23057091173E+03  0.23057091173E+03  0.00000000000E+00 0.  1.
          1   -1    0    0  501    0  0.00000000000E+00 -0.00000000000E+00 -0.65192530717E+02  0.65192530717E+02  0.00000000000E+00 0. -1.
         23    2    1    2    0    0 -0.90486770917E+00 -0.49748901294E+02  0.12855366382E+03  0.18608348574E+03  0.12500098887E+03 0.  0.
          5    1    3    3  502    0  0.38314749284E+02 -0.62001896372E+02  0.29548355232E+02  0.78787375025E+02  0.47000000000E+01 0.  1.
         -5    1    3    3    0  502 -0.39219616993E+02  0.12252995079E+02  0.99005308590E+02  0.10729611071E+03  0.47000000000E+01 0.  1.
        -11    1    1    2    0    0  0.81528690125E+01  0.28043358994E+02  0.66251415949E+02  0.72402688983E+02  0.00000000000E+00 0.  1.
         11    1    1    2    0    0 -0.72480013033E+01  0.21705542300E+02 -0.29426698757E+02  0.37277267726E+02  0.00000000000E+00 0. -1.
<mgrwt>
<rscale>  0 0.12594405E+03</rscale>
<asrwt>0</asrwt>
<pdfrwt beam="2">  1        1 0.10029620E-01 0.13454003E+03</pdfrwt>
<pdfrwt beam="1">  1       -1 0.35472447E-01 0.13454003E+03</pdfrwt>
<totfact> 0.46608057E+03</totfact>
</mgrwt>
</event>
<event>
 7    1  0.6387485E-006  0.1352822E+03  0.7546771E-02  0.1235837E+00
          3   -1    0    0  501    0  0.00000000000E+00  0.00000000000E+00  0.70269309997E+02  0.70269309997E+02  0.00000000000E+00 0. -1.
         -3   -1    0    0    0  501 -0.00000000000E+00 -0.00000000000E+00 -0.23000260287E+03  0.23000260287E+03  0.00000000000E+00 0.  1.
         23    2    1    2    0    0  0.50675393017E+02  0.10442082165E+02 -0.15110769340E+03  0.20281716655E+03  0.12499694198E+03 0.  0.
          5    1    3    3  502    0 -0.21200782527E+02 -0.35659417604E+02 -0.85087147948E+02  0.94778584024E+02  0.47000000000E+01 0.  1.
         -5    1    3    3    0  502  0.71876175544E+02  0.46101499769E+02 -0.66020545451E+02  0.10803858252E+03  0.47000000000E+01 0.  1.
        -11    1    1    2    0    0 -0.28468455484E+02 -0.46522984266E+02 -0.20527135591E+01  0.54580716884E+02  0.00000000000E+00 0. -1.
         11    1    1    2    0    0 -0.22206937533E+02  0.36080902101E+02 -0.65728859167E+01  0.42874029438E+02  0.00000000000E+00 0.  1.
<mgrwt>
<rscale>  0 0.12451000E+03</rscale>
<asrwt>0</asrwt>
<pdfrwt beam="1">  1        3 0.10810663E-01 0.13528218E+03</pdfrwt>
<pdfrwt beam="2">  1       -3 0.35385016E-01 0.13528218E+03</pdfrwt>
<totfact> 0.11722399E+03</totfact>
</mgrwt>
</event>
<event>
 7    1  0.6387485E-006  0.1387427E+03  0.7546771E-02  0.1227471E+00
          1   -1    0    0  501    0  0.00000000000E+00  0.00000000000E+00  0.50472444022E+03  0.50472444022E+03  0.00000000000E+00 0. -1.
         -1   -1    0    0    0  501 -0.00000000000E+00 -0.00000000000E+00 -0.32378647154E+02  0.32378647154E+02  0.00000000000E+00 0.  1.
         23    2    1    2    0    0 -0.19840467531E+02  0.56843093120E+02  0.19054669879E+03  0.23570656182E+03  0.12499902990E+03 0.  0.
          5    1    3    3  502    0 -0.72422998128E+01  0.77761968150E+02  0.49720591192E+02  0.92701681676E+02  0.47000000000E+01 0. -1.
         -5    1    3    3    0  502 -0.12598167718E+02 -0.20918875030E+02  0.14082610760E+03  0.14300488014E+03  0.47000000000E+01 0. -1.
        -11    1    1    2    0    0 -0.25216788742E+00 -0.75030915891E+02  0.24105215030E+03  0.25245958309E+03  0.00000000000E+00 0. -1.
         11    1    1    2    0    0  0.20092635418E+02  0.18187822770E+02  0.40746943976E+02  0.48936942472E+02  0.00000000000E+00 0.  1.
<mgrwt>
<rscale>  0 0.12998981E+03</rscale>
<asrwt>0</asrwt>
<pdfrwt beam="1">  1        1 0.77649908E-01 0.13874271E+03</pdfrwt>
<pdfrwt beam="2">  1       -1 0.49813307E-02 0.13874271E+03</pdfrwt>
<totfact> 0.75638597E+03</totfact>
</mgrwt>
</event>
<event>
 7    1  0.6387485E-006  0.1402865E+03  0.7546771E-02  0.1221487E+00
         -2   -1    0    0    0  501 -0.00000000000E+00  0.00000000000E+00  0.78979193101E+02  0.78979193101E+02  0.00000000000E+00 0.  1.
          2   -1    0    0  501    0  0.00000000000E+00 -0.00000000000E+00 -0.29694180742E+03  0.29694180742E+03  0.00000000000E+00 0. -1.
         23    2    1    2    0    0 -0.61874389405E+02 -0.15079255091E+02 -0.14359048794E+02  0.14101943996E+03  0.12499790464E+03 0.  0.
          5    1    3    3  502    0 -0.77019037978E+02 -0.20508244002E+02  0.36266197568E+02  0.87691774809E+02  0.47000000000E+01 0. -1.
         -5    1    3    3    0  502  0.15144648573E+02  0.54289889113E+01 -0.50625246362E+02  0.53327665148E+02  0.47000000000E+01 0. -1.
        -11    1    1    2    0    0  0.49882720432E+02  0.53103954796E+02 -0.16005627405E+03  0.17585882598E+03  0.00000000000E+00 0.  1.
         11    1    1    2    0    0  0.11991668973E+02 -0.38024699705E+02 -0.43547291478E+02  0.59042734587E+02  0.00000000000E+00 0. -1.
<mgrwt>
<rscale>  0 0.13410603E+03</rscale>
<asrwt>0</asrwt>
<pdfrwt beam="2">  1        2 0.45683355E-01 0.14028649E+03</pdfrwt>
<pdfrwt beam="1">  1       -2 0.12150645E-01 0.14028649E+03</pdfrwt>
<totfact> 0.51423045E+03</totfact>
</mgrwt>
</event>
<event>
 7    1  0.6387485E-006  0.1307405E+03  0.7546771E-02  0.1240016E+00
         -2   -1    0    0    0  501 -0.00000000000E+00  0.00000000000E+00  0.54093305089E+02  0.54093305089E+02  0.00000000000E+00 0.  1.
          2   -1    0    0  501    0  0.00000000000E+00 -0.00000000000E+00 -0.24373493996E+03  0.24373493996E+03  0.00000000000E+00 0. -1.
         23    2    1    2    0    0 -0.75913156584E+01  0.37547549332E+02 -0.10283834614E+03  0.16633938974E+03  0.12500248241E+03 0.  0.
          5    1    3    3  502    0  0.24281376731E+01  0.82132186354E+02 -0.80996843015E+02  0.11547367867E+03  0.47000000000E+01 0. -1.
         -5    1    3    3    0  502 -0.10019453332E+02 -0.44584637023E+02 -0.21841503123E+02  0.50865711065E+02  0.47000000000E+01 0. -1.
        -11    1    1    2    0    0  0.45815906204E+02 -0.24076601510E+02 -0.24743763452E+02  0.57367532903E+02  0.00000000000E+00 0.  1.
         11    1    1    2    0    0 -0.38224590545E+02 -0.13470947821E+02 -0.62059525282E+02  0.74121322410E+02  0.00000000000E+00 0. -1.
<mgrwt>
<rscale>  0 0.12188722E+03</rscale>
<asrwt>0</asrwt>
<pdfrwt beam="2">  1        2 0.37497682E-01 0.13074046E+03</pdfrwt>
<pdfrwt beam="1">  1       -2 0.83220471E-02 0.13074046E+03</pdfrwt>
<totfact> 0.11444020E+04</totfact>
</mgrwt>
</event>
<event>
 7    1  0.6387485E-006  0.1284634E+03  0.7546771E-02  0.1249323E+00
          1   -1    0    0  501    0  0.00000000000E+00  0.00000000000E+00  0.55760770824E+03  0.55760770824E+03  0.00000000000E+00 0. -1.
         -1   -1    0    0    0  501 -0.00000000000E+00 -0.00000000000E+00 -0.20691814908E+02  0.20691814908E+02  0.00000000000E+00 0.  1.
         23    2    1    2    0    0 -0.23827248064E+02  0.17617336358E+02  0.31432039545E+03  0.33955875655E+03  0.12499891945E+03 0.  0.
          5    1    3    3  502    0 -0.43730004220E+02  0.31888797108E+02  0.30940907066E+03  0.31414212015E+03  0.47000000000E+01 0. -1.
         -5    1    3    3    0  502  0.19902756156E+02 -0.14271460751E+02  0.49113247956E+01  0.25416636399E+02  0.47000000000E+01 0. -1.
        -11    1    1    2    0    0  0.26294982288E+02 -0.48326691535E+02  0.13029540155E+03  0.14143474422E+03  0.00000000000E+00 0.  1.
         11    1    1    2    0    0 -0.24677342240E+01  0.30709355177E+02  0.92300096331E+02  0.97306022374E+02  0.00000000000E+00 0. -1.
<mgrwt>
<rscale>  0 0.11630338E+03</rscale>
<asrwt>0</asrwt>
<pdfrwt beam="1">  1        1 0.85785790E-01 0.12846337E+03</pdfrwt>
<pdfrwt beam="2">  1       -1 0.31833566E-02 0.12846337E+03</pdfrwt>
<totfact> 0.12727086E+04</totfact>
</mgrwt>
</event>
<event>
 7    1  0.6387485E-006  0.2897590E+03  0.7546771E-02  0.1092324E+00
          1   -1    0    0  501    0  0.00000000000E+00  0.00000000000E+00  0.18927567310E+03  0.18927567310E+03  0.00000000000E+00 0. -1.
         -1   -1    0    0    0  501 -0.00000000000E+00 -0.00000000000E+00 -0.42275704471E+03  0.42275704471E+03  0.00000000000E+00 0.  1.
         23    2    1    2    0    0 -0.15935384480E+03  0.20722186190E+03 -0.12197028520E+03  0.31438356368E+03  0.12500290692E+03 0.  0.
          5    1    3    3  502    0  0.12167611828E+02  0.59321039254E+02 -0.95272992400E+01  0.61480858050E+02  0.47000000000E+01 0. -1.
         -5    1    3    3    0  502 -0.17152145663E+03  0.14790082264E+03 -0.11244298596E+03  0.25290270563E+03  0.47000000000E+01 0. -1.
        -11    1    1    2    0    0  0.10623341574E+03 -0.86730108354E+02 -0.23181644334E+02  0.13908644416E+03  0.00000000000E+00 0. -1.
         11    1    1    2    0    0  0.53120429060E+02 -0.12049175354E+03 -0.88329442074E+02  0.15856270997E+03  0.00000000000E+00 0.  1.
<mgrwt>
<rscale>  0 0.28624886E+03</rscale>
<asrwt>0</asrwt>
<pdfrwt beam="1">  1        1 0.29119335E-01 0.28975899E+03</pdfrwt>
<pdfrwt beam="2">  1       -1 0.65039545E-01 0.28975899E+03</pdfrwt>
<totfact> 0.39204135E+02</totfact>
</mgrwt>
</event>
<event>
 6    1  0.6387485E-006  0.1349727E+03  0.7546771E-02  0.1234927E+00
          1   -1    0    0  501    0  0.00000000000E+00  0.00000000000E+00  0.21292527838E+03  0.21292527838E+03  0.00000000000E+00 0. -1.
         -1   -1    0    0    0  501 -0.00000000000E+00 -0.00000000000E+00 -0.83768358398E+02  0.83768358398E+02  0.00000000000E+00 0.  1.
          5    1    1    2  502    0 -0.47411929740E+02 -0.58950805730E+01  0.43287243981E+02  0.64641461525E+02  0.47000000000E+01 0. -1.
         -5    1    1    2    0  502  0.43285268978E+02 -0.36421833558E+02 -0.41542867493E+02  0.70342478701E+02  0.47000000000E+01 0.  1.
        -11    1    1    2    0    0  0.43887792080E+02  0.89340899627E+01  0.40039181810E+02  0.60075721695E+02  0.00000000000E+00 0.  1.
         11    1    1    2    0    0 -0.39761131319E+02  0.33382824168E+02  0.87373361681E+02  0.10163397485E+03  0.00000000000E+00 0. -1.
<mgrwt>
<rscale>  0 0.12509122E+03</rscale>
<asrwt>0</asrwt>
<pdfrwt beam="1">  1        1 0.32757735E-01 0.13497267E+03</pdfrwt>
<pdfrwt beam="2">  1       -1 0.12887440E-01 0.13497267E+03</pdfrwt>
<totfact> 0.52944951E+03</totfact>
</mgrwt>
</event>
<event>
 7    1  0.6387485E-006  0.1321777E+03  0.7546771E-02  0.1237358E+00
         -1   -1    0    0    0  501 -0.00000000000E+00  0.00000000000E+00  0.63669307095E+03  0.63669307095E+03  0.00000000000E+00 0.  1.
          1   -1    0    0  501    0  0.00000000000E+00 -0.00000000000E+00 -0.21604397435E+02  0.21604397435E+02  0.00000000000E+00 0. -1.
         23    2    1    2    0    0 -0.25952959466E+02  0.34240074998E+02  0.38511948381E+03  0.40717068896E+03  0.12500005720E+03 0.  0.
          5    1    3    3  502    0  0.42352537249E+02  0.45998319561E+02  0.18087273171E+03  0.19143306373E+03  0.47000000000E+01 0.  1.
         -5    1    3    3    0  502 -0.68305496716E+02 -0.11758244563E+02  0.20424675210E+03  0.21573762523E+03  0.47000000000E+01 0.  1.
        -11    1    1    2    0    0  0.57554222891E+02 -0.23658535028E+02  0.18479085305E+03  0.19498685654E+03  0.00000000000E+00 0.  1.
         11    1    1    2    0    0 -0.31601263424E+02 -0.10581539970E+02  0.45178336655E+02  0.56139922881E+02  0.00000000000E+00 0. -1.
<mgrwt>
<rscale>  0 0.12354665E+03</rscale>
<asrwt>0</asrwt>
<pdfrwt beam="2">  1        1 0.33237539E-02 0.13217773E+03</pdfrwt>
<pdfrwt beam="1">  1       -1 0.97952766E-01 0.13217773E+03</pdfrwt>
<totfact> 0.29953086E+03</totfact>
</mgrwt>
</event>
<event>
 7    1  0.6387485E-006  0.1253427E+03  0.7546771E-02  0.1251163E+00
          1   -1    0    0  501    0  0.00000000000E+00  0.00000000000E+00  0.13513327178E+03  0.13513327178E+03  0.00000000000E+00 0. -1.
         -1   -1    0    0    0  501 -0.00000000000E+00 -0.00000000000E+00 -0.90067757786E+02  0.90067757786E+02  0.00000000000E+00 0.  1.
         23    2    1    2    0    0  0.88889832930E+01 -0.25585626714E+01  0.90709285333E+00  0.12534596847E+03  0.12500091491E+03 0.  0.
          5    1    3    3  502    0  0.44939953210E+02  0.32154570816E+02 -0.33166377120E+02  0.64618994035E+02  0.47000000000E+01 0. -1.
         -5    1    3    3    0  502 -0.36050969916E+02 -0.34713133488E+02  0.34073469974E+02  0.60726974439E+02  0.47000000000E+01 0. -1.
        -11    1    1    2    0    0  0.36415854362E+02 -0.16252846290E+02  0.13965364797E+02  0.42252820916E+02  0.00000000000E+00 0.  1.
         11    1    1    2    0    0 -0.45304837655E+02  0.18811408962E+02  0.30193056348E+02  0.57602240180E+02  0.00000000000E+00 0. -1.
<mgrwt>
<rscale>  0 0.11524000E+03</rscale>
<asrwt>0</asrwt>
<pdfrwt beam="1">  1        1 0.20789734E-01 0.12534269E+03</pdfrwt>
<pdfrwt beam="2">  1       -1 0.13856578E-01 0.12534269E+03</pdfrwt>
<totfact> 0.83126705E+03</totfact>
</mgrwt>
</event>
<event>
 7    1  0.6387485E-006  0.1483088E+03  0.7546771E-02  0.1212967E+00
         -1   -1    0    0    0  501 -0.00000000000E+00  0.00000000000E+00  0.10890987708E+03  0.10890987708E+03  0.00000000000E+00 0.  1.
          1   -1    0    0  501    0  0.00000000000E+00 -0.00000000000E+00 -0.16474217985E+03  0.16474217985E+03  0.00000000000E+00 0. -1.
         23    2    1    2    0    0 -0.73439075551E+02  0.31251228113E+02 -0.42218164378E+02  0.15420075744E+03  0.12500225244E+03 0.  0.
          5    1    3    3  502    0  0.28856622545E+02 -0.18355879019E+02 -0.10044730230E+02  0.35953157923E+02  0.47000000000E+01 0.  1.
         -5    1    3    3    0  502 -0.10229569810E+03  0.49607107132E+02 -0.32173434149E+02  0.11824759952E+03  0.47000000000E+01 0.  1.
        -11    1    1    2    0    0  0.90098885710E+02 -0.13050551795E+02  0.47016440478E+00  0.91040360076E+02  0.00000000000E+00 0.  1.
         11    1    1    2    0    0 -0.16659810158E+02 -0.18200676318E+02 -0.14084302791E+02  0.28410939408E+02  0.00000000000E+00 0. -1.
<mgrwt>
<rscale>  0 0.14026946E+03</rscale>
<asrwt>0</asrwt>
<pdfrwt beam="2">  1        1 0.25344951E-01 0.14830880E+03</pdfrwt>
<pdfrwt beam="1">  1       -1 0.16755366E-01 0.14830880E+03</pdfrwt>
<totfact> 0.48610884E+03</totfact>
</mgrwt>
</event>
<event>
 7    1  0.6387485E-006  0.1468195E+03  0.7546771E-02  0.1214246E+00
          4   -1    0    0  501    0  0.00000000000E+00  0.00000000000E+00  0.12922927778E+03  0.12922927778E+03  0.00000000000E+00 0. -1.
         -4   -1    0    0    0  501 -0.00000000000E+00 -0.00000000000E+00 -0.14780038205E+03  0.14780038205E+03  0.00000000000E+00 0.  1.
         23    2    1    2    0    0 -0.55021959600E+02  0.53891365571E+02 -0.47881736703E+02  0.15443005146E+03  0.12499713902E+03 0.  0.
          5    1    3    3  502    0 -0.30696237022E+02 -0.36194675413E+02 -0.37014122629E+02  0.60369270076E+02  0.47000000000E+01 0. -1.
         -5    1    3    3    0  502 -0.24325722578E+02  0.90086040984E+02 -0.10867614074E+02  0.94060781385E+02  0.47000000000E+01 0. -1.
        -11    1    1    2    0    0  0.43504953778E+02 -0.53923607131E+01 -0.23699321175E+02  0.49833887882E+02  0.00000000000E+00 0.  1.
         11    1    1    2    0    0  0.11517005821E+02 -0.48499004857E+02  0.53009953614E+02  0.72765720483E+02  0.00000000000E+00 0. -1.
<mgrwt>
<rscale>  0 0.13932052E+03</rscale>
<asrwt>0</asrwt>
<pdfrwt beam="1">  1        4 0.19881427E-01 0.14681955E+03</pdfrwt>
<pdfrwt beam="2">  1       -4 0.22738520E-01 0.14681955E+03</pdfrwt>
<totfact> 0.68440490E+02</totfact>
</mgrwt>
</event>
<event>
 7    1  0.6387485E-006  0.1652061E+03  0.7546771E-02  0.1189845E+00
          2   -1    0    0  501    0  0.00000000000E+00  0.00000000000E+00  0.44850855327E+02  0.44850855327E+02  0.00000000000E+00 0. -1.
         -2   -1    0    0    0  501 -0.00000000000E+00 -0.00000000000E+00 -0.52650519347E+03  0.52650519347E+03  0.00000000000E+00 0.  1.
         23    2    1    2    0    0 -0.39876199198E+01  0.10794739253E+03 -0.24411242621E+03  0.29476078259E+03  0.12499800663E+03 0.  0.
          5    1    3    3  502    0  0.11088740728E+02  0.13223955039E+03 -0.22044632596E+03  0.25734982317E+03  0.47000000000E+01 0.  1.
         -5    1    3    3    0  502 -0.15076360648E+02 -0.24292157861E+02 -0.23666100251E+02  0.37410959424E+02  0.47000000000E+01 0.  1.
        -11    1    1    2    0    0  0.14831999209E+02 -0.79280805258E+02 -0.23177531049E+03  0.24540829007E+03  0.00000000000E+00 0.  1.
         11    1    1    2    0    0 -0.10844379289E+02 -0.28666587273E+02 -0.57666014464E+01  0.31186976132E+02  0.00000000000E+00 0. -1.
<mgrwt>
<rscale>  0 0.15898701E+03</rscale>
<asrwt>0</asrwt>
<pdfrwt beam="1">  1        2 0.69001316E-02 0.16520606E+03</pdfrwt>
<pdfrwt beam="2">  1       -2 0.81000799E-01 0.16520606E+03</pdfrwt>
<totfact> 0.13943962E+03</totfact>
</mgrwt>
</event>
<event>
 7    1  0.6387485E-006  0.1399950E+03  0.7546771E-02  0.1225233E+00
          2   -1    0    0  501    0  0.00000000000E+00  0.00000000000E+00  0.10238654087E+03  0.10238654087E+03  0.00000000000E+00 0. -1.
         -2   -1    0    0    0  501 -0.00000000000E+00 -0.00000000000E+00 -0.15305310037E+03  0.15305310037E+03  0.00000000000E+00 0.  1.
         23    2    1    2    0    0 -0.21802980472E+02  0.59147592237E+02 -0.41614545318E+02  0.14604916777E+03  0.12499912559E+03 0.  0.
          5    1    3    3  502    0 -0.70834347061E+02  0.29818863718E+02 -0.43980423055E+02  0.88673767085E+02  0.47000000000E+01 0.  1.
         -5    1    3    3    0  502  0.49031366588E+02  0.29328728518E+02  0.23658777369E+01  0.57375400683E+02  0.47000000000E+01 0.  1.
        -11    1    1    2    0    0  0.54434288920E+01 -0.10473545323E+02  0.37970896938E+02  0.39763237846E+02  0.00000000000E+00 0. -1.
         11    1    1    2    0    0  0.16359551580E+02 -0.48674046914E+02 -0.47022911121E+02  0.69627235628E+02  0.00000000000E+00 0.  1.
<mgrwt>
<rscale>  0 0.13150921E+03</rscale>
<asrwt>0</asrwt>
<pdfrwt beam="1">  1        2 0.15751775E-01 0.13999496E+03</pdfrwt>
<pdfrwt beam="2">  1       -2 0.23546631E-01 0.13999496E+03</pdfrwt>
<totfact> 0.55373449E+03</totfact>
</mgrwt>
</event>
<event>
 7    1  0.6387485E-006  0.1336343E+03  0.7546771E-02  0.1234663E+00
          2   -1    0    0  501    0  0.00000000000E+00  0.00000000000E+00  0.77277478232E+02  0.77277478232E+02  0.00000000000E+00 0. -1.
         -2   -1    0    0    0  501 -0.00000000000E+00 -0.00000000000E+00 -0.18565847551E+03  0.18565847551E+03  0.00000000000E+00 0.  1.
         23    2    1    2    0    0  0.43460005859E+01 -0.47046369873E+02 -0.41239579858E+02  0.13985291104E+03  0.12500354052E+03 0.  0.
          5    1    3    3  502    0 -0.55702646895E+02 -0.29589663742E+02  0.26575842146E+01  0.63304706187E+02  0.47000000000E+01 0. -1.
         -5    1    3    3    0  502  0.60048647481E+02 -0.17456706131E+02 -0.43897164072E+02  0.76548204857E+02  0.47000000000E+01 0. -1.
        -11    1    1    2    0    0  0.10546416415E+02  0.72693989799E+02 -0.49456731824E+02  0.88552873329E+02  0.00000000000E+00 0.  1.
         11    1    1    2    0    0 -0.14892417001E+02 -0.25647619926E+02 -0.17684685595E+02  0.34530169369E+02  0.00000000000E+00 0. -1.
<mgrwt>
<rscale>  0 0.12526037E+03</rscale>
<asrwt>0</asrwt>
<pdfrwt beam="1">  1        2 0.11888843E-01 0.13363433E+03</pdfrwt>
<pdfrwt beam="2">  1       -2 0.28562842E-01 0.13363433E+03</pdfrwt>
<totfact> 0.54857466E+03</totfact>
</mgrwt>
</event>
<event>
 7    1  0.6387485E-006  0.1880143E+03  0.7546771E-02  0.1165220E+00
          1   -1    0    0  501    0  0.00000000000E+00  0.00000000000E+00  0.19536588036E+03  0.19536588036E+03  0.00000000000E+00 0. -1.
         -1   -1    0    0    0  501 -0.00000000000E+00 -0.00000000000E+00 -0.17448457323E+03  0.17448457323E+03  0.00000000000E+00 0.  1.
         23    2    1    2    0    0 -0.70451221594E+02 -0.12149636677E+03 -0.38696925078E+02  0.19195528648E+03  0.12499855293E+03 0.  0.
          5    1    3    3  502    0 -0.76354286441E+01 -0.11372403741E+02  0.40082742510E+02  0.42618629548E+02  0.47000000000E+01 0.  1.
         -5    1    3    3    0  502 -0.62815792949E+02 -0.11012396303E+03 -0.78779667588E+02  0.14933665693E+03  0.47000000000E+01 0.  1.
        -11    1    1    2    0    0  0.18031545795E+02  0.24633040592E+01  0.43108207432E+02  0.46792329058E+02  0.00000000000E+00 0. -1.
         11    1    1    2    0    0  0.52419675799E+02  0.11903306271E+03  0.16470024773E+02  0.13110283805E+03  0.00000000000E+00 0.  1.
<mgrwt>
<rscale>  0 0.18269468E+03</rscale>
<asrwt>0</asrwt>
<pdfrwt beam="1">  1        1 0.30056290E-01 0.18801431E+03</pdfrwt>
<pdfrwt beam="2">  1       -1 0.26843780E-01 0.18801431E+03</pdfrwt>
<totfact> 0.18440161E+03</totfact>
</mgrwt>
</event>
<event>
 7    1  0.6387485E-006  0.1303605E+03  0.7546771E-02  0.1268459E+00
         -1   -1    0    0    0  501 -0.00000000000E+00  0.00000000000E+00  0.13719461920E+03  0.13719461920E+03  0.00000000000E+00 0.  1.
          1   -1    0    0  501    0  0.00000000000E+00 -0.00000000000E+00 -0.63781452047E+02  0.63781452047E+02  0.00000000000E+00 0. -1.
         23    2    1    2    0    0  0.19125750727E+02 -0.31661526396E+02  0.53632841348E+02  0.14096218756E+03  0.12500244020E+03 0.  0.
          5    1    3    3  502    0  0.71792932737E+02 -0.27569000828E+02  0.36267883487E+02  0.85157057079E+02  0.47000000000E+01 0. -1.
         -5    1    3    3    0  502 -0.52667182011E+02 -0.40925255685E+01  0.17364957861E+02  0.55805130481E+02  0.47000000000E+01 0. -1.
        -11    1    1    2    0    0 -0.10141780347E+00  0.20847329816E+02 -0.99483361220E+01  0.23099585227E+02  0.00000000000E+00 0. -1.
         11    1    1    2    0    0 -0.19024332923E+02  0.10814196580E+02  0.29728661930E+02  0.36914298462E+02  0.00000000000E+00 0.  1.
<mgrwt>
<rscale>  0 0.10584722E+03</rscale>
<asrwt>0</asrwt>
<pdfrwt beam="2">  1        1 0.98125311E-02 0.13036049E+03</pdfrwt>
<pdfrwt beam="1">  1       -1 0.21106864E-01 0.13036049E+03</pdfrwt>
<totfact> 0.11339534E+04</totfact>
</mgrwt>
</event>
<event>
 6    1  0.6387485E-006  0.2163140E+03  0.7546771E-02  0.1159378E+00
          2   -1    0    0  501    0  0.00000000000E+00  0.00000000000E+00  0.44580079415E+03  0.44580079415E+03  0.00000000000E+00 0. -1.
         -2   -1    0    0    0  501 -0.00000000000E+00 -0.00000000000E+00 -0.89637265686E+02  0.89637265686E+02  0.00000000000E+00 0.  1.
          5    1    1    2  502    0  0.23748374355E+02  0.28910425181E+02  0.14098332463E+03  0.14593897969E+03  0.47000000000E+01 0. -1.
         -5    1    1    2    0  502  0.36879156216E+01  0.54956014555E+02 -0.63172528472E+02  0.83944163650E+02  0.47000000000E+01 0.  1.
        -11    1    1    2    0    0 -0.60453683212E+02 -0.58914031509E+02  0.19530649592E+03  0.21276780365E+03  0.00000000000E+00 0.  1.
         11    1    1    2    0    0  0.33017393236E+02 -0.24952408226E+02  0.83046236385E+02  0.92787112845E+02  0.00000000000E+00 0. -1.
<mgrwt>
<rscale>  0 0.18898700E+03</rscale>
<asrwt>0</asrwt>
<pdfrwt beam="1">  1        2 0.68584736E-01 0.21631398E+03</pdfrwt>
<pdfrwt beam="2">  1       -2 0.13790349E-01 0.21631398E+03</pdfrwt>
<totfact> 0.27591594E+03</totfact>
</mgrwt>
</event>
<event>
 7    1  0.6387485E-006  0.1880085E+03  0.7546771E-02  0.1165309E+00
         -3   -1    0    0    0  501 -0.00000000000E+00  0.00000000000E+00  0.12721790262E+04  0.12721790262E+04  0.00000000000E+00 0. -1.
          3   -1    0    0  501    0  0.00000000000E+00 -0.00000000000E+00 -0.25679434336E+02  0.25679434336E+02  0.00000000000E+00 0.  1.
         23    2    1    2    0    0  0.56861790914E+02 -0.12840620952E+03  0.77769708523E+03  0.80009995688E+03  0.12500306680E+03 0.  0.
          5    1    3    3  502    0  0.69586446645E+02 -0.13581528142E+03  0.76503001315E+03  0.78011606524E+03  0.47000000000E+01 0. -1.
         -5    1    3    3    0  502 -0.12724655732E+02  0.74090719029E+01  0.12667072083E+02  0.19983891641E+02  0.47000000000E+01 0. -1.
        -11    1    1    2    0    0 -0.22577155973E+02  0.11999941416E+03  0.42090263082E+03  0.43825633138E+03  0.00000000000E+00 0. -1.
         11    1    1    2    0    0 -0.34284634941E+02  0.84067953579E+01  0.47899875790E+02  0.59502172245E+02  0.00000000000E+00 0.  1.
<mgrwt>
<rscale>  0 0.18260137E+03</rscale>
<asrwt>0</asrwt>
<pdfrwt beam="2">  1        3 0.39506832E-02 0.18800847E+03</pdfrwt>
<pdfrwt beam="1">  1       -3 0.19571980E+00 0.18800847E+03</pdfrwt>
<totfact> 0.13684788E+02</totfact>
</mgrwt>
</event>
<event>
 7    1  0.6387485E-006  0.1399399E+03  0.7546771E-02  0.1223974E+00
          2   -1    0    0  501    0  0.00000000000E+00  0.00000000000E+00  0.41111373336E+03  0.41111373336E+03  0.00000000000E+00 0.  1.
         -2   -1    0    0    0  501 -0.00000000000E+00 -0.00000000000E+00 -0.38839768112E+02  0.38839768112E+02  0.00000000000E+00 0. -1.
         23    2    1    2    0    0 -0.41833217803E+02  0.46986660827E+02  0.22371661661E+03  0.26387933448E+03  0.12500165683E+03 0.  0.
          5    1    3    3  502    0 -0.97522490314E+01 -0.28245709468E+02  0.54381921830E+01  0.30734189411E+02  0.47000000000E+01 0. -1.
         -5    1    3    3    0  502 -0.32080968772E+02  0.75232370295E+02  0.21827842443E+03  0.23314514507E+03  0.47000000000E+01 0. -1.
        -11    1    1    2    0    0  0.30621034839E+02 -0.66534875849E+02  0.14606684523E+03  0.16340153228E+03  0.00000000000E+00 0.  1.
         11    1    1    2    0    0  0.11212182964E+02  0.19548215022E+02  0.24905034109E+01  0.22672634708E+02  0.00000000000E+00 0. -1.
<mgrwt>
<rscale>  0 0.13237479E+03</rscale>
<asrwt>0</asrwt>
<pdfrwt beam="1">  1        2 0.63248264E-01 0.13993991E+03</pdfrwt>
<pdfrwt beam="2">  1       -2 0.59753492E-02 0.13993991E+03</pdfrwt>
<totfact> 0.10962617E+04</totfact>
</mgrwt>
</event>
<event>
 6    1  0.6387485E-006  0.3632021E+03  0.7546771E-02  0.1089314E+00
          1   -1    0    0  501    0  0.00000000000E+00  0.00000000000E+00  0.10127039326E+04  0.10127039326E+04  0.00000000000E+00 0. -1.
         -1   -1    0    0    0  501 -0.00000000000E+00 -0.00000000000E+00 -0.11067634764E+03  0.11067634764E+03  0.00000000000E+00 0.  1.
          5    1    1    2  502    0 -0.21881930233E+02  0.67502003898E+02  0.28898470543E+03  0.29760643369E+03  0.47000000000E+01 0. -1.
         -5    1    1    2    0  502  0.10475204953E+03  0.18863602225E+02 -0.69083758252E+02  0.12697827777E+03  0.47000000000E+01 0.  1.
        -11    1    1    2    0    0  0.53585385322E+01 -0.44379547218E+02  0.11631295298E+03  0.12460722763E+03  0.00000000000E+00 0.  1.
         11    1    1    2    0    0 -0.88228657833E+02 -0.41986058904E+02  0.56581368477E+03  0.57418834112E+03  0.00000000000E+00 0. -1.
<mgrwt>
<rscale>  0 0.29199194E+03</rscale>
<asrwt>0</asrwt>
<pdfrwt beam="1">  1        1 0.15580060E+00 0.36320208E+03</pdfrwt>
<pdfrwt beam="2">  1       -1 0.17027131E-01 0.36320208E+03</pdfrwt>
<totfact> 0.40865650E+02</totfact>
</mgrwt>
</event>
<event>
 7    1  0.6387485E-006  0.1263795E+03  0.7546771E-02  0.1247433E+00
         -2   -1    0    0    0  501 -0.00000000000E+00  0.00000000000E+00  0.18913916144E+03  0.18913916144E+03  0.00000000000E+00 0.  1.
          2   -1    0    0  501    0  0.00000000000E+00 -0.00000000000E+00 -0.75529120925E+02  0.75529120925E+02  0.00000000000E+00 0. -1.
         23    2    1    2    0    0  0.42967749147E+01  0.18102374510E+02  0.11448204987E+03  0.17052249439E+03  0.12500249243E+03 0.  0.
          5    1    3    3  502    0  0.35925851929E+02  0.41045109200E+02  0.11891991072E+03  0.13091754272E+03  0.47000000000E+01 0. -1.
         -5    1    3    3    0  502 -0.31629077015E+02 -0.22942734690E+02 -0.44378608502E+01  0.39604951670E+02  0.47000000000E+01 0. -1.
        -11    1    1    2    0    0  0.36103242443E+02  0.12887930297E+02 -0.15220225103E+02  0.41245582969E+02  0.00000000000E+00 0. -1.
         11    1    1    2    0    0 -0.40400017358E+02 -0.30990304807E+02  0.14348215749E+02  0.52900205007E+02  0.00000000000E+00 0.  1.
<mgrwt>
<rscale>  0 0.11740946E+03</rscale>
<asrwt>0</asrwt>
<pdfrwt beam="2">  1        2 0.11619865E-01 0.12637951E+03</pdfrwt>
<pdfrwt beam="1">  1       -2 0.29098333E-01 0.12637951E+03</pdfrwt>
<totfact> 0.54329358E+03</totfact>
</mgrwt>
</event>
<event>
 7    1  0.6387485E-006  0.1780828E+03  0.7546771E-02  0.1175519E+00
         -2   -1    0    0    0  501 -0.00000000000E+00  0.00000000000E+00  0.80204319941E+02  0.80204319941E+02  0.00000000000E+00 0.  1.
          2   -1    0    0  501    0  0.00000000000E+00 -0.00000000000E+00 -0.34833129563E+03  0.34833129563E+03  0.00000000000E+00 0. -1.
         23    2    1    2    0    0  0.16491830628E+02  0.12576379112E+03 -0.15240728969E+03  0.23439597612E+03  0.12499992014E+03 0.  0.
          5    1    3    3  502    0 -0.33817130087E+01  0.14781494965E+03 -0.12955165153E+03  0.19663777800E+03  0.47000000000E+01 0. -1.
         -5    1    3    3    0  502  0.19873543637E+02 -0.22051158533E+02 -0.22855638158E+02  0.37758198116E+02  0.47000000000E+01 0. -1.
        -11    1    1    2    0    0  0.16353958385E+02  0.79553272591E+01 -0.13220790874E+02  0.22483960906E+02  0.00000000000E+00 0. -1.
         11    1    1    2    0    0 -0.32845789014E+02 -0.13371911838E+03 -0.10249889512E+03  0.17165567854E+03  0.00000000000E+00 0.  1.
<mgrwt>
<rscale>  0 0.17225245E+03</rscale>
<asrwt>0</asrwt>
<pdfrwt beam="2">  1        2 0.53589429E-01 0.17808282E+03</pdfrwt>
<pdfrwt beam="1">  1       -2 0.12339126E-01 0.17808282E+03</pdfrwt>
<totfact> 0.42849536E+03</totfact>
</mgrwt>
</event>
<event>
 7    1  0.6387485E-006  0.1283553E+03  0.7546771E-02  0.1245447E+00
         -1   -1    0    0    0  501 -0.00000000000E+00  0.00000000000E+00  0.31242150922E+02  0.31242150922E+02  0.00000000000E+00 0.  1.
          1   -1    0    0  501    0  0.00000000000E+00 -0.00000000000E+00 -0.42400363153E+03  0.42400363153E+03  0.00000000000E+00 0. -1.
         23    2    1    2    0    0  0.28718729616E+02  0.35618797180E+01 -0.16509737603E+03  0.20912254204E+03  0.12505055618E+03 0.  0.
          5    1    3    3  502    0  0.66877200801E+02  0.32268688636E+02 -0.12959373705E+03  0.14943378110E+03  0.47000000000E+01 0.  1.
         -5    1    3    3    0  502 -0.38158471185E+02 -0.28706808918E+02 -0.35503638981E+02  0.59688760938E+02  0.47000000000E+01 0.  1.
        -11    1    1    2    0    0 -0.46978469978E+02 -0.16962743323E+00 -0.22169126685E+03  0.22661426084E+03  0.00000000000E+00 0. -1.
         11    1    1    2    0    0  0.18259740362E+02 -0.33922522848E+01 -0.59728377322E+01  0.19508979579E+02  0.00000000000E+00 0.  1.
<mgrwt>
<rscale>  0 0.11858638E+03</rscale>
<asrwt>0</asrwt>
<pdfrwt beam="2">  1        1 0.65231331E-01 0.12835534E+03</pdfrwt>
<pdfrwt beam="1">  1       -1 0.48064846E-02 0.12835534E+03</pdfrwt>
<totfact> 0.99245617E+03</totfact>
</mgrwt>
</event>
<event>
 7    1  0.6387485E-006  0.1947276E+03  0.7546771E-02  0.1158628E+00
          2   -1    0    0  501    0  0.00000000000E+00  0.00000000000E+00  0.29885109490E+03  0.29885109490E+03  0.00000000000E+00 0. -1.
         -2   -1    0    0    0  501 -0.00000000000E+00 -0.00000000000E+00 -0.12295650968E+03  0.12295650968E+03  0.00000000000E+00 0.  1.
         23    2    1    2    0    0  0.26188451134E+02  0.14708343904E+03  0.38067002012E+02  0.19841357818E+03  0.12489787169E+03 0.  0.
          5    1    3    3  502    0  0.17759963928E+02  0.84507969129E+02  0.83711498026E+02  0.12036078293E+03  0.47000000000E+01 0. -1.
         -5    1    3    3    0  502  0.84284872061E+01  0.62575469908E+02 -0.45644496014E+02  0.78052795255E+02  0.47000000000E+01 0. -1.
        -11    1    1    2    0    0  0.28195274238E+02 -0.73010719600E+02  0.35741231093E+02  0.86040538503E+02  0.00000000000E+00 0.  1.
         11    1    1    2    0    0 -0.54383725372E+02 -0.74072719437E+02  0.10208635211E+03  0.13735348789E+03  0.00000000000E+00 0. -1.
<mgrwt>
<rscale>  0 0.18981492E+03</rscale>
<asrwt>0</asrwt>
<pdfrwt beam="1">  1        2 0.45977091E-01 0.19472763E+03</pdfrwt>
<pdfrwt beam="2">  1       -2 0.18916386E-01 0.19472763E+03</pdfrwt>
<totfact> 0.25040854E+03</totfact>
</mgrwt>
</event>
<event>
 6    1  0.6387485E-006  0.2334814E+03  0.7546771E-02  0.1145785E+00
          2   -1    0    0  501    0  0.00000000000E+00  0.00000000000E+00  0.44866836166E+03  0.44866836166E+03  0.00000000000E+00 0. -1.
         -2   -1    0    0    0  501 -0.00000000000E+00 -0.00000000000E+00 -0.78291026448E+02  0.78291026448E+02  0.00000000000E+00 0.  1.
          5    1    1    2  502    0  0.78099771117E+01 -0.51538344074E+02  0.14421676109E+03  0.15342020998E+03  0.47000000000E+01 0. -1.
         -5    1    1    2    0  502 -0.96899990707E+02  0.10513285864E+03  0.54183608542E+02  0.15297215302E+03  0.47000000000E+01 0.  1.
        -11    1    1    2    0    0  0.73593144934E+02  0.79565145302E+01  0.10288354048E+03  0.12674494075E+03  0.00000000000E+00 0.  1.
         11    1    1    2    0    0  0.15496868661E+02 -0.61551029093E+02  0.69093425103E+02  0.93822084357E+02  0.00000000000E+00 0. -1.
<mgrwt>
<rscale>  0 0.20475934E+03</rscale>
<asrwt>0</asrwt>
<pdfrwt beam="1">  1        2 0.69025900E-01 0.23348142E+03</pdfrwt>
<pdfrwt beam="2">  1       -2 0.12044774E-01 0.23348142E+03</pdfrwt>
<totfact> 0.34230740E+03</totfact>
</mgrwt>
</event>
<event>
 7    1  0.6387485E-006  0.1391502E+03  0.7546771E-02  0.1225902E+00
         -1   -1    0    0    0  501 -0.00000000000E+00  0.00000000000E+00  0.85923648873E+02  0.85923648873E+02  0.00000000000E+00 0.  1.
          1   -1    0    0  501    0  0.00000000000E+00 -0.00000000000E+00 -0.18007345039E+03  0.18007345039E+03  0.00000000000E+00 0. -1.
         23    2    1    2    0    0  0.58344392201E+02 -0.18268228084E+02 -0.48119660214E+02  0.14723544522E+03  0.12499991348E+03 0.  0.
          5    1    3    3  502    0  0.57037825834E+02 -0.68043006424E+02 -0.34796468907E+02  0.95478000333E+02  0.47000000000E+01 0.  1.
         -5    1    3    3    0  502  0.13065663669E+01  0.49774778340E+02 -0.13323191306E+02  0.51757444885E+02  0.47000000000E+01 0.  1.
        -11    1    1    2    0    0 -0.20577813510E+02 -0.16814822775E+02  0.21235157288E+02  0.34016416314E+02  0.00000000000E+00 0.  1.
         11    1    1    2    0    0 -0.37766578692E+02  0.35083050859E+02 -0.67265298595E+02  0.84745237735E+02  0.00000000000E+00 0. -1.
<mgrwt>
<rscale>  0 0.13105244E+03</rscale>
<asrwt>0</asrwt>
<pdfrwt beam="2">  1        1 0.27703608E-01 0.13915019E+03</pdfrwt>
<pdfrwt beam="1">  1       -1 0.13219023E-01 0.13915019E+03</pdfrwt>
<totfact> 0.62816333E+03</totfact>
</mgrwt>
</event>
<event>
 7    1  0.6387485E-006  0.1651363E+03  0.7546771E-02  0.1189996E+00
         -1   -1    0    0    0  501 -0.00000000000E+00  0.00000000000E+00  0.80385334278E+02  0.80385334278E+02  0.00000000000E+00 0.  1.
          1   -1    0    0  501    0  0.00000000000E+00 -0.00000000000E+00 -0.30073511949E+03  0.30073511949E+03  0.00000000000E+00 0. -1.
         23    2    1    2    0    0 -0.81152278485E+02  0.71139652811E+02 -0.86538792439E+02  0.18643751637E+03  0.12499376947E+03 0.  0.
          5    1    3    3  502    0  0.24244216003E+02  0.37278282840E+02 -0.55690962477E+02  0.71421465140E+02  0.47000000000E+01 0. -1.
         -5    1    3    3    0  502 -0.10539649449E+03  0.33861369971E+02 -0.30847829962E+02  0.11501605123E+03  0.47000000000E+01 0. -1.
        -11    1    1    2    0    0  0.20801402531E+02 -0.42322717796E+02 -0.11637892567E+03  0.12557055837E+03  0.00000000000E+00 0.  1.
         11    1    1    2    0    0  0.60350875954E+02 -0.28816935016E+02 -0.17432067105E+02  0.69112379033E+02  0.00000000000E+00 0. -1.
<mgrwt>
<rscale>  0 0.15885464E+03</rscale>
<asrwt>0</asrwt>
<pdfrwt beam="2">  1        1 0.46266942E-01 0.16513626E+03</pdfrwt>
<pdfrwt beam="1">  1       -1 0.12366974E-01 0.16513626E+03</pdfrwt>
<totfact> 0.37172674E+03</totfact>
</mgrwt>
</event>
<event>
 7    1  0.6387485E-006  0.1729551E+03  0.7546771E-02  0.1181135E+00
          3   -1    0    0  501    0  0.00000000000E+00  0.00000000000E+00  0.67366017353E+02  0.67366017353E+02  0.00000000000E+00 0. -1.
         -3   -1    0    0    0  501 -0.00000000000E+00 -0.00000000000E+00 -0.56897360427E+03  0.56897360427E+03  0.00000000000E+00 0.  1.
         23    2    1    2    0    0 -0.11333138755E+03  0.37990180459E+02 -0.44264743302E+03  0.47523699499E+03  0.12500477680E+03 0.  0.
          5    1    3    3  502    0  0.13655904202E+02 -0.25240836127E+02 -0.51645193370E+02  0.59269718459E+02  0.47000000000E+01 0. -1.
         -5    1    3    3    0  502 -0.12698729176E+03  0.63231016587E+02 -0.39100223965E+03  0.41596727653E+03  0.47000000000E+01 0. -1.
        -11    1    1    2    0    0  0.24729379630E+02 -0.31466413961E+02  0.17698217524E+02  0.43759619834E+02  0.00000000000E+00 0.  1.
         11    1    1    2    0    0  0.88602007925E+02 -0.65237664977E+01 -0.76658371416E+02  0.11734300680E+03  0.00000000000E+00 0. -1.
<mgrwt>
<rscale>  0 0.16688568E+03</rscale>
<asrwt>0</asrwt>
<pdfrwt beam="1">  1        3 0.10364003E-01 0.17295506E+03</pdfrwt>
<pdfrwt beam="2">  1       -3 0.87534396E-01 0.17295506E+03</pdfrwt>
<totfact> 0.20423678E+02</totfact>
</mgrwt>
</event>
<event>
 6    1  0.6387485E-006  0.2000595E+03  0.7546771E-02  0.1159985E+00
         -1   -1    0    0    0  501 -0.00000000000E+00  0.00000000000E+00  0.37942663852E+02  0.37942663852E+02  0.00000000000E+00 0.  1.
          1   -1    0    0  501    0  0.00000000000E+00 -0.00000000000E+00 -0.84165291639E+03  0.84165291639E+03  0.00000000000E+00 0. -1.
          5    1    1    2  502    0  0.10506745323E+03 -0.26651929822E+02 -0.30891719113E+03  0.32741627337E+03  0.47000000000E+01 0. -1.
         -5    1    1    2    0  502 -0.34042356234E+02 -0.80363080980E+02 -0.15817947885E+03  0.18072062508E+03  0.47000000000E+01 0.  1.
        -11    1    1    2    0    0 -0.11829662526E+02 -0.13552857934E+02 -0.77974616965E+02  0.80022882755E+02  0.00000000000E+00 0. -1.
         11    1    1    2    0    0 -0.59195434469E+02  0.12056786874E+03 -0.25863896560E+03  0.29143579904E+03  0.00000000000E+00 0.  1.
<mgrwt>
<rscale>  0 0.18832016E+03</rscale>
<asrwt>0</asrwt>
<pdfrwt beam="2">  1        1 0.12948506E+00 0.20005951E+03</pdfrwt>
<pdfrwt beam="1">  1       -1 0.58373329E-02 0.20005951E+03</pdfrwt>
<totfact> 0.29405465E+03</totfact>
</mgrwt>
</event>
<event>
 7    1  0.6387485E-006  0.1775125E+03  0.7546771E-02  0.1175850E+00
         -2   -1    0    0    0  501 -0.00000000000E+00  0.00000000000E+00  0.71129047604E+02  0.71129047604E+02  0.00000000000E+00 0.  1.
          2   -1    0    0  501    0  0.00000000000E+00 -0.00000000000E+00 -0.43033216605E+03  0.43033216605E+03  0.00000000000E+00 0. -1.
         23    2    1    2    0    0  0.37451080615E+02  0.12034648125E+03 -0.11480167314E+03  0.21140037227E+03  0.12499933701E+03 0.  0.
          5    1    3    3  502    0  0.54362882081E+02  0.12142446027E+03 -0.13152197842E+03  0.18713455936E+03  0.47000000000E+01 0. -1.
         -5    1    3    3    0  502 -0.16911801466E+02 -0.10779790163E+01  0.16720305280E+02  0.24265812911E+02  0.47000000000E+01 0. -1.
        -11    1    1    2    0    0 -0.34056090786E+02 -0.12183832896E+02 -0.11923272755E+03  0.12459817986E+03  0.00000000000E+00 0. -1.
         11    1    1    2    0    0 -0.33949898284E+01 -0.10816264836E+03 -0.12516871775E+03  0.16546266152E+03  0.00000000000E+00 0.  1.
<mgrwt>
<rscale>  0 0.17193039E+03</rscale>
<asrwt>0</asrwt>
<pdfrwt beam="2">  1        2 0.66204948E-01 0.17751252E+03</pdfrwt>
<pdfrwt beam="1">  1       -2 0.10942930E-01 0.17751252E+03</pdfrwt>
<totfact> 0.41353323E+03</totfact>
</mgrwt>
</event>
<event>
 7    1  0.6387485E-006  0.1311990E+03  0.7546771E-02  0.1241172E+00
          4   -1    0    0  501    0  0.00000000000E+00  0.00000000000E+00  0.11281452723E+03  0.11281452723E+03  0.00000000000E+00 0. -1.
         -4   -1    0    0    0  501 -0.00000000000E+00 -0.00000000000E+00 -0.12273925183E+03  0.12273925183E+03  0.00000000000E+00 0.  1.
         23    2    1    2    0    0  0.38284931842E+02  0.11050029102E+02 -0.37011254401E+02  0.13631955761E+03  0.12500139873E+03 0.  0.
          5    1    3    3  502    0  0.50555192750E+01 -0.55880246404E+02 -0.14673990289E+02  0.58185704467E+02  0.47000000000E+01 0. -1.
         -5    1    3    3    0  502  0.33229412567E+02  0.66930275506E+02 -0.22337264112E+02  0.78133853142E+02  0.47000000000E+01 0. -1.
        -11    1    1    2    0    0 -0.15790972849E+02 -0.10353651990E+02 -0.31359235064E+02  0.36605389724E+02  0.00000000000E+00 0.  1.
         11    1    1    2    0    0 -0.22493958993E+02 -0.69637711173E+00  0.58445764864E+02  0.62628831721E+02  0.00000000000E+00 0. -1.
<mgrwt>
<rscale>  0 0.12117419E+03</rscale>
<asrwt>0</asrwt>
<pdfrwt beam="1">  1        4 0.17356081E-01 0.13119904E+03</pdfrwt>
<pdfrwt beam="2">  1       -4 0.18882962E-01 0.13119904E+03</pdfrwt>
<totfact> 0.11926360E+03</totfact>
</mgrwt>
</event>
<event>
 7    1  0.6387485E-006  0.1277149E+03  0.7546771E-02  0.1244996E+00
          1   -1    0    0  501    0  0.00000000000E+00  0.00000000000E+00  0.17755094219E+03  0.17755094219E+03  0.00000000000E+00 0. -1.
         -1   -1    0    0    0  501 -0.00000000000E+00 -0.00000000000E+00 -0.76333183416E+02  0.76333183416E+02  0.00000000000E+00 0.  1.
         23    2    1    2    0    0  0.25149521104E+02 -0.73632382865E+01  0.22046625257E+02  0.12960378167E+03  0.12499748337E+03 0.  0.
          5    1    3    3  502    0 -0.20297247676E+02 -0.14488064538E+02  0.62946966472E+02  0.67869675595E+02  0.47000000000E+01 0. -1.
         -5    1    3    3    0  502  0.45446768781E+02  0.71248262519E+01 -0.40900341215E+02  0.61734106078E+02  0.47000000000E+01 0. -1.
        -11    1    1    2    0    0 -0.61222313602E+01 -0.22253756368E+02 -0.12382457385E+02  0.26192301163E+02  0.00000000000E+00 0.  1.
         11    1    1    2    0    0 -0.19027289744E+02  0.29616994654E+02  0.91553590905E+02  0.98088042773E+02  0.00000000000E+00 0. -1.
<mgrwt>
<rscale>  0 0.11885620E+03</rscale>
<asrwt>0</asrwt>
<pdfrwt beam="1">  1        1 0.27315529E-01 0.12771486E+03</pdfrwt>
<pdfrwt beam="2">  1       -1 0.11743567E-01 0.12771486E+03</pdfrwt>
<totfact> 0.76310492E+03</totfact>
</mgrwt>
</event>
<event>
 7    1  0.6387485E-006  0.1305678E+03  0.7546771E-02  0.1240251E+00
          4   -1    0    0  501    0  0.00000000000E+00  0.00000000000E+00  0.10833164939E+03  0.10833164939E+03  0.00000000000E+00 0. -1.
         -4   -1    0    0    0  501 -0.00000000000E+00 -0.00000000000E+00 -0.12134575539E+03  0.12134575539E+03  0.00000000000E+00 0.  1.
         23    2    1    2    0    0 -0.25984183626E+02  0.27332612881E+02 -0.49037741410E+01  0.13065983392E+03  0.12500278267E+03 0.  0.
          5    1    3    3  502    0  0.29154993195E+02 -0.35918576954E+02 -0.51377827507E+00  0.46502814611E+02  0.47000000000E+01 0.  1.
         -5    1    3    3    0  502 -0.55139176821E+02  0.63251189835E+02 -0.43899958660E+01  0.84157019314E+02  0.47000000000E+01 0.  1.
        -11    1    1    2    0    0 -0.13963951012E+02  0.62309239989E+01 -0.36531560874E+02  0.39602667607E+02  0.00000000000E+00 0.  1.
         11    1    1    2    0    0  0.39948134639E+02 -0.33563536880E+02  0.28421229015E+02  0.59414903246E+02  0.00000000000E+00 0. -1.
<mgrwt>
<rscale>  0 0.12174178E+03</rscale>
<asrwt>0</asrwt>
<pdfrwt beam="1">  1        4 0.16666408E-01 0.13056778E+03</pdfrwt>
<pdfrwt beam="2">  1       -4 0.18668578E-01 0.13056778E+03</pdfrwt>
<totfact> 0.13061789E+03</totfact>
</mgrwt>
</event>
<event>
 7    1  0.1029179E-005  0.4108639E+03  0.7546771E-02  0.1040841E+00
          1   -1    0    0  501    0  0.00000000000E+00  0.00000000000E+00  0.24645325344E+03  0.24645325344E+03  0.00000000000E+00 0. -1.
         -1   -1    0    0    0  501 -0.00000000000E+00 -0.00000000000E+00 -0.67819414240E+03  0.67819414240E+03  0.00000000000E+00 0.  1.
         23    2    1    2    0    0  0.10205958245E+03 -0.37784571394E+03 -0.16767158419E+03  0.44375997724E+03  0.12500246134E+03 0.  0.
          5    1    3    3  502    0  0.11865437155E+03 -0.20339009308E+03 -0.93046163742E+02  0.25323125486E+03  0.47000000000E+01 0. -1.
         -5    1    3    3    0  502 -0.16594789096E+02 -0.17445562086E+03 -0.74625420449E+02  0.19052872238E+03  0.47000000000E+01 0. -1.
        -11    1    1    2    0    0  0.49012632899E+01  0.53028119857E+02 -0.69092232467E+02  0.87233826379E+02  0.00000000000E+00 0.  1.
         11    1    1    2    0    0 -0.10696084574E+03  0.32481759408E+03 -0.19497707230E+03  0.39365359223E+03  0.00000000000E+00 0. -1.
<mgrwt>
<rscale>  0 0.40860326E+03</rscale>
<asrwt>0</asrwt>
<pdfrwt beam="1">  1        1 0.37915885E-01 0.41086392E+03</pdfrwt>
<pdfrwt beam="2">  1       -1 0.10433756E+00 0.41086392E+03</pdfrwt>
<totfact> 0.10211385E+02</totfact>
</mgrwt>
</event>
<event>
 7    1  0.6387485E-006  0.1306273E+03  0.7546771E-02  0.1235456E+00
         -2   -1    0    0    0  501 -0.00000000000E+00  0.00000000000E+00  0.39661178245E+03  0.39661178245E+03  0.00000000000E+00 0.  1.
          2   -1    0    0  501    0  0.00000000000E+00 -0.00000000000E+00 -0.36807877092E+02  0.36807877092E+02  0.00000000000E+00 0. -1.
         23    2    1    2    0    0 -0.11436517013E+02 -0.36135973701E+02  0.22612782325E+03  0.26114610540E+03  0.12500757339E+03 0.  0.
          5    1    3    3  502    0 -0.64144656237E+02 -0.20663528912E+02  0.78536049632E+02  0.10359304727E+03  0.47000000000E+01 0. -1.
         -5    1    3    3    0  502  0.52708139223E+02 -0.15472444789E+02  0.14759177361E+03  0.15755305813E+03  0.47000000000E+01 0. -1.
        -11    1    1    2    0    0  0.26155227750E+02 -0.52081765783E+01  0.12464746750E+03  0.12746847530E+03  0.00000000000E+00 0.  1.
         11    1    1    2    0    0 -0.14718710737E+02  0.41344150279E+02  0.90286146146E+01  0.44805078840E+02  0.00000000000E+00 0. -1.
<mgrwt>
<rscale>  0 0.12475317E+03</rscale>
<asrwt>0</asrwt>
<pdfrwt beam="2">  1        2 0.56627506E-02 0.13062732E+03</pdfrwt>
<pdfrwt beam="1">  1       -2 0.61017194E-01 0.13062732E+03</pdfrwt>
<totfact> 0.32427309E+03</totfact>
</mgrwt>
</event>
<event>
 7    1  0.6387485E-006  0.1441376E+03  0.7546771E-02  0.1217709E+00
          2   -1    0    0  501    0  0.00000000000E+00  0.00000000000E+00  0.13050137767E+03  0.13050137767E+03  0.00000000000E+00 0. -1.
         -2   -1    0    0    0  501 -0.00000000000E+00 -0.00000000000E+00 -0.14618944250E+03  0.14618944250E+03  0.00000000000E+00 0.  1.
         23    2    1    2    0    0  0.71412346118E+02  0.71570241425E+01 -0.53574891450E+02  0.15377232542E+03  0.12499885159E+03 0.  0.
          5    1    3    3  502    0  0.60224094323E+02  0.40257186993E+02  0.17289265775E+02  0.74622994798E+02  0.47000000000E+01 0.  1.
         -5    1    3    3    0  502  0.11188251795E+02 -0.33100162850E+02 -0.70864157225E+02  0.79149330623E+02  0.47000000000E+01 0.  1.
        -11    1    1    2    0    0 -0.75469699273E+01  0.34783756196E+02  0.29166529806E+02  0.46016876373E+02  0.00000000000E+00 0. -1.
         11    1    1    2    0    0 -0.63865376190E+02 -0.41940780339E+02  0.87202968096E+01  0.76901618369E+02  0.00000000000E+00 0.  1.
<mgrwt>
<rscale>  0 0.13679436E+03</rscale>
<asrwt>0</asrwt>
<pdfrwt beam="1">  1        2 0.20077135E-01 0.14413764E+03</pdfrwt>
<pdfrwt beam="2">  1       -2 0.22490684E-01 0.14413764E+03</pdfrwt>
<totfact> 0.45446938E+03</totfact>
</mgrwt>
</event>
<event>
 7    1  0.6387485E-006  0.2348135E+03  0.7546771E-02  0.1124727E+00
          1   -1    0    0  501    0  0.00000000000E+00  0.00000000000E+00  0.84815912210E+03  0.84815912210E+03  0.00000000000E+00 0. -1.
         -1   -1    0    0    0  501 -0.00000000000E+00 -0.00000000000E+00 -0.85356081516E+02  0.85356081516E+02  0.00000000000E+00 0.  1.
         23    2    1    2    0    0  0.19272168215E+03  0.48671203392E+02  0.14625393466E+03  0.27663618424E+03  0.12500732866E+03 0.  0.
          5    1    3    3  502    0  0.98887246921E+02  0.83913165478E+02  0.10940458763E+03  0.16973968522E+03  0.47000000000E+01 0.  1.
         -5    1    3    3    0  502  0.93834435229E+02 -0.35241962086E+02  0.36849347030E+02  0.10689649902E+03  0.47000000000E+01 0.  1.
        -11    1    1    2    0    0 -0.12900790136E+03 -0.86929407510E+01  0.51205897673E+03  0.52813161379E+03  0.00000000000E+00 0.  1.
         11    1    1    2    0    0 -0.63713780789E+02 -0.39978262641E+02  0.10449012920E+03  0.12874740559E+03  0.00000000000E+00 0. -1.
<mgrwt>
<rscale>  0 0.23273809E+03</rscale>
<asrwt>0</asrwt>
<pdfrwt beam="1">  1        1 0.13048601E+00 0.23481347E+03</pdfrwt>
<pdfrwt beam="2">  1       -1 0.13131705E-01 0.23481347E+03</pdfrwt>
<totfact> 0.83826620E+02</totfact>
</mgrwt>
</event>
<event>
 7    1  0.6387485E-006  0.1543905E+03  0.7546771E-02  0.1203803E+00
         -2   -1    0    0    0  501 -0.00000000000E+00  0.00000000000E+00  0.77486031569E+02  0.77486031569E+02  0.00000000000E+00 0.  1.
          2   -1    0    0  501    0  0.00000000000E+00 -0.00000000000E+00 -0.27512653180E+03  0.27512653180E+03  0.00000000000E+00 0. -1.
         23    2    1    2    0    0 -0.24123021392E+02 -0.87350023035E+02 -0.62742942475E+02  0.16665261764E+03  0.12499788578E+03 0.  0.
          5    1    3    3  502    0 -0.40465098864E+02 -0.76324253053E+02 -0.95041990048E+02  0.12852192693E+03  0.47000000000E+01 0.  1.
         -5    1    3    3    0  502  0.16342077472E+02 -0.11025769982E+02  0.32299047573E+02  0.38130690708E+02  0.47000000000E+01 0.  1.
        -11    1    1    2    0    0  0.44810932040E+02  0.11033660920E+02 -0.69098957320E+02  0.83092883006E+02  0.00000000000E+00 0. -1.
         11    1    1    2    0    0 -0.20687910647E+02  0.76316362115E+02 -0.65798600432E+02  0.10286706272E+03  0.00000000000E+00 0.  1.
<mgrwt>
<rscale>  0 0.14732181E+03</rscale>
<asrwt>0</asrwt>
<pdfrwt beam="2">  1        2 0.42327159E-01 0.15439047E+03</pdfrwt>
<pdfrwt beam="1">  1       -2 0.11920928E-01 0.15439047E+03</pdfrwt>
<totfact> 0.57818147E+03</totfact>
</mgrwt>
</event>
<event>
 7    1  0.6387485E-006  0.1506272E+03  0.7546771E-02  0.1208784E+00
         -1   -1    0    0    0  501 -0.00000000000E+00  0.00000000000E+00  0.53683398835E+02  0.53683398835E+02  0.00000000000E+00 0.  1.
          1   -1    0    0  501    0  0.00000000000E+00 -0.00000000000E+00 -0.46513376690E+03  0.46513376690E+03  0.00000000000E+00 0. -1.
         23    2    1    2    0    0  0.45057995551E+02  0.70936570282E+02 -0.92732406368E+02  0.17688369987E+03  0.12500529637E+03 0.  0.
          5    1    3    3  502    0  0.60630800959E+02  0.88432647407E+02 -0.32579177142E+02  0.11216024222E+03  0.47000000000E+01 0.  1.
         -5    1    3    3    0  502 -0.15572805408E+02 -0.17496077126E+02 -0.60153229226E+02  0.64723457644E+02  0.47000000000E+01 0.  1.
        -11    1    1    2    0    0 -0.67167864376E+02 -0.23026842732E+02 -0.17699702011E+03  0.19070842304E+03  0.00000000000E+00 0. -1.
         11    1    1    2    0    0  0.22109868825E+02 -0.47909727550E+02 -0.14172094159E+03  0.15122504283E+03  0.00000000000E+00 0.  1.
<mgrwt>
<rscale>  0 0.14343208E+03</rscale>
<asrwt>0</asrwt>
<pdfrwt beam="2">  1        1 0.71559038E-01 0.15062717E+03</pdfrwt>
<pdfrwt beam="1">  1       -1 0.82589848E-02 0.15062717E+03</pdfrwt>
<totfact> 0.39640384E+03</totfact>
</mgrwt>
</event>
<event>
 7    1  0.6387485E-006  0.1489077E+03  0.7546771E-02  0.1211796E+00
          2   -1    0    0  501    0  0.00000000000E+00  0.00000000000E+00  0.72892759168E+02  0.72892759168E+02  0.00000000000E+00 0. -1.
         -2   -1    0    0    0  501 -0.00000000000E+00 -0.00000000000E+00 -0.29514205035E+03  0.29514205035E+03  0.00000000000E+00 0.  1.
         23    2    1    2    0    0 -0.51036554218E+02 -0.62811613178E+02 -0.19399482348E+03  0.24455569547E+03  0.12499387197E+03 0.  0.
          5    1    3    3  502    0 -0.82251741778E+02 -0.70345595251E+02 -0.10945712674E+03  0.15400261164E+03  0.47000000000E+01 0.  1.
         -5    1    3    3    0  502  0.31215187560E+02  0.75339820736E+01 -0.84537696746E+02  0.90553083832E+02  0.47000000000E+01 0.  1.
        -11    1    1    2    0    0  0.38017628419E+01  0.46815461023E+02 -0.50417499945E+02  0.68906205034E+02  0.00000000000E+00 0.  1.
         11    1    1    2    0    0  0.47234791377E+02  0.15996152155E+02  0.22163032248E+02  0.54572909017E+02  0.00000000000E+00 0. -1.
<mgrwt>
<rscale>  0 0.14114539E+03</rscale>
<asrwt>0</asrwt>
<pdfrwt beam="1">  1        2 0.11214271E-01 0.14890768E+03</pdfrwt>
<pdfrwt beam="2">  1       -2 0.45406468E-01 0.14890768E+03</pdfrwt>
<totfact> 0.25030724E+03</totfact>
</mgrwt>
</event>
<event>
 7    1  0.7148850E-006  0.1489379E+03  0.7546771E-02  0.1211059E+00
          3   -1    0    0  501    0  0.00000000000E+00  0.00000000000E+00  0.82456247289E+03  0.82456247289E+03  0.00000000000E+00 0. -1.
         -3   -1    0    0    0  501 -0.00000000000E+00 -0.00000000000E+00 -0.24638744024E+02  0.24638744024E+02  0.00000000000E+00 0.  1.
         23    2    1    2    0    0  0.48768714784E+02  0.64645355303E+02  0.30454323847E+03  0.33901193228E+03  0.12500038652E+03 0.  0.
          5    1    3    3  502    0  0.72285573659E+02  0.82932635222E+02  0.27732820289E+03  0.29838908871E+03  0.47000000000E+01 0. -1.
         -5    1    3    3    0  502 -0.23516858875E+02 -0.18287279919E+02  0.27215035573E+02  0.40622843566E+02  0.47000000000E+01 0. -1.
        -11    1    1    2    0    0 -0.22988466173E+02  0.17721071067E+02  0.64211721000E+02  0.70467375788E+02  0.00000000000E+00 0.  1.
         11    1    1    2    0    0 -0.25780248610E+02 -0.82366426370E+02  0.43116876940E+03  0.43972190885E+03  0.00000000000E+00 0. -1.
<mgrwt>
<rscale>  0 0.14170020E+03</rscale>
<asrwt>0</asrwt>
<pdfrwt beam="1">  1        3 0.12685574E+00 0.14893793E+03</pdfrwt>
<pdfrwt beam="2">  1       -3 0.37905766E-02 0.14893793E+03</pdfrwt>
<totfact> 0.43200969E+02</totfact>
</mgrwt>
</event>
<event>
 6    1  0.6387485E-006  0.2804691E+03  0.7546771E-02  0.1136492E+00
          2   -1    0    0  501    0  0.00000000000E+00  0.00000000000E+00  0.73409392794E+02  0.73409392794E+02  0.00000000000E+00 0. -1.
         -2   -1    0    0    0  501 -0.00000000000E+00 -0.00000000000E+00 -0.13096313045E+04  0.13096313045E+04  0.00000000000E+00 0.  1.
          5    1    1    2  502    0 -0.57333739898E+02  0.11017264447E+01 -0.38240160981E+02  0.69085247656E+02  0.47000000000E+01 0. -1.
         -5    1    1    2    0  502  0.15931884147E+02 -0.14810409010E+02 -0.12129807907E+04  0.12131849248E+04  0.47000000000E+01 0.  1.
        -11    1    1    2    0    0  0.58512339579E+02 -0.16240299259E+02 -0.49485739447E+01  0.60925606990E+02  0.00000000000E+00 0. -1.
         11    1    1    2    0    0 -0.17110483829E+02  0.29948981824E+02  0.19947613989E+02  0.39844917781E+02  0.00000000000E+00 0.  1.
<mgrwt>
<rscale>  0 0.21653642E+03</rscale>
<asrwt>0</asrwt>
<pdfrwt beam="1">  1        2 0.11293753E-01 0.28046912E+03</pdfrwt>
<pdfrwt beam="2">  1       -2 0.20148174E+00 0.28046912E+03</pdfrwt>
<totfact> 0.77689798E+01</totfact>
</mgrwt>
</event>
<event>
 7    1  0.6387485E-006  0.1546127E+03  0.7546771E-02  0.1202272E+00
         -1   -1    0    0    0  501 -0.00000000000E+00  0.00000000000E+00  0.11664691473E+04  0.11664691473E+04  0.00000000000E+00 0.  1.
          1   -1    0    0  501    0  0.00000000000E+00 -0.00000000000E+00 -0.17748689872E+02  0.17748689872E+02  0.00000000000E+00 0. -1.
         23    2    1    2    0    0 -0.71450561887E+02  0.56342091901E+02  0.56113325462E+03  0.58204434835E+03  0.12500191955E+03 0.  0.
          5    1    3    3  502    0 -0.63982320599E+02  0.48937839264E+02  0.14650127566E+03  0.16725239380E+03  0.47000000000E+01 0. -1.
         -5    1    3    3    0  502 -0.74682412880E+01  0.74042526366E+01  0.41463197896E+03  0.41479195455E+03  0.47000000000E+01 0. -1.
        -11    1    1    2    0    0 -0.27479200741E+01 -0.57340695124E+02  0.24343154909E+03  0.25010882726E+03  0.00000000000E+00 0.  1.
         11    1    1    2    0    0  0.74198481961E+02  0.99860322328E+00  0.34415565377E+03  0.35206466161E+03  0.00000000000E+00 0. -1.
<mgrwt>
<rscale>  0 0.14854549E+03</rscale>
<asrwt>0</asrwt>
<pdfrwt beam="2">  1        1 0.27305686E-02 0.15461272E+03</pdfrwt>
<pdfrwt beam="1">  1       -1 0.17945673E+00 0.15461272E+03</pdfrwt>
<totfact> 0.88643788E+02</totfact>
</mgrwt>
</event>
<event>
 7    1  0.6387485E-006  0.1408275E+03  0.7546771E-02  0.1228697E+00
          1   -1    0    0  501    0  0.00000000000E+00  0.00000000000E+00  0.36483965144E+02  0.36483965144E+02  0.00000000000E+00 0. -1.
         -1   -1    0    0    0  501 -0.00000000000E+00 -0.00000000000E+00 -0.42559190488E+03  0.42559190488E+03  0.00000000000E+00 0.  1.
         23    2    1    2    0    0 -0.23330453434E+02  0.60252387490E+02 -0.28532931093E+03  0.31819051821E+03  0.12513085130E+03 0.  0.
          5    1    3    3  502    0 -0.25402997417E+02 -0.51396753561E+01 -0.23244704993E+03  0.23393471218E+03  0.47000000000E+01 0.  1.
         -5    1    3    3    0  502  0.20725439836E+01  0.65392062846E+02 -0.52882261001E+02  0.84255806034E+02  0.47000000000E+01 0.  1.
        -11    1    1    2    0    0 -0.21506409583E+02  0.23207343823E+01 -0.14698572193E+02  0.26152619100E+02  0.00000000000E+00 0. -1.
         11    1    1    2    0    0  0.44836863017E+02 -0.62573121872E+02 -0.89080056609E+02  0.11773273271E+03  0.00000000000E+00 0.  1.
<mgrwt>
<rscale>  0 0.12916673E+03</rscale>
<asrwt>0</asrwt>
<pdfrwt beam="1">  1        1 0.56129181E-02 0.14082752E+03</pdfrwt>
<pdfrwt beam="2">  1       -1 0.65475674E-01 0.14082752E+03</pdfrwt>
<totfact> 0.33465344E+03</totfact>
</mgrwt>
</event>
<event>
 7    1  0.6387485E-006  0.1343144E+03  0.7546771E-02  0.1233811E+00
         -1   -1    0    0    0  501 -0.00000000000E+00  0.00000000000E+00  0.13435424735E+03  0.13435424735E+03  0.00000000000E+00 0.  1.
          1   -1    0    0  501    0  0.00000000000E+00 -0.00000000000E+00 -0.11847975607E+03  0.11847975607E+03  0.00000000000E+00 0. -1.
         23    2    1    2    0    0  0.48111283369E+02  0.10025532288E+02  0.50956367058E+02  0.14365555478E+03  0.12500064076E+03 0.  0.
          5    1    3    3  502    0 -0.41023560469E+02  0.16799639448E+02  0.13091180809E+02  0.46461052658E+02  0.47000000000E+01 0.  1.
         -5    1    3    3    0  502  0.89134843838E+02 -0.67741071593E+01  0.37865186249E+02  0.97194502126E+02  0.47000000000E+01 0.  1.
        -11    1    1    2    0    0 -0.55903742052E+02  0.29282751432E+02 -0.18078395145E+02  0.65647058410E+02  0.00000000000E+00 0.  1.
         11    1    1    2    0    0  0.77924586835E+01 -0.39308283720E+02 -0.17003480639E+02  0.43531390228E+02  0.00000000000E+00 0. -1.
<mgrwt>
<rscale>  0 0.12580855E+03</rscale>
<asrwt>0</asrwt>
<pdfrwt beam="2">  1        1 0.18227655E-01 0.13431443E+03</pdfrwt>
<pdfrwt beam="1">  1       -1 0.20669884E-01 0.13431443E+03</pdfrwt>
<totfact> 0.52474485E+03</totfact>
</mgrwt>
</event>
<event>
 7    1  0.6387485E-006  0.1697417E+03  0.7546771E-02  0.1184679E+00
          2   -1    0    0  501    0  0.00000000000E+00  0.00000000000E+00  0.25218160155E+03  0.25218160155E+03  0.00000000000E+00 0. -1.
         -2   -1    0    0    0  501 -0.00000000000E+00 -0.00000000000E+00 -0.15906417740E+03  0.15906417740E+03  0.00000000000E+00 0.  1.
         23    2    1    2    0    0 -0.35646121315E+02  0.10916576603E+03 -0.77289928612E+02  0.18650998727E+03  0.12499772737E+03 0.  0.
          5    1    3    3  502    0  0.20097832451E+02 -0.14690773947E+02 -0.36846633233E+02  0.44715837116E+02  0.47000000000E+01 0.  1.
         -5    1    3    3    0  502 -0.55743953766E+02  0.12385653997E+03 -0.40443295379E+02  0.14179415015E+03  0.47000000000E+01 0.  1.
        -11    1    1    2    0    0  0.31310491110E+02 -0.47484901276E+01  0.98551239896E+01  0.33166526512E+02  0.00000000000E+00 0.  1.
         11    1    1    2    0    0  0.43356302051E+01 -0.10441727590E+03  0.16055222877E+03  0.19156926517E+03  0.00000000000E+00 0. -1.
<mgrwt>
<rscale>  0 0.16361161E+03</rscale>
<asrwt>0</asrwt>
<pdfrwt beam="1">  1        2 0.38797170E-01 0.16974169E+03</pdfrwt>
<pdfrwt beam="2">  1       -2 0.24471412E-01 0.16974169E+03</pdfrwt>
<totfact> 0.19195071E+03</totfact>
</mgrwt>
</event>
<event>
 7    1  0.6387485E-006  0.1956908E+03  0.7546771E-02  0.1157856E+00
          2   -1    0    0  501    0  0.00000000000E+00  0.00000000000E+00  0.45239771379E+02  0.45239771379E+02  0.00000000000E+00 0. -1.
         -2   -1    0    0    0  501 -0.00000000000E+00 -0.00000000000E+00 -0.93551379276E+03  0.93551379276E+03  0.00000000000E+00 0.  1.
         23    2    1    2    0    0 -0.11988720122E+03  0.91091041351E+02 -0.67315787688E+03  0.70102524870E+03  0.12499741310E+03 0.  0.
          5    1    3    3  502    0 -0.29869736928E+02  0.26442353935E+02 -0.34936540170E+02  0.53235806604E+02  0.47000000000E+01 0.  1.
         -5    1    3    3    0  502 -0.90017464287E+02  0.64648687415E+02 -0.63822133671E+03  0.64778944210E+03  0.47000000000E+01 0.  1.
        -11    1    1    2    0    0  0.78164835538E+02 -0.40163575846E+02 -0.52337288069E+02  0.10228414375E+03  0.00000000000E+00 0. -1.
         11    1    1    2    0    0  0.41722365677E+02 -0.50927465505E+02 -0.16477885644E+03  0.17744417170E+03  0.00000000000E+00 0.  1.
<mgrwt>
<rscale>  0 0.19067231E+03</rscale>
<asrwt>0</asrwt>
<pdfrwt beam="1">  1        2 0.69599647E-02 0.19569076E+03</pdfrwt>
<pdfrwt beam="2">  1       -2 0.14392520E+00 0.19569076E+03</pdfrwt>
<totfact> 0.35711569E+02</totfact>
</mgrwt>
</event>
<event>
 7    1  0.6387485E-006  0.1466034E+03  0.7546771E-02  0.1214408E+00
         -2   -1    0    0    0  501 -0.00000000000E+00  0.00000000000E+00  0.22348753757E+02  0.22348753757E+02  0.00000000000E+00 0.  1.
          2   -1    0    0  501    0  0.00000000000E+00 -0.00000000000E+00 -0.79454045389E+03  0.79454045389E+03  0.00000000000E+00 0. -1.
         23    2    1    2    0    0  0.69166839334E+01  0.76289153508E+02 -0.39539489280E+03  0.42169856067E+03  0.12499871742E+03 0.  0.
          5    1    3    3  502    0 -0.20338869471E+02 -0.16306160910E+02 -0.17751964458E+02  0.31887030861E+02  0.47000000000E+01 0. -1.
         -5    1    3    3    0  502  0.27255553404E+02  0.92595314419E+02 -0.37764292835E+03  0.38981152981E+03  0.47000000000E+01 0. -1.
        -11    1    1    2    0    0 -0.74037598711E+01 -0.89985268072E+02 -0.36797930170E+03  0.37889435284E+03  0.00000000000E+00 0. -1.
         11    1    1    2    0    0  0.48707593773E+00  0.13696114564E+02 -0.88175056213E+01  0.16296294134E+02  0.00000000000E+00 0.  1.
<mgrwt>
<rscale>  0 0.13920132E+03</rscale>
<asrwt>0</asrwt>
<pdfrwt beam="2">  1        2 0.12223697E+00 0.14660339E+03</pdfrwt>
<pdfrwt beam="1">  1       -2 0.34382703E-02 0.14660339E+03</pdfrwt>
<totfact> 0.11884013E+04</totfact>
</mgrwt>
</event>
<event>
 7    1  0.6387485E-006  0.1386421E+03  0.7546771E-02  0.1226817E+00
         -1   -1    0    0    0  501 -0.00000000000E+00  0.00000000000E+00  0.22360875280E+03  0.22360875280E+03  0.00000000000E+00 0.  1.
          1   -1    0    0  501    0  0.00000000000E+00 -0.00000000000E+00 -0.85486092003E+02  0.85486092003E+02  0.00000000000E+00 0. -1.
         23    2    1    2    0    0 -0.49991487016E+02  0.33118397723E+02  0.14456304076E+03  0.20030001163E+03  0.12500257942E+03 0.  0.
          5    1    3    3  502    0 -0.49942915228E+02  0.69406787845E+02  0.13903619564E+03  0.16329344959E+03  0.47000000000E+01 0. -1.
         -5    1    3    3    0  502 -0.48571787611E-01 -0.36288390122E+02  0.55268451202E+01  0.37006562037E+02  0.47000000000E+01 0. -1.
        -11    1    1    2    0    0  0.10183088564E+01  0.22405987929E+02  0.20127641316E+02  0.30136144295E+02  0.00000000000E+00 0.  1.
         11    1    1    2    0    0  0.48973178159E+02 -0.55524385652E+02 -0.26568021284E+02  0.78658688878E+02  0.00000000000E+00 0. -1.
<mgrwt>
<rscale>  0 0.13043158E+03</rscale>
<asrwt>0</asrwt>
<pdfrwt beam="2">  1        1 0.13151706E-01 0.13864206E+03</pdfrwt>
<pdfrwt beam="1">  1       -1 0.34401346E-01 0.13864206E+03</pdfrwt>
<totfact> 0.34452081E+03</totfact>
</mgrwt>
</event>
<event>
 7    1  0.6387485E-006  0.1737256E+03  0.7546771E-02  0.1179163E+00
          2   -1    0    0  501    0  0.00000000000E+00  0.00000000000E+00  0.27861086720E+03  0.27861086720E+03  0.00000000000E+00 0. -1.
         -2   -1    0    0    0  501 -0.00000000000E+00 -0.00000000000E+00 -0.19742638495E+03  0.19742638495E+03  0.00000000000E+00 0.  1.
         23    2    1    2    0    0  0.11714241079E+03  0.28866666711E+02 -0.12807763882E+03  0.21583438251E+03  0.12499988102E+03 0.  0.
          5    1    3    3  502    0  0.77936947494E+02  0.62323281947E+02 -0.13011050023E+03  0.16404021314E+03  0.47000000000E+01 0.  1.
         -5    1    3    3    0  502  0.39205463296E+02 -0.33456615236E+02  0.20328614080E+01  0.51794169371E+02  0.47000000000E+01 0.  1.
        -11    1    1    2    0    0 -0.37946292841E+01  0.27675066259E+02  0.35491621060E+02  0.45165956973E+02  0.00000000000E+00 0.  1.
         11    1    1    2    0    0 -0.11334778151E+03 -0.56541732969E+02  0.17377050000E+03  0.21503691267E+03  0.00000000000E+00 0. -1.
<mgrwt>
<rscale>  0 0.16874523E+03</rscale>
<asrwt>0</asrwt>
<pdfrwt beam="1">  1        2 0.42863210E-01 0.17372564E+03</pdfrwt>
<pdfrwt beam="2">  1       -2 0.30373290E-01 0.17372564E+03</pdfrwt>
<totfact> 0.11753988E+03</totfact>
</mgrwt>
</event>
<event>
 7    1  0.6387485E-006  0.1402708E+03  0.7546771E-02  0.1223686E+00
          2   -1    0    0  501    0  0.00000000000E+00  0.00000000000E+00  0.90297472385E+02  0.90297472385E+02  0.00000000000E+00 0. -1.
         -2   -1    0    0    0  501 -0.00000000000E+00 -0.00000000000E+00 -0.18499588586E+03  0.18499588586E+03  0.00000000000E+00 0.  1.
         23    2    1    2    0    0 -0.14984937628E+02  0.61884635296E+02 -0.82431345375E+02  0.16269856394E+03  0.12498655754E+03 0.  0.
          5    1    3    3  502    0 -0.90201823589E+01 -0.38226755217E+02 -0.18468921254E+02  0.43655922353E+02  0.47000000000E+01 0.  1.
         -5    1    3    3    0  502 -0.59647552689E+01  0.10011139051E+03 -0.63962424121E+02  0.11904264158E+03  0.47000000000E+01 0.  1.
        -11    1    1    2    0    0  0.16645144174E+01 -0.20609455545E+02 -0.50631414020E+02  0.54690587415E+02  0.00000000000E+00 0.  1.
         11    1    1    2    0    0  0.13320423210E+02 -0.41275179751E+02  0.38364345921E+02  0.57904206893E+02  0.00000000000E+00 0. -1.
<mgrwt>
<rscale>  0 0.13257352E+03</rscale>
<asrwt>0</asrwt>
<pdfrwt beam="1">  1        2 0.13891919E-01 0.14027080E+03</pdfrwt>
<pdfrwt beam="2">  1       -2 0.28460905E-01 0.14027080E+03</pdfrwt>
<totfact> 0.45999079E+03</totfact>
</mgrwt>
</event>
<event>
 7    1  0.6387485E-006  0.1515486E+03  0.7546771E-02  0.1207026E+00
          1   -1    0    0  501    0  0.00000000000E+00  0.00000000000E+00  0.38436582056E+02  0.38436582056E+02  0.00000000000E+00 0. -1.
         -1   -1    0    0    0  501 -0.00000000000E+00 -0.00000000000E+00 -0.55040073942E+03  0.55040073942E+03  0.00000000000E+00 0.  1.
         23    2    1    2    0    0  0.20117967575E+02  0.83286335312E+02 -0.36419586842E+03  0.39446876229E+03  0.12500251029E+03 0.  0.
          5    1    3    3  502    0  0.20013275594E+02  0.91896293257E+02 -0.13243846090E+03  0.16250383331E+03  0.47000000000E+01 0.  1.
         -5    1    3    3    0  502  0.10469198148E+00 -0.86099579453E+01 -0.23175740752E+03  0.23196492898E+03  0.47000000000E+01 0.  1.
        -11    1    1    2    0    0  0.25567130835E+01 -0.65771600119E+02 -0.28533731502E+02  0.71739905195E+02  0.00000000000E+00 0. -1.
         11    1    1    2    0    0 -0.22674680659E+02 -0.17514735192E+02 -0.11923455744E+03  0.12262865400E+03  0.00000000000E+00 0.  1.
<mgrwt>
<rscale>  0 0.14478963E+03</rscale>
<asrwt>0</asrwt>
<pdfrwt beam="1">  1        1 0.59133208E-02 0.15154859E+03</pdfrwt>
<pdfrwt beam="2">  1       -1 0.84677030E-01 0.15154859E+03</pdfrwt>
<totfact> 0.18652269E+03</totfact>
</mgrwt>
</event>
<event>
 7    1  0.6387485E-006  0.1251665E+03  0.7546771E-02  0.1250851E+00
         -2   -1    0    0    0  501 -0.00000000000E+00  0.00000000000E+00  0.31466874154E+03  0.31466874154E+03  0.00000000000E+00 0.  1.
          2   -1    0    0  501    0  0.00000000000E+00 -0.00000000000E+00 -0.37222884953E+02  0.37222884953E+02  0.00000000000E+00 0. -1.
         23    2    1    2    0    0 -0.56171310279E+01  0.32097293253E+01  0.17564457320E+03  0.21567954651E+03  0.12499918467E+03 0.  0.
          5    1    3    3  502    0  0.21739459287E+02 -0.10967915301E+02  0.18215748281E+03  0.18383780296E+03  0.47000000000E+01 0.  1.
         -5    1    3    3    0  502 -0.27356590315E+02  0.14177644626E+02 -0.65129096083E+01  0.31841743551E+02  0.47000000000E+01 0.  1.
        -11    1    1    2    0    0 -0.42057197270E+02 -0.14369120151E+01  0.39258382207E+02  0.57550787413E+02  0.00000000000E+00 0.  1.
         11    1    1    2    0    0  0.47674328298E+02 -0.17728173101E+01  0.62542901178E+02  0.78661292563E+02  0.00000000000E+00 0. -1.
<mgrwt>
<rscale>  0 0.11541920E+03</rscale>
<asrwt>0</asrwt>
<pdfrwt beam="2">  1        2 0.57265979E-02 0.12516649E+03</pdfrwt>
<pdfrwt beam="1">  1       -2 0.48410574E-01 0.12516649E+03</pdfrwt>
<totfact> 0.50727675E+03</totfact>
</mgrwt>
</event>
<event>
 7    1  0.6387485E-006  0.1403137E+03  0.7546771E-02  0.1228306E+00
         -1   -1    0    0    0  501 -0.00000000000E+00  0.00000000000E+00  0.55176177663E+02  0.55176177663E+02  0.00000000000E+00 0.  1.
          1   -1    0    0  501    0  0.00000000000E+00 -0.00000000000E+00 -0.32732799473E+03  0.32732799473E+03  0.00000000000E+00 0. -1.
         23    2    1    2    0    0  0.59077625819E+02 -0.23923809874E+02 -0.71220530803E+02  0.15735409255E+03  0.12500172751E+03 0.  0.
          5    1    3    3  502    0  0.75182242240E+02 -0.23716251103E+02 -0.97933713444E+02  0.12580911073E+03  0.47000000000E+01 0.  1.
         -5    1    3    3    0  502 -0.16104616422E+02 -0.20755877135E+00  0.26713182640E+02  0.31544981812E+02  0.47000000000E+01 0.  1.
        -11    1    1    2    0    0 -0.39815844800E+02  0.33271012103E+02 -0.19656691629E+03  0.20329981388E+03  0.00000000000E+00 0. -1.
         11    1    1    2    0    0 -0.19261781019E+02 -0.93472022291E+01 -0.43643699697E+01  0.21850265965E+02  0.00000000000E+00 0.  1.
<mgrwt>
<rscale>  0 0.12942876E+03</rscale>
<asrwt>0</asrwt>
<pdfrwt beam="2">  1        1 0.50358154E-01 0.14031374E+03</pdfrwt>
<pdfrwt beam="1">  1       -1 0.84886425E-02 0.14031374E+03</pdfrwt>
<totfact> 0.59050630E+03</totfact>
</mgrwt>
</event>
<event>
 7    1  0.6387485E-006  0.1746690E+03  0.7546771E-02  0.1178707E+00
         -2   -1    0    0    0  501 -0.00000000000E+00  0.00000000000E+00  0.88098862581E+02  0.88098862581E+02  0.00000000000E+00 0.  1.
          2   -1    0    0  501    0  0.00000000000E+00 -0.00000000000E+00 -0.30880201770E+03  0.30880201770E+03  0.00000000000E+00 0. -1.
         23    2    1    2    0    0 -0.91459605258E+02 -0.80733716693E+02 -0.98540532408E+02  0.20054802285E+03  0.12500592200E+03 0.  0.
          5    1    3    3  502    0 -0.26708449564E+02  0.12518502959E+02 -0.80033057071E+02  0.85425022205E+02  0.47000000000E+01 0. -1.
         -5    1    3    3    0  502 -0.64751155694E+02 -0.93252219652E+02 -0.18507475337E+02  0.11512300064E+03  0.47000000000E+01 0. -1.
        -11    1    1    2    0    0 -0.11709431035E+02  0.23442677852E+02 -0.54126350854E+02  0.60135944133E+02  0.00000000000E+00 0. -1.
         11    1    1    2    0    0  0.10316903629E+03  0.57291038841E+02 -0.68036271860E+02  0.13621691330E+03  0.00000000000E+00 0.  1.
<mgrwt>
<rscale>  0 0.16917906E+03</rscale>
<asrwt>0</asrwt>
<pdfrwt beam="2">  1        2 0.47508003E-01 0.17466904E+03</pdfrwt>
<pdfrwt beam="1">  1       -2 0.13553671E-01 0.17466904E+03</pdfrwt>
<totfact> 0.41833027E+03</totfact>
</mgrwt>
</event>
<event>
 7    1  0.6387485E-006  0.1489818E+03  0.7546771E-02  0.1210426E+00
          2   -1    0    0  501    0  0.00000000000E+00  0.00000000000E+00  0.16752456719E+03  0.16752456719E+03  0.00000000000E+00 0. -1.
         -2   -1    0    0    0  501 -0.00000000000E+00 -0.00000000000E+00 -0.11513890802E+03  0.11513890802E+03  0.00000000000E+00 0.  1.
         23    2    1    2    0    0  0.76608040004E+02 -0.26498729080E+02  0.14265947283E+01  0.14898863958E+03  0.12499842046E+03 0.  0.
          5    1    3    3  502    0 -0.31319531132E+01 -0.60886788951E+02 -0.73158227839E+01  0.61584263104E+02  0.47000000000E+01 0. -1.
         -5    1    3    3    0  502  0.79739993117E+02  0.34388059871E+02  0.87424175121E+01  0.87404376480E+02  0.47000000000E+01 0. -1.
        -11    1    1    2    0    0 -0.82534021922E+02  0.13956610033E+02  0.30103100955E+01  0.83759857361E+02  0.00000000000E+00 0.  1.
         11    1    1    2    0    0  0.59259819185E+01  0.12542119047E+02  0.47948754342E+02  0.49914978261E+02  0.00000000000E+00 0. -1.
<mgrwt>
<rscale>  0 0.14217964E+03</rscale>
<asrwt>0</asrwt>
<pdfrwt beam="1">  1        2 0.25773010E-01 0.14898181E+03</pdfrwt>
<pdfrwt beam="2">  1       -2 0.17713678E-01 0.14898181E+03</pdfrwt>
<totfact> 0.51639952E+03</totfact>
</mgrwt>
</event>
<event>
 7    1  0.6387485E-006  0.1268381E+03  0.7546771E-02  0.1247463E+00
         -2   -1    0    0    0  501 -0.00000000000E+00  0.00000000000E+00  0.44696372980E+02  0.44696372980E+02  0.00000000000E+00 0.  1.
          2   -1    0    0  501    0  0.00000000000E+00 -0.00000000000E+00 -0.29615860562E+03  0.29615860562E+03  0.00000000000E+00 0. -1.
         23    2    1    2    0    0 -0.17038860379E+02 -0.13088436673E+02 -0.93729325447E+02  0.15771208460E+03  0.12500514086E+03 0.  0.
          5    1    3    3  502    0  0.49884264727E+02 -0.14931307760E+02 -0.15275000590E+02  0.54468334487E+02  0.47000000000E+01 0.  1.
         -5    1    3    3    0  502 -0.66923125106E+02  0.18428710871E+01 -0.78454324857E+02  0.10324375011E+03  0.47000000000E+01 0.  1.
        -11    1    1    2    0    0 -0.32356966436E+02 -0.15147246112E+02 -0.52306686068E+02  0.63343521762E+02  0.00000000000E+00 0. -1.
         11    1    1    2    0    0  0.49395826815E+02  0.28235682784E+02 -0.10542622113E+03  0.11979937225E+03  0.00000000000E+00 0.  1.
<mgrwt>
<rscale>  0 0.11739173E+03</rscale>
<asrwt>0</asrwt>
<pdfrwt beam="2">  1        2 0.45562864E-01 0.12683815E+03</pdfrwt>
<pdfrwt beam="1">  1       -2 0.68763649E-02 0.12683815E+03</pdfrwt>
<totfact> 0.12448572E+04</totfact>
</mgrwt>
</event>
<event>
 7    1  0.6387485E-006  0.1931006E+03  0.7546771E-02  0.1160356E+00
          1   -1    0    0  501    0  0.00000000000E+00  0.00000000000E+00  0.11977259495E+03  0.11977259495E+03  0.00000000000E+00 0. -1.
         -1   -1    0    0    0  501 -0.00000000000E+00 -0.00000000000E+00 -0.29582184060E+03  0.29582184060E+03  0.00000000000E+00 0.  1.
         23    2    1    2    0    0 -0.53026495006E+02  0.13729847979E+03 -0.14049984081E+03  0.23880549215E+03  0.12500070436E+03 0.  0.
          5    1    3    3  502    0  0.21934256424E+02 -0.11064564611E+01  0.65038296976E+01  0.23382165245E+02  0.47000000000E+01 0. -1.
         -5    1    3    3    0  502 -0.74960751430E+02  0.13840493625E+03 -0.14700367051E+03  0.21542332691E+03  0.47000000000E+01 0. -1.
        -11    1    1    2    0    0 -0.13683463915E+01 -0.80022075066E+02 -0.52873243984E+02  0.95921763949E+02  0.00000000000E+00 0. -1.
         11    1    1    2    0    0  0.54394841397E+02 -0.57276404722E+02  0.17323839155E+02  0.80867179446E+02  0.00000000000E+00 0.  1.
<mgrwt>
<rscale>  0 0.18791475E+03</rscale>
<asrwt>0</asrwt>
<pdfrwt beam="1">  1        1 0.18426553E-01 0.19310064E+03</pdfrwt>
<pdfrwt beam="2">  1       -1 0.45511052E-01 0.19310064E+03</pdfrwt>
<totfact> 0.13771558E+03</totfact>
</mgrwt>
</event>
<event>
 7    1  0.6387485E-006  0.1184339E+03  0.7546771E-02  0.1256235E+00
          1   -1    0    0  501    0  0.00000000000E+00  0.00000000000E+00  0.10426644801E+03  0.10426644801E+03  0.00000000000E+00 0. -1.
         -1   -1    0    0    0  501 -0.00000000000E+00 -0.00000000000E+00 -0.11131134755E+03  0.11131134755E+03  0.00000000000E+00 0.  1.
         23    2    1    2    0    0 -0.29077113905E+02  0.89513472642E+01 -0.14387856117E+02  0.11930460868E+03  0.11445948662E+03 0.  0.
          5    1    3    3  502    0  0.27014352093E+02  0.27858086525E+02  0.26486872336E+02  0.47217503216E+02  0.47000000000E+01 0. -1.
         -5    1    3    3    0  502 -0.56091465998E+02 -0.18906739260E+02 -0.40874728454E+02  0.72087105459E+02  0.47000000000E+01 0.  1.
        -11    1    1    2    0    0  0.31115182711E+01  0.11541941888E+02  0.44761295048E+02  0.46330028091E+02  0.00000000000E+00 0.  1.
         11    1    1    2    0    0  0.25965595634E+02 -0.20493289152E+02 -0.37418338463E+02  0.49943158793E+02  0.00000000000E+00 0. -1.
<mgrwt>
<rscale>  0 0.11237418E+03</rscale>
<asrwt>0</asrwt>
<pdfrwt beam="1">  1        1 0.16040992E-01 0.11843386E+03</pdfrwt>
<pdfrwt beam="2">  1       -1 0.17124823E-01 0.11843386E+03</pdfrwt>
<totfact> 0.82658431E+03</totfact>
</mgrwt>
</event>
<event>
 7    1  0.1962813E-005  0.3388383E+03  0.7546771E-02  0.1068441E+00
          1   -1    0    0  501    0  0.00000000000E+00  0.00000000000E+00  0.39405975285E+03  0.39405975285E+03  0.00000000000E+00 0. -1.
         -1   -1    0    0    0  501 -0.00000000000E+00 -0.00000000000E+00 -0.28275523478E+03  0.28275523478E+03  0.00000000000E+00 0.  1.
         23    2    1    2    0    0 -0.61269491796E+02  0.30892186740E+03  0.69543195852E+02  0.34590118178E+03  0.12499880274E+03 0.  0.
          5    1    3    3  502    0  0.25498742056E+02  0.20981747081E+02  0.25374382913E+02  0.41909054693E+02  0.47000000000E+01 0.  1.
         -5    1    3    3    0  502 -0.86768233852E+02  0.28794012032E+03  0.44168812939E+02  0.30399212709E+03  0.47000000000E+01 0.  1.
        -11    1    1    2    0    0  0.64781193230E+02 -0.13491447226E+03  0.46769527136E+02  0.15679893651E+03  0.00000000000E+00 0. -1.
         11    1    1    2    0    0 -0.35117014342E+01 -0.17400739514E+03 -0.50082049192E+01  0.17411486934E+03  0.00000000000E+00 0.  1.
<mgrwt>
<rscale>  0 0.33616424E+03</rscale>
<asrwt>0</asrwt>
<pdfrwt beam="1">  1        1 0.60624577E-01 0.33883827E+03</pdfrwt>
<pdfrwt beam="2">  1       -1 0.43500805E-01 0.33883827E+03</pdfrwt>
<totfact> 0.32869353E+02</totfact>
</mgrwt>
</event>
<event>
 7    1  0.6387485E-006  0.3094214E+03  0.7546771E-02  0.1082039E+00
          2   -1    0    0  501    0  0.00000000000E+00  0.00000000000E+00  0.11633759280E+04  0.11633759280E+04  0.00000000000E+00 0. -1.
         -2   -1    0    0    0  501 -0.00000000000E+00 -0.00000000000E+00 -0.81387969938E+02  0.81387969938E+02  0.00000000000E+00 0.  1.
         23    2    1    2    0    0  0.27455482364E+03  0.68829883354E+02  0.45024231123E+03  0.54631470185E+03  0.12499484234E+03 0.  0.
          5    1    3    3  502    0  0.27741475425E+03  0.58071312131E+02  0.37486842949E+03  0.46997835333E+03  0.47000000000E+01 0.  1.
         -5    1    3    3    0  502 -0.28599306066E+01  0.10758571223E+02  0.75373881739E+02  0.76336348525E+02  0.47000000000E+01 0.  1.
        -11    1    1    2    0    0 -0.15794086940E+03 -0.58722876960E+02  0.46607438119E+03  0.49559966032E+03  0.00000000000E+00 0. -1.
         11    1    1    2    0    0 -0.11661395424E+03 -0.10107006394E+02  0.16567126566E+03  0.20284953578E+03  0.00000000000E+00 0.  1.
<mgrwt>
<rscale>  0 0.30649317E+03</rscale>
<asrwt>0</asrwt>
<pdfrwt beam="1">  1        2 0.17898090E+00 0.30942142E+03</pdfrwt>
<pdfrwt beam="2">  1       -2 0.12521227E-01 0.30942142E+03</pdfrwt>
<totfact> 0.96746239E+02</totfact>
</mgrwt>
</event>
<event>
 7    1  0.6387485E-006  0.1517794E+03  0.7546771E-02  0.1207088E+00
         -2   -1    0    0    0  501 -0.00000000000E+00  0.00000000000E+00  0.35002962825E+02  0.35002962825E+02  0.00000000000E+00 0.  1.
          2   -1    0    0  501    0  0.00000000000E+00 -0.00000000000E+00 -0.54926030870E+03  0.54926030870E+03  0.00000000000E+00 0. -1.
         23    2    1    2    0    0 -0.76936962350E+02 -0.38646452046E+02 -0.27907876719E+03  0.31768213139E+03  0.12499653546E+03 0.  0.
          5    1    3    3  502    0 -0.10462748203E+03 -0.80541347799E+01 -0.15846265442E+03  0.19011649568E+03  0.47000000000E+01 0. -1.
         -5    1    3    3    0  502  0.27690519676E+02 -0.30592317266E+02 -0.12061611277E+03  0.12756563571E+03  0.47000000000E+01 0. -1.
        -11    1    1    2    0    0  0.87620400384E+02  0.67815108507E+01 -0.19702418307E+03  0.21573560709E+03  0.00000000000E+00 0. -1.
         11    1    1    2    0    0 -0.10683438034E+02  0.31864941196E+02 -0.38154395616E+02  0.50845533043E+02  0.00000000000E+00 0.  1.
<mgrwt>
<rscale>  0 0.14474120E+03</rscale>
<asrwt>0</asrwt>
<pdfrwt beam="2">  1        2 0.84501589E-01 0.15177937E+03</pdfrwt>
<pdfrwt beam="1">  1       -2 0.53850710E-02 0.15177937E+03</pdfrwt>
<totfact> 0.93988326E+03</totfact>
</mgrwt>
</event>
<event>
 7    1  0.6387485E-006  0.1351348E+03  0.7546771E-02  0.1232845E+00
         -1   -1    0    0    0  501 -0.00000000000E+00  0.00000000000E+00  0.88783778585E+02  0.88783778585E+02  0.00000000000E+00 0.  1.
          1   -1    0    0  501    0  0.00000000000E+00 -0.00000000000E+00 -0.16071641349E+03  0.16071641349E+03  0.00000000000E+00 0. -1.
         23    2    1    2    0    0 -0.48820850763E+02 -0.15903267628E+02 -0.46033650975E+02  0.14276031486E+03  0.12500008435E+03 0.  0.
          5    1    3    3  502    0  0.21404216535E+02  0.38445797750E+02 -0.40920010303E+01  0.44441583259E+02  0.47000000000E+01 0. -1.
         -5    1    3    3    0  502 -0.70225067298E+02 -0.54349065378E+02 -0.41941649945E+02  0.98318731606E+02  0.47000000000E+01 0. -1.
        -11    1    1    2    0    0 -0.13739757397E+02 -0.13670832915E+02 -0.31851915138E+02  0.37285615241E+02  0.00000000000E+00 0. -1.
         11    1    1    2    0    0  0.62560608160E+02  0.29574100544E+02  0.59529312038E+01  0.69454261973E+02  0.00000000000E+00 0.  1.
<mgrwt>
<rscale>  0 0.12643378E+03</rscale>
<asrwt>0</asrwt>
<pdfrwt beam="2">  1        1 0.24725602E-01 0.13513479E+03</pdfrwt>
<pdfrwt beam="1">  1       -1 0.13659043E-01 0.13513479E+03</pdfrwt>
<totfact> 0.68702378E+03</totfact>
</mgrwt>
</event>
<event>
 7    1  0.6387485E-006  0.1420790E+03  0.7546771E-02  0.1220593E+00
         -3   -1    0    0    0  501 -0.00000000000E+00  0.00000000000E+00  0.19398400729E+03  0.19398400729E+03  0.00000000000E+00 0.  1.
          3   -1    0    0  501    0  0.00000000000E+00 -0.00000000000E+00 -0.11654298418E+03  0.11654298418E+03  0.00000000000E+00 0. -1.
         23    2    1    2    0    0 -0.62237505791E+02  0.26158495847E+02  0.12201177805E+03  0.18727867490E+03  0.12501461538E+03 0.  0.
          5    1    3    3  502    0 -0.65240352390E+01 -0.38593773032E+02  0.85715658238E+02  0.94346735078E+02  0.47000000000E+01 0.  1.
         -5    1    3    3    0  502 -0.55713470552E+02  0.64752268879E+02  0.36296119812E+02  0.92931939823E+02  0.47000000000E+01 0.  1.
        -11    1    1    2    0    0  0.46747852616E+02  0.10015283403E+01 -0.69151526217E+02  0.83476334139E+02  0.00000000000E+00 0. -1.
         11    1    1    2    0    0  0.15489653175E+02 -0.27160024187E+02  0.24580771280E+02  0.39771982425E+02  0.00000000000E+00 0.  1.
<mgrwt>
<rscale>  0 0.13473606E+03</rscale>
<asrwt>0</asrwt>
<pdfrwt beam="2">  1        3 0.17929690E-01 0.14207895E+03</pdfrwt>
<pdfrwt beam="1">  1       -3 0.29843693E-01 0.14207895E+03</pdfrwt>
<totfact> 0.68712816E+02</totfact>
</mgrwt>
</event>
<event>
 7    1  0.6387485E-006  0.1325001E+03  0.7546771E-02  0.1236912E+00
         -2   -1    0    0    0  501 -0.00000000000E+00  0.00000000000E+00  0.46926942500E+03  0.46926942500E+03  0.00000000000E+00 0.  1.
          2   -1    0    0  501    0  0.00000000000E+00 -0.00000000000E+00 -0.35275580279E+02  0.35275580279E+02  0.00000000000E+00 0. -1.
         23    2    1    2    0    0 -0.41054483811E+02  0.15540128072E+02  0.34611854334E+03  0.37061344375E+03  0.12501724849E+03 0.  0.
          5    1    3    3  502    0 -0.20926938514E+02  0.70398134602E+02  0.18051002301E+03  0.19493535471E+03  0.47000000000E+01 0.  1.
         -5    1    3    3    0  502 -0.20127545297E+02 -0.54858006530E+02  0.16560852033E+03  0.17567808904E+03  0.47000000000E+01 0.  1.
        -11    1    1    2    0    0  0.35841955048E+02 -0.35179607462E+02  0.71985370262E+01  0.50735288096E+02  0.00000000000E+00 0. -1.
         11    1    1    2    0    0  0.52125287629E+01  0.19639479389E+02  0.80676764354E+02  0.83196273435E+02  0.00000000000E+00 0.  1.
<mgrwt>
<rscale>  0 0.12382836E+03</rscale>
<asrwt>0</asrwt>
<pdfrwt beam="2">  1        2 0.54270127E-02 0.13250011E+03</pdfrwt>
<pdfrwt beam="1">  1       -2 0.72195292E-01 0.13250011E+03</pdfrwt>
<totfact> 0.24096445E+03</totfact>
</mgrwt>
</event>
<event>
 7    1  0.6387485E-006  0.2960419E+03  0.7546771E-02  0.1088813E+00
          2   -1    0    0  501    0  0.00000000000E+00  0.00000000000E+00  0.35335063303E+03  0.35335063303E+03  0.00000000000E+00 0. -1.
         -2   -1    0    0    0  501 -0.00000000000E+00 -0.00000000000E+00 -0.23797153909E+03  0.23797153909E+03  0.00000000000E+00 0.  1.
         23    2    1    2    0    0 -0.24535721524E+03 -0.10869834088E+03  0.60021547636E+02  0.30206520088E+03  0.12500122808E+03 0.  0.
          5    1    3    3  502    0 -0.16527775790E+03 -0.27004750768E+02  0.80308151079E+02  0.18578881277E+03  0.47000000000E+01 0. -1.
         -5    1    3    3    0  502 -0.80079457341E+02 -0.81693590110E+02 -0.20286603443E+02  0.11627638811E+03  0.47000000000E+01 0. -1.
        -11    1    1    2    0    0  0.89531697771E+02  0.21105598060E+02 -0.21840140814E+02  0.94542915790E+02  0.00000000000E+00 0.  1.
         11    1    1    2    0    0  0.15582551747E+03  0.87592742818E+02  0.77197687125E+02  0.19471405544E+03  0.00000000000E+00 0. -1.
<mgrwt>
<rscale>  0 0.29296127E+03</rscale>
<asrwt>0</asrwt>
<pdfrwt beam="1">  1        2 0.54361636E-01 0.29604189E+03</pdfrwt>
<pdfrwt beam="2">  1       -2 0.36611006E-01 0.29604189E+03</pdfrwt>
<totfact> 0.64765077E+02</totfact>
</mgrwt>
</event>
<event>
 7    1  0.6387485E-006  0.1822811E+03  0.7546771E-02  0.1168797E+00
         -1   -1    0    0    0  501 -0.00000000000E+00  0.00000000000E+00  0.50833129999E+02  0.50833129999E+02  0.00000000000E+00 0.  1.
          1   -1    0    0  501    0  0.00000000000E+00 -0.00000000000E+00 -0.61659548605E+03  0.61659548605E+03  0.00000000000E+00 0. -1.
         23    2    1    2    0    0 -0.16983091940E+02  0.14077248645E+03 -0.25447578773E+03  0.31302448821E+03  0.11454730605E+03 0.  0.
          5    1    3    3  502    0 -0.11559639215E+02 -0.16912412922E+02 -0.13592297885E+02  0.25029892757E+02  0.47000000000E+01 0. -1.
         -5    1    3    3    0  502 -0.54234527255E+01  0.15768489937E+03 -0.24088348984E+03  0.28799459545E+03  0.47000000000E+01 0.  1.
        -11    1    1    2    0    0 -0.22823004181E+01 -0.13554225896E+03 -0.20175249855E+03  0.24306580082E+03  0.00000000000E+00 0. -1.
         11    1    1    2    0    0  0.19265392358E+02 -0.52302274898E+01 -0.10953406978E+03  0.11133832702E+03  0.00000000000E+00 0.  1.
<mgrwt>
<rscale>  0 0.17897694E+03</rscale>
<asrwt>0</asrwt>
<pdfrwt beam="2">  1        1 0.94860841E-01 0.18228111E+03</pdfrwt>
<pdfrwt beam="1">  1       -1 0.78204818E-02 0.18228111E+03</pdfrwt>
<totfact> 0.29769990E+03</totfact>
</mgrwt>
</event>
<event>
 7    1  0.6387485E-006  0.1118069E+03  0.7546771E-02  0.1266861E+00
          2   -1    0    0  501    0  0.00000000000E+00  0.00000000000E+00  0.13286564137E+02  0.13286564137E+02  0.00000000000E+00 0. -1.
         -2   -1    0    0    0  501 -0.00000000000E+00 -0.00000000000E+00 -0.90525605176E+03  0.90525605176E+03  0.00000000000E+00 0.  1.
         23    2    1    2    0    0 -0.65015806371E+01 -0.91197427933E+01 -0.64804697252E+03  0.65762121581E+03  0.11124452629E+03 0.  0.
          5    1    3    3  502    0  0.45055760016E+01  0.37235785351E+02 -0.91249384428E+02  0.98769145406E+02  0.47000000000E+01 0. -1.
         -5    1    3    3    0  502 -0.11007156639E+02 -0.46355528144E+02 -0.55679758809E+03  0.55885207040E+03  0.47000000000E+01 0.  1.
        -11    1    1    2    0    0 -0.35410814936E+02 -0.19368356328E+02 -0.84631856995E+02  0.93763587067E+02  0.00000000000E+00 0.  1.
         11    1    1    2    0    0  0.41912395573E+02  0.28488099121E+02 -0.15929065811E+03  0.16715781302E+03  0.00000000000E+00 0. -1.
<mgrwt>
<rscale>  0 0.10667157E+03</rscale>
<asrwt>0</asrwt>
<pdfrwt beam="1">  1        2 0.20440868E-02 0.11180691E+03</pdfrwt>
<pdfrwt beam="2">  1       -2 0.13927016E+00 0.11180691E+03</pdfrwt>
<totfact> 0.19232868E+03</totfact>
</mgrwt>
</event>
<event>
 7    1  0.6387485E-006  0.1355007E+03  0.7546771E-02  0.1232012E+00
         -1   -1    0    0    0  501 -0.00000000000E+00  0.00000000000E+00  0.16508350198E+03  0.16508350198E+03  0.00000000000E+00 0.  1.
          1   -1    0    0  501    0  0.00000000000E+00 -0.00000000000E+00 -0.87865261001E+02  0.87865261001E+02  0.00000000000E+00 0. -1.
         23    2    1    2    0    0 -0.26202567539E+02  0.45243071783E+02  0.54296027969E+02  0.14597427179E+03  0.12500767689E+03 0.  0.
          5    1    3    3  502    0 -0.54631805974E+02  0.75733192199E+02  0.35659864763E+02  0.10006930888E+03  0.47000000000E+01 0. -1.
         -5    1    3    3    0  502  0.28429238435E+02 -0.30490120417E+02  0.18636163206E+02  0.45904962913E+02  0.47000000000E+01 0. -1.
        -11    1    1    2    0    0  0.39097224822E+01  0.25251939517E+02 -0.80828621808E+01  0.26800728354E+02  0.00000000000E+00 0. -1.
         11    1    1    2    0    0  0.22292845057E+02 -0.70495011300E+02  0.31005075185E+02  0.80173762829E+02  0.00000000000E+00 0.  1.
<mgrwt>
<rscale>  0 0.12697684E+03</rscale>
<asrwt>0</asrwt>
<pdfrwt beam="2">  1        1 0.13517732E-01 0.13550066E+03</pdfrwt>
<pdfrwt beam="1">  1       -1 0.25397462E-01 0.13550066E+03</pdfrwt>
<totfact> 0.55228657E+03</totfact>
</mgrwt>
</event>
<event>
 6    1  0.6387485E-006  0.2653765E+03  0.7546771E-02  0.1110117E+00
          2   -1    0    0  501    0  0.00000000000E+00  0.00000000000E+00  0.23407165497E+04  0.23407165497E+04  0.00000000000E+00 0. -1.
         -2   -1    0    0    0  501 -0.00000000000E+00 -0.00000000000E+00 -0.26124844298E+02  0.26124844298E+02  0.00000000000E+00 0.  1.
          5    1    1    2  502    0 -0.12238173106E+03  0.31266393840E+01  0.12802056625E+04  0.12860543116E+04  0.47000000000E+01 0. -1.
         -5    1    1    2    0  502 -0.47478514640E+02 -0.39251944883E+02  0.87223269030E+02  0.10688738555E+03  0.47000000000E+01 0.  1.
        -11    1    1    2    0    0  0.14255888716E+03 -0.15815913666E+02  0.83584866133E+03  0.84806613190E+03  0.00000000000E+00 0.  1.
         11    1    1    2    0    0  0.27301358546E+02  0.51941219166E+02  0.11131411253E+03  0.12583356498E+03  0.00000000000E+00 0. -1.
<mgrwt>
<rscale>  0 0.25511058E+03</rscale>
<asrwt>0</asrwt>
<pdfrwt beam="1">  1        2 0.36011007E+00 0.26537650E+03</pdfrwt>
<pdfrwt beam="2">  1       -2 0.40192087E-02 0.26537650E+03</pdfrwt>
<totfact> 0.13361988E+03</totfact>
</mgrwt>
</event>
<event>
 7    1  0.6387485E-006  0.2097945E+03  0.7546771E-02  0.1145074E+00
         -1   -1    0    0    0  501 -0.00000000000E+00  0.00000000000E+00  0.37419903683E+03  0.37419903683E+03  0.00000000000E+00 0.  1.
          1   -1    0    0  501    0  0.00000000000E+00 -0.00000000000E+00 -0.11585172873E+03  0.11585172873E+03  0.00000000000E+00 0. -1.
         23    2    1    2    0    0  0.13050130474E+03 -0.10658737469E+03  0.19473129881E+03  0.28624120870E+03  0.12498916690E+03 0.  0.
          5    1    3    3  502    0  0.14022862318E+03 -0.73166481609E+02  0.19498742748E+03  0.25111668137E+03  0.47000000000E+01 0.  1.
         -5    1    3    3    0  502 -0.97273184390E+01 -0.33420893077E+02 -0.25612867102E+00  0.35124527327E+02  0.47000000000E+01 0.  1.
        -11    1    1    2    0    0 -0.92929282049E+01  0.64343088155E+02  0.16455152584E+02  0.67060894376E+02  0.00000000000E+00 0.  1.
         11    1    1    2    0    0 -0.12120837653E+03  0.42244286531E+02  0.47160856710E+02  0.13674866249E+03  0.00000000000E+00 0. -1.
<mgrwt>
<rscale>  0 0.20563025E+03</rscale>
<asrwt>0</asrwt>
<pdfrwt beam="2">  1        1 0.17823343E-01 0.20979454E+03</pdfrwt>
<pdfrwt beam="1">  1       -1 0.57569082E-01 0.20979454E+03</pdfrwt>
<totfact> 0.93167873E+02</totfact>
</mgrwt>
</event>
<event>
 7    1  0.6387485E-006  0.1274505E+03  0.7546771E-02  0.1245904E+00
          2   -1    0    0  501    0  0.00000000000E+00  0.00000000000E+00  0.58949122914E+02  0.58949122914E+02  0.00000000000E+00 0.  1.
         -2   -1    0    0    0  501 -0.00000000000E+00 -0.00000000000E+00 -0.21582064127E+03  0.21582064127E+03  0.00000000000E+00 0. -1.
         23    2    1    2    0    0 -0.24214220327E+02 -0.56946603160E+01 -0.11346656568E+03  0.17064079807E+03  0.12499945126E+03 0.  0.
          5    1    3    3  502    0  0.45076795041E+02  0.18143900178E+02 -0.69905151585E+02  0.85263936004E+02  0.47000000000E+01 0. -1.
         -5    1    3    3    0  502 -0.69291015368E+02 -0.23838560494E+02 -0.43561414097E+02  0.85376862061E+02  0.47000000000E+01 0. -1.
        -11    1    1    2    0    0 -0.26450344508E+02  0.25984897570E+01 -0.46193177101E+02  0.53293362478E+02  0.00000000000E+00 0. -1.
         11    1    1    2    0    0  0.50664564835E+02  0.30961705590E+01  0.27882244260E+01  0.50835603640E+02  0.00000000000E+00 0.  1.
<mgrwt>
<rscale>  0 0.11831440E+03</rscale>
<asrwt>0</asrwt>
<pdfrwt beam="1">  1        2 0.90690955E-02 0.12745046E+03</pdfrwt>
<pdfrwt beam="2">  1       -2 0.33203177E-01 0.12745046E+03</pdfrwt>
<totfact> 0.57967827E+03</totfact>
</mgrwt>
</event>
<event>
 7    1  0.6387485E-006  0.1365100E+03  0.7546771E-02  0.1230339E+00
         -2   -1    0    0    0  501 -0.00000000000E+00  0.00000000000E+00  0.59046218077E+02  0.59046218077E+02  0.00000000000E+00 0.  1.
          2   -1    0    0  501    0  0.00000000000E+00 -0.00000000000E+00 -0.32046227587E+03  0.32046227587E+03  0.00000000000E+00 0. -1.
         23    2    1    2    0    0  0.54247629390E+02  0.82067738180E+01 -0.54236858397E+02  0.14688981175E+03  0.12499929423E+03 0.  0.
          5    1    3    3  502    0 -0.25888662928E+02  0.38878301452E+02 -0.35704782977E+02  0.58980223122E+02  0.47000000000E+01 0. -1.
         -5    1    3    3    0  502  0.80136292318E+02 -0.30671527634E+02 -0.18532075420E+02  0.87909588631E+02  0.47000000000E+01 0. -1.
        -11    1    1    2    0    0 -0.40762064402E+02 -0.42203869255E+02 -0.17254391915E+03  0.18224740467E+03  0.00000000000E+00 0. -1.
         11    1    1    2    0    0 -0.13485564988E+02  0.33997095437E+02 -0.34635280241E+02  0.50371277516E+02  0.00000000000E+00 0.  1.
<mgrwt>
<rscale>  0 0.12807623E+03</rscale>
<asrwt>0</asrwt>
<pdfrwt beam="2">  1        2 0.49301888E-01 0.13651000E+03</pdfrwt>
<pdfrwt beam="1">  1       -2 0.90840336E-02 0.13651000E+03</pdfrwt>
<totfact> 0.74951554E+03</totfact>
</mgrwt>
</event>
<event>
 7    1  0.6387485E-006  0.2459126E+03  0.7546771E-02  0.1118471E+00
         -1   -1    0    0    0  501 -0.00000000000E+00  0.00000000000E+00  0.98362028571E+02  0.98362028571E+02  0.00000000000E+00 0.  1.
          1   -1    0    0  501    0  0.00000000000E+00 -0.00000000000E+00 -0.72803650925E+03  0.72803650925E+03  0.00000000000E+00 0. -1.
         23    2    1    2    0    0  0.12376338771E+03 -0.17184510104E+03 -0.13481630113E+03  0.28044331544E+03  0.12499961293E+03 0.  0.
          5    1    3    3  502    0  0.30369846285E+02 -0.33655051205E+02  0.22759199157E+02  0.50941743014E+02  0.47000000000E+01 0. -1.
         -5    1    3    3    0  502  0.93393541428E+02 -0.13819004984E+03 -0.15757550029E+03  0.22950157243E+03  0.47000000000E+01 0. -1.
        -11    1    1    2    0    0 -0.62251201723E+02  0.98937902653E+02 -0.16247530350E+03  0.20015530207E+03  0.00000000000E+00 0.  1.
         11    1    1    2    0    0 -0.61512185991E+02  0.72907198389E+02 -0.33238287604E+03  0.34579992031E+03  0.00000000000E+00 0. -1.
<mgrwt>
<rscale>  0 0.24199517E+03</rscale>
<asrwt>0</asrwt>
<pdfrwt beam="2">  1        1 0.11200561E+00 0.24591262E+03</pdfrwt>
<pdfrwt beam="1">  1       -1 0.15132620E-01 0.24591262E+03</pdfrwt>
<totfact> 0.84553746E+02</totfact>
</mgrwt>
</event>
<event>
 7    1  0.6387485E-006  0.2325150E+03  0.7546771E-02  0.1127689E+00
          2   -1    0    0  501    0  0.00000000000E+00  0.00000000000E+00  0.39298831577E+03  0.39298831577E+03  0.00000000000E+00 0. -1.
         -2   -1    0    0    0  501 -0.00000000000E+00 -0.00000000000E+00 -0.13676857711E+03  0.13676857711E+03  0.00000000000E+00 0.  1.
         23    2    1    2    0    0  0.12870689566E+03  0.14787233090E+03  0.67193373910E+02  0.24202933142E+03  0.12502622338E+03 0.  0.
          5    1    3    3  502    0  0.94351757913E+02  0.77411098726E+02  0.99081968745E+02  0.15727065511E+03  0.47000000000E+01 0.  1.
         -5    1    3    3    0  502  0.34355137748E+02  0.70461232176E+02 -0.31888594836E+02  0.84758676311E+02  0.47000000000E+01 0.  1.
        -11    1    1    2    0    0  0.15023162557E+01 -0.40680084677E+02  0.10304683734E+02  0.41991817659E+02  0.00000000000E+00 0.  1.
         11    1    1    2    0    0 -0.13020921192E+03 -0.10719224622E+03  0.17872168101E+03  0.24573574380E+03  0.00000000000E+00 0. -1.
<mgrwt>
<rscale>  0 0.22851535E+03</rscale>
<asrwt>0</asrwt>
<pdfrwt beam="1">  1        2 0.60459740E-01 0.23251505E+03</pdfrwt>
<pdfrwt beam="2">  1       -2 0.21041320E-01 0.23251505E+03</pdfrwt>
<totfact> 0.15614181E+03</totfact>
</mgrwt>
</event>
<event>
 7    1  0.6387485E-006  0.1285427E+03  0.7546771E-02  0.1244394E+00
          1   -1    0    0  501    0  0.00000000000E+00  0.00000000000E+00  0.21946929861E+03  0.21946929861E+03  0.00000000000E+00 0. -1.
         -1   -1    0    0    0  501 -0.00000000000E+00 -0.00000000000E+00 -0.58162774557E+02  0.58162774557E+02  0.00000000000E+00 0.  1.
         23    2    1    2    0    0 -0.14481044656E+02  0.26235477739E+02  0.72865319511E+02  0.14775853858E+03  0.12500091995E+03 0.  0.
          5    1    3    3  502    0  0.26649919072E+02  0.65592582957E+02  0.46587888195E+02  0.84883016275E+02  0.47000000000E+01 0. -1.
         -5    1    3    3    0  502 -0.41130963727E+02 -0.39357105218E+02  0.26277431316E+02  0.62875522302E+02  0.47000000000E+01 0. -1.
        -11    1    1    2    0    0 -0.20254870231E+02 -0.19522019962E+02  0.90166278393E+02  0.94452775453E+02  0.00000000000E+00 0. -1.
         11    1    1    2    0    0  0.34735914887E+02 -0.67134577762E+01 -0.17250738457E+01  0.35420759141E+02  0.00000000000E+00 0.  1.
<mgrwt>
<rscale>  0 0.11921706E+03</rscale>
<asrwt>0</asrwt>
<pdfrwt beam="1">  1        1 0.33764507E-01 0.12854272E+03</pdfrwt>
<pdfrwt beam="2">  1       -1 0.89481193E-02 0.12854272E+03</pdfrwt>
<totfact> 0.88866656E+03</totfact>
</mgrwt>
</event>
<event>
 7    1  0.6387485E-006  0.1868488E+03  0.7546771E-02  0.1166556E+00
         -2   -1    0    0    0  501 -0.00000000000E+00  0.00000000000E+00  0.78837455588E+02  0.78837455588E+02  0.00000000000E+00 0. -1.
          2   -1    0    0  501    0  0.00000000000E+00 -0.00000000000E+00 -0.41914460016E+03  0.41914460016E+03  0.00000000000E+00 0.  1.
         23    2    1    2    0    0  0.13709601537E+03  0.22158832799E+02 -0.11881631406E+03  0.22142669515E+03  0.12500453407E+03 0.  0.
          5    1    3    3  502    0  0.12726482242E+03  0.62672616669E+02 -0.10726969324E+03  0.17791309394E+03  0.47000000000E+01 0. -1.
         -5    1    3    3    0  502  0.98311929442E+01 -0.40513783870E+02 -0.11546620817E+02  0.43513601212E+02  0.47000000000E+01 0. -1.
        -11    1    1    2    0    0 -0.10807957745E+03 -0.54583216880E+02 -0.17578286674E+03  0.21344821120E+03  0.00000000000E+00 0.  1.
         11    1    1    2    0    0 -0.29016437921E+02  0.32424384081E+02 -0.45707963775E+02  0.63107149397E+02  0.00000000000E+00 0. -1.
<mgrwt>
<rscale>  0 0.18129482E+03</rscale>
<asrwt>0</asrwt>
<pdfrwt beam="2">  1        2 0.64483784E-01 0.18684878E+03</pdfrwt>
<pdfrwt beam="1">  1       -2 0.12128839E-01 0.18684878E+03</pdfrwt>
<totfact> 0.36165783E+03</totfact>
</mgrwt>
</event>
<event>
 7    1  0.6387485E-006  0.1872098E+03  0.7546771E-02  0.1166210E+00
         -2   -1    0    0    0  501 -0.00000000000E+00  0.00000000000E+00  0.66160229713E+03  0.66160229713E+03  0.00000000000E+00 0.  1.
          2   -1    0    0  501    0  0.00000000000E+00 -0.00000000000E+00 -0.47329977702E+02  0.47329977702E+02  0.00000000000E+00 0. -1.
         23    2    1    2    0    0 -0.81289931284E+02 -0.11319736397E+03  0.34837537085E+03  0.39549071464E+03  0.12500324079E+03 0.  0.
          5    1    3    3  502    0 -0.70116707610E+02 -0.12928068315E+02  0.72875145207E+02  0.10206059193E+03  0.47000000000E+01 0. -1.
         -5    1    3    3    0  502 -0.11173223674E+02 -0.10026929566E+03  0.27550022565E+03  0.29343012270E+03  0.47000000000E+01 0. -1.
        -11    1    1    2    0    0  0.89090505503E+02  0.65050605268E+02  0.13873148329E+03  0.17724312081E+03  0.00000000000E+00 0.  1.
         11    1    1    2    0    0 -0.78005742191E+01  0.48146758705E+02  0.12716546528E+03  0.13619843938E+03  0.00000000000E+00 0. -1.
<mgrwt>
<rscale>  0 0.18165637E+03</rscale>
<asrwt>0</asrwt>
<pdfrwt beam="2">  1        2 0.72815355E-02 0.18720979E+03</pdfrwt>
<pdfrwt beam="1">  1       -2 0.10178496E+00 0.18720979E+03</pdfrwt>
<totfact> 0.78052920E+02</totfact>
</mgrwt>
</event>
<event>
 6    1  0.6387485E-006  0.1945899E+03  0.7546771E-02  0.1159418E+00
          2   -1    0    0  501    0  0.00000000000E+00  0.00000000000E+00  0.11424652589E+04  0.11424652589E+04  0.00000000000E+00 0. -1.
         -2   -1    0    0    0  501 -0.00000000000E+00 -0.00000000000E+00 -0.33952622880E+02  0.33952622880E+02  0.00000000000E+00 0.  1.
          5    1    1    2  502    0 -0.78199568151E+02 -0.41206668285E+02  0.26180163997E+03  0.27636090653E+03  0.47000000000E+01 0. -1.
         -5    1    1    2    0  502 -0.66436566942E+02  0.63109440127E+02  0.10966002930E+03  0.14298262442E+03  0.47000000000E+01 0.  1.
        -11    1    1    2    0    0  0.19420479171E+02 -0.36935689636E+02  0.11424296372E+03  0.12162588105E+03  0.00000000000E+00 0.  1.
         11    1    1    2    0    0  0.12521565592E+03  0.15032917793E+02  0.62280800301E+03  0.63544846976E+03  0.00000000000E+00 0. -1.
<mgrwt>
<rscale>  0 0.18894298E+03</rscale>
<asrwt>0</asrwt>
<pdfrwt beam="1">  1        2 0.17576386E+00 0.19458989E+03</pdfrwt>
<pdfrwt beam="2">  1       -2 0.52234813E-02 0.19458989E+03</pdfrwt>
<totfact> 0.39199583E+03</totfact>
</mgrwt>
</event>
<event>
 7    1  0.6387485E-006  0.1571726E+03  0.7546771E-02  0.1199804E+00
          1   -1    0    0  501    0  0.00000000000E+00  0.00000000000E+00  0.33607684847E+03  0.33607684847E+03  0.00000000000E+00 0. -1.
         -1   -1    0    0    0  501 -0.00000000000E+00 -0.00000000000E+00 -0.62332256867E+02  0.62332256867E+02  0.00000000000E+00 0.  1.
         23    2    1    2    0    0 -0.55182036049E+02  0.77677553068E+02  0.14982194154E+03  0.21714012892E+03  0.12499744825E+03 0.  0.
          5    1    3    3  502    0  0.41191698438E+01 -0.24422752756E+02  0.70363840732E+02  0.74743551528E+02  0.47000000000E+01 0.  1.
         -5    1    3    3    0  502 -0.59301205893E+02  0.10210030582E+03  0.79458100805E+02  0.14239657739E+03  0.47000000000E+01 0.  1.
        -11    1    1    2    0    0 -0.15550506476E+02 -0.21901319968E+02 -0.14407294068E+01  0.26899103502E+02  0.00000000000E+00 0.  1.
         11    1    1    2    0    0  0.70732542525E+02 -0.55776233100E+02  0.12536337947E+03  0.15436987291E+03  0.00000000000E+00 0. -1.
<mgrwt>
<rscale>  0 0.15054536E+03</rscale>
<asrwt>0</asrwt>
<pdfrwt beam="1">  1        1 0.51704130E-01 0.15717258E+03</pdfrwt>
<pdfrwt beam="2">  1       -1 0.95895781E-02 0.15717258E+03</pdfrwt>
<totfact> 0.47769856E+03</totfact>
</mgrwt>
</event>
<event>
 7    1  0.6387485E-006  0.1533975E+03  0.7546771E-02  0.1205156E+00
          2   -1    0    0  501    0  0.00000000000E+00  0.00000000000E+00  0.30755896372E+03  0.30755896372E+03  0.00000000000E+00 0. -1.
         -2   -1    0    0    0  501 -0.00000000000E+00 -0.00000000000E+00 -0.68575030652E+02  0.68575030652E+02  0.00000000000E+00 0.  1.
         23    2    1    2    0    0  0.75637174273E+02  0.46545959647E+02  0.80623954791E+02  0.17329456800E+03  0.12507308551E+03 0.  0.
          5    1    3    3  502    0  0.10014454216E+03  0.30910712074E+02  0.21283179571E+02  0.10704889153E+03  0.47000000000E+01 0.  1.
         -5    1    3    3    0  502 -0.24507367883E+02  0.15635247573E+02  0.59340775220E+02  0.66245676470E+02  0.47000000000E+01 0.  1.
        -11    1    1    2    0    0 -0.52939327456E+02  0.19716797395E+02  0.76631271590E+02  0.95203341730E+02  0.00000000000E+00 0. -1.
         11    1    1    2    0    0 -0.22697846817E+02 -0.66262757042E+02  0.81728706681E+02  0.10763608464E+03  0.00000000000E+00 0.  1.
<mgrwt>
<rscale>  0 0.14625205E+03</rscale>
<asrwt>0</asrwt>
<pdfrwt beam="1">  1        2 0.47316763E-01 0.15339747E+03</pdfrwt>
<pdfrwt beam="2">  1       -2 0.10550005E-01 0.15339747E+03</pdfrwt>
<totfact> 0.62352008E+03</totfact>
</mgrwt>
</event>
<event>
 7    1  0.6387485E-006  0.1869480E+03  0.7546771E-02  0.1166358E+00
         -1   -1    0    0    0  501 -0.00000000000E+00  0.00000000000E+00  0.64892413457E+02  0.64892413457E+02  0.00000000000E+00 0.  1.
          1   -1    0    0  501    0  0.00000000000E+00 -0.00000000000E+00 -0.64838156215E+03  0.64838156215E+03  0.00000000000E+00 0. -1.
         23    2    1    2    0    0  0.90860689891E+02  0.10521078620E+03 -0.12309169662E+03  0.22383282626E+03  0.12499837532E+03 0.  0.
          5    1    3    3  502    0  0.98467099427E+02  0.12843168105E+03 -0.10344429175E+03  0.19212828491E+03  0.47000000000E+01 0.  1.
         -5    1    3    3    0  502 -0.76064095361E+01 -0.23220894852E+02 -0.19647404871E+02  0.31704541345E+02  0.47000000000E+01 0.  1.
        -11    1    1    2    0    0 -0.10060071504E+03 -0.56678607758E+02 -0.29492052078E+03  0.31671924795E+03  0.00000000000E+00 0.  1.
         11    1    1    2    0    0  0.97400251485E+01 -0.48532178441E+02 -0.16547693130E+03  0.17272190141E+03  0.00000000000E+00 0. -1.
<mgrwt>
<rscale>  0 0.18150074E+03</rscale>
<asrwt>0</asrwt>
<pdfrwt beam="2">  1        1 0.99751009E-01 0.18694804E+03</pdfrwt>
<pdfrwt beam="1">  1       -1 0.99834483E-02 0.18694804E+03</pdfrwt>
<totfact> 0.19121056E+03</totfact>
</mgrwt>
</event>
<event>
 7    1  0.6387485E-006  0.1451007E+03  0.7546771E-02  0.1215454E+00
         -1   -1    0    0    0  501 -0.00000000000E+00  0.00000000000E+00  0.29424229821E+03  0.29424229821E+03  0.00000000000E+00 0.  1.
          1   -1    0    0  501    0  0.00000000000E+00 -0.00000000000E+00 -0.76784932194E+02  0.76784932194E+02  0.00000000000E+00 0. -1.
         23    2    1    2    0    0 -0.60186313715E+02  0.51865218790E+02  0.20361034047E+03  0.25002278643E+03  0.12141593680E+03 0.  0.
          5    1    3    3  502    0  0.11201262226E+02  0.54353084113E+02  0.15168971401E+03  0.16159079604E+03  0.47000000000E+01 0.  1.
         -5    1    3    3    0  502 -0.71387575940E+02 -0.24878653230E+01  0.51920626455E+02  0.88431990388E+02  0.47000000000E+01 0.  1.
        -11    1    1    2    0    0  0.49516944164E+02 -0.59127165090E+02  0.43584916187E+02  0.88586648711E+02  0.00000000000E+00 0.  1.
         11    1    1    2    0    0  0.10669369551E+02  0.72619462996E+01 -0.29737890634E+02  0.32417795268E+02  0.00000000000E+00 0. -1.
<mgrwt>
<rscale>  0 0.13843214E+03</rscale>
<asrwt>0</asrwt>
<pdfrwt beam="2">  1        1 0.11813067E-01 0.14510073E+03</pdfrwt>
<pdfrwt beam="1">  1       -1 0.45268045E-01 0.14510073E+03</pdfrwt>
<totfact> 0.24574851E+03</totfact>
</mgrwt>
</event>
<event>
 7    1  0.6387485E-006  0.1843692E+03  0.7546771E-02  0.1168622E+00
         -1   -1    0    0    0  501 -0.00000000000E+00  0.00000000000E+00  0.76890771997E+02  0.76890771997E+02  0.00000000000E+00 0.  1.
          1   -1    0    0  501    0  0.00000000000E+00 -0.00000000000E+00 -0.40584336412E+03  0.40584336412E+03  0.00000000000E+00 0. -1.
         23    2    1    2    0    0  0.47245688728E+02 -0.12702530299E+03 -0.21219755545E+03  0.28110458784E+03  0.12499761624E+03 0.  0.
          5    1    3    3  502    0  0.87525510180E+02 -0.67214203446E+02 -0.10952520799E+03  0.15555168036E+03  0.47000000000E+01 0.  1.
         -5    1    3    3    0  502 -0.40279821452E+02 -0.59811099545E+02 -0.10267234746E+03  0.12555290749E+03  0.47000000000E+01 0.  1.
        -11    1    1    2    0    0 -0.49051591039E+01  0.11936558387E+03 -0.71708605464E+02  0.13933530528E+03  0.00000000000E+00 0. -1.
         11    1    1    2    0    0 -0.42340529624E+02  0.76597191189E+01 -0.45046431209E+02  0.62294242996E+02  0.00000000000E+00 0.  1.
<mgrwt>
<rscale>  0 0.17915642E+03</rscale>
<asrwt>0</asrwt>
<pdfrwt beam="2">  1        1 0.62437442E-01 0.18436916E+03</pdfrwt>
<pdfrwt beam="1">  1       -1 0.11829349E-01 0.18436916E+03</pdfrwt>
<totfact> 0.27434442E+03</totfact>
</mgrwt>
</event>
<event>
 7    1  0.6387485E-006  0.1341989E+03  0.7546771E-02  0.1236920E+00
         -1   -1    0    0    0  501 -0.00000000000E+00  0.00000000000E+00  0.32384488875E+03  0.32384488875E+03  0.00000000000E+00 0.  1.
          1   -1    0    0  501    0  0.00000000000E+00 -0.00000000000E+00 -0.66522635402E+02  0.66522635402E+02  0.00000000000E+00 0. -1.
         23    2    1    2    0    0 -0.48817515603E+02  0.10398095734E+01  0.26051530198E+03  0.29304874603E+03  0.12500045581E+03 0.  0.
          5    1    3    3  502    0  0.29220743076E+01  0.21900627636E+02  0.22632558584E+03  0.22745007544E+03  0.47000000000E+01 0. -1.
         -5    1    3    3    0  502 -0.51739589911E+02 -0.20860818063E+02  0.34189716131E+02  0.65598670593E+02  0.47000000000E+01 0. -1.
        -11    1    1    2    0    0  0.34939566907E+02  0.23473828099E+02 -0.35063497486E+02  0.54783599711E+02  0.00000000000E+00 0. -1.
         11    1    1    2    0    0  0.13877948696E+02 -0.24513637673E+02  0.31870448861E+02  0.42535178412E+02  0.00000000000E+00 0.  1.
<mgrwt>
<rscale>  0 0.12382331E+03</rscale>
<asrwt>0</asrwt>
<pdfrwt beam="2">  1        1 0.10234252E-01 0.13419890E+03</pdfrwt>
<pdfrwt beam="1">  1       -1 0.49822290E-01 0.13419890E+03</pdfrwt>
<totfact> 0.24880658E+03</totfact>
</mgrwt>
</event>
<event>
 7    1  0.6387485E-006  0.1306421E+03  0.7546771E-02  0.1276933E+00
          4   -1    0    0  501    0  0.00000000000E+00  0.00000000000E+00  0.49334099004E+02  0.49334099004E+02  0.00000000000E+00 0. -1.
         -4   -1    0    0    0  501 -0.00000000000E+00 -0.00000000000E+00 -0.16390163985E+03  0.16390163985E+03  0.00000000000E+00 0.  1.
         23    2    1    2    0    0  0.52821321230E+01 -0.37609263403E+02 -0.95170289680E+02  0.16163146171E+03  0.12499995106E+03 0.  0.
          5    1    3    3  502    0 -0.57939622264E+02 -0.33497959978E+02 -0.50353131216E+02  0.83884688556E+02  0.47000000000E+01 0.  1.
         -5    1    3    3    0  502  0.63221754387E+02 -0.41113034248E+01 -0.44817158464E+02  0.77746773158E+02  0.47000000000E+01 0.  1.
        -11    1    1    2    0    0 -0.35861886138E+01  0.26997461509E+02  0.23610991367E+01  0.27336760339E+02  0.00000000000E+00 0. -1.
         11    1    1    2    0    0 -0.16959435092E+01  0.10611801894E+02 -0.21758350299E+02  0.24267516798E+02  0.00000000000E+00 0.  1.
<mgrwt>
<rscale>  0 0.10161657E+03</rscale>
<asrwt>0</asrwt>
<pdfrwt beam="1">  1        4 0.75898613E-02 0.13064205E+03</pdfrwt>
<pdfrwt beam="2">  1       -4 0.25215637E-01 0.13064205E+03</pdfrwt>
<totfact> 0.28875158E+03</totfact>
</mgrwt>
</event>
<event>
 7    1  0.6387485E-006  0.1230970E+03  0.7546771E-02  0.1247207E+00
          2   -1    0    0  501    0  0.00000000000E+00  0.00000000000E+00  0.17879729982E+03  0.17879729982E+03  0.00000000000E+00 0. -1.
         -2   -1    0    0    0  501 -0.00000000000E+00 -0.00000000000E+00 -0.94823509156E+02  0.94823509156E+02  0.00000000000E+00 0.  1.
         23    2    1    2    0    0 -0.14173683420E+02  0.48621956271E+02 -0.23386311515E+02  0.12529876490E+03  0.11219569058E+03 0.  0.
          5    1    3    3  502    0  0.19211103890E+02  0.56529204564E+02  0.25746546670E+02  0.65188895885E+02  0.47000000000E+01 0. -1.
         -5    1    3    3    0  502 -0.33384787310E+02 -0.79072482936E+01 -0.49132858184E+02  0.60109869012E+02  0.47000000000E+01 0.  1.
        -11    1    1    2    0    0  0.29066402088E+02  0.60474809114E+01  0.80137504649E+02  0.85460209496E+02  0.00000000000E+00 0.  1.
         11    1    1    2    0    0 -0.14892718668E+02 -0.54669437182E+02  0.27222597535E+02  0.62861834587E+02  0.00000000000E+00 0. -1.
<mgrwt>
<rscale>  0 0.11754268E+03</rscale>
<asrwt>0</asrwt>
<pdfrwt beam="1">  1        2 0.27507277E-01 0.12309696E+03</pdfrwt>
<pdfrwt beam="2">  1       -2 0.14588232E-01 0.12309696E+03</pdfrwt>
<totfact> 0.65367996E+03</totfact>
</mgrwt>
</event>
<event>
 7    1  0.6387485E-006  0.1703696E+03  0.7546771E-02  0.1183884E+00
          2   -1    0    0  501    0  0.00000000000E+00  0.00000000000E+00  0.27844985391E+03  0.27844985391E+03  0.00000000000E+00 0. -1.
         -2   -1    0    0    0  501 -0.00000000000E+00 -0.00000000000E+00 -0.93565264417E+02  0.93565264417E+02  0.00000000000E+00 0.  1.
         23    2    1    2    0    0 -0.75587068847E+02 -0.87675551620E+02  0.66507848068E+02  0.18289090002E+03  0.12500152050E+03 0.  0.
          5    1    3    3  502    0  0.28669038516E+02  0.16828129023E+01  0.27574646746E+02  0.40089858717E+02  0.47000000000E+01 0.  1.
         -5    1    3    3    0  502 -0.10425610736E+03 -0.89358364522E+02  0.38933201322E+02  0.14280104130E+03  0.47000000000E+01 0.  1.
        -11    1    1    2    0    0 -0.17405542507E+02  0.30810884461E+02  0.13539431374E+02  0.37889044765E+02  0.00000000000E+00 0. -1.
         11    1    1    2    0    0  0.92992611354E+02  0.56864667159E+02  0.10483731005E+03  0.15123517354E+03  0.00000000000E+00 0.  1.
<mgrwt>
<rscale>  0 0.16433826E+03</rscale>
<asrwt>0</asrwt>
<pdfrwt beam="1">  1        2 0.42838439E-01 0.17036956E+03</pdfrwt>
<pdfrwt beam="2">  1       -2 0.14394656E-01 0.17036956E+03</pdfrwt>
<totfact> 0.42300391E+03</totfact>
</mgrwt>
</event>
<event>
 7    1  0.6387485E-006  0.1367076E+03  0.7546771E-02  0.1230833E+00
          2   -1    0    0  501    0  0.00000000000E+00  0.00000000000E+00  0.75835586625E+03  0.75835586625E+03  0.00000000000E+00 0. -1.
         -2   -1    0    0    0  501 -0.00000000000E+00 -0.00000000000E+00 -0.20714512877E+02  0.20714512877E+02  0.00000000000E+00 0.  1.
         23    2    1    2    0    0 -0.17213342014E+02  0.52557178928E+02  0.30823202216E+03  0.33718830939E+03  0.12502167931E+03 0.  0.
          5    1    3    3  502    0  0.24831827014E+01  0.62282776695E+02  0.30845310680E+03  0.31472324281E+03  0.47000000000E+01 0.  1.
         -5    1    3    3    0  502 -0.19696524716E+02 -0.97255977674E+01 -0.22108463742E+00  0.22465066575E+02  0.47000000000E+01 0.  1.
        -11    1    1    2    0    0  0.53026873603E+01  0.23848847915E+02  0.67021391726E+02  0.71335495996E+02  0.00000000000E+00 0.  1.
         11    1    1    2    0    0  0.11910654654E+02 -0.76406026843E+02  0.36238793948E+03  0.37054657375E+03  0.00000000000E+00 0. -1.
<mgrwt>
<rscale>  0 0.12774980E+03</rscale>
<asrwt>0</asrwt>
<pdfrwt beam="1">  1        2 0.11667011E+00 0.13670763E+03</pdfrwt>
<pdfrwt beam="2">  1       -2 0.31868487E-02 0.13670763E+03</pdfrwt>
<totfact> 0.14014727E+04</totfact>
</mgrwt>
</event>
<event>
 7    1  0.6387485E-006  0.1602382E+03  0.7546771E-02  0.1196378E+00
          2   -1    0    0  501    0  0.00000000000E+00  0.00000000000E+00  0.50672957467E+03  0.50672957467E+03  0.00000000000E+00 0. -1.
         -2   -1    0    0    0  501 -0.00000000000E+00 -0.00000000000E+00 -0.50989840306E+02  0.50989840306E+02  0.00000000000E+00 0.  1.
         23    2    1    2    0    0  0.80051102829E+02  0.60349476362E+02  0.13362557913E+03  0.20864342363E+03  0.12500417778E+03 0.  0.
          5    1    3    3  502    0  0.11268994634E+03  0.34249554089E+02  0.10408049268E+03  0.15724787730E+03  0.47000000000E+01 0. -1.
         -5    1    3    3    0  502 -0.32638843507E+02  0.26099922273E+02  0.29545086454E+02  0.51395546322E+02  0.47000000000E+01 0. -1.
        -11    1    1    2    0    0 -0.94221469338E+02 -0.58422128164E+02  0.31315618065E+03  0.33220117974E+03  0.00000000000E+00 0.  1.
         11    1    1    2    0    0  0.14170366510E+02 -0.19273481982E+01  0.89579745800E+01  0.16874811604E+02  0.00000000000E+00 0. -1.
<mgrwt>
<rscale>  0 0.15338184E+03</rscale>
<asrwt>0</asrwt>
<pdfrwt beam="1">  1        2 0.77958393E-01 0.16023821E+03</pdfrwt>
<pdfrwt beam="2">  1       -2 0.78445912E-02 0.16023821E+03</pdfrwt>
<totfact> 0.58025319E+03</totfact>
</mgrwt>
</event>
<event>
 7    1  0.6387485E-006  0.1273490E+03  0.7546771E-02  0.1246601E+00
          2   -1    0    0  501    0  0.00000000000E+00  0.00000000000E+00  0.25372592154E+03  0.25372592154E+03  0.00000000000E+00 0. -1.
         -2   -1    0    0    0  501 -0.00000000000E+00 -0.00000000000E+00 -0.51102476976E+02  0.51102476976E+02  0.00000000000E+00 0.  1.
         23    2    1    2    0    0  0.39548994741E+01  0.24016977484E+02  0.79257279072E+02  0.14999826052E+03  0.12500122173E+03 0.  0.
          5    1    3    3  502    0  0.63617974275E+02  0.21460423190E+02  0.45464869687E+02  0.81221553729E+02  0.47000000000E+01 0.  1.
         -5    1    3    3    0  502 -0.59663074801E+02  0.25565542941E+01  0.33792409384E+02  0.68776706788E+02  0.47000000000E+01 0.  1.
        -11    1    1    2    0    0 -0.46854451623E+02 -0.98668305976E+01  0.71475075490E+02  0.86031275704E+02  0.00000000000E+00 0. -1.
         11    1    1    2    0    0  0.42899552149E+02 -0.14150146887E+02  0.51891090006E+02  0.68798862298E+02  0.00000000000E+00 0.  1.
<mgrwt>
<rscale>  0 0.11790092E+03</rscale>
<asrwt>0</asrwt>
<pdfrwt beam="1">  1        2 0.39034756E-01 0.12734898E+03</pdfrwt>
<pdfrwt beam="2">  1       -2 0.78619197E-02 0.12734898E+03</pdfrwt>
<totfact> 0.11945105E+04</totfact>
</mgrwt>
</event>
<event>
 7    1  0.6387485E-006  0.1319348E+03  0.7546771E-02  0.1237735E+00
         -2   -1    0    0    0  501 -0.00000000000E+00  0.00000000000E+00  0.15970437900E+03  0.15970437900E+03  0.00000000000E+00 0.  1.
          2   -1    0    0  501    0  0.00000000000E+00 -0.00000000000E+00 -0.84808588149E+02  0.84808588149E+02  0.00000000000E+00 0. -1.
         23    2    1    2    0    0  0.12774235908E+01 -0.42162996655E+02  0.38084490330E+02  0.13732163894E+03  0.12500981569E+03 0.  0.
          5    1    3    3  502    0  0.13805996817E+02 -0.26144557129E+02  0.82761450890E+02  0.88009608391E+02  0.47000000000E+01 0. -1.
         -5    1    3    3    0  502 -0.12528573227E+02 -0.16018439525E+02 -0.44676960560E+02  0.49312030548E+02  0.47000000000E+01 0. -1.
        -11    1    1    2    0    0 -0.24130704161E+02  0.23005762850E+02  0.60519093715E+02  0.69094983260E+02  0.00000000000E+00 0.  1.
         11    1    1    2    0    0  0.22853280570E+02  0.19157233805E+02 -0.23707793199E+02  0.38096344946E+02  0.00000000000E+00 0. -1.
<mgrwt>
<rscale>  0 0.12330967E+03</rscale>
<asrwt>0</asrwt>
<pdfrwt beam="2">  1        2 0.13047475E-01 0.13193485E+03</pdfrwt>
<pdfrwt beam="1">  1       -2 0.24569904E-01 0.13193485E+03</pdfrwt>
<totfact> 0.63931238E+03</totfact>
</mgrwt>
</event>
<event>
 7    1  0.6387485E-006  0.1447951E+03  0.7546771E-02  0.1217231E+00
          1   -1    0    0  501    0  0.00000000000E+00  0.00000000000E+00  0.69639078748E+03  0.69639078748E+03  0.00000000000E+00 0. -1.
         -1   -1    0    0    0  501 -0.00000000000E+00 -0.00000000000E+00 -0.24593370521E+02  0.24593370521E+02  0.00000000000E+00 0.  1.
         23    2    1    2    0    0 -0.69848991249E+02 -0.21227253278E+02  0.35170309351E+03  0.38034283811E+03  0.12504451472E+03 0.  0.
          5    1    3    3  502    0  0.26589568087E+02 -0.24313413756E+02  0.17718382188E+03  0.18087106997E+03  0.47000000000E+01 0. -1.
         -5    1    3    3    0  502 -0.96438559336E+02  0.30861604774E+01  0.17451927163E+03  0.19947176814E+03  0.47000000000E+01 0. -1.
        -11    1    1    2    0    0  0.70901407086E+01 -0.32069095127E+02  0.69549973730E+02  0.76914860745E+02  0.00000000000E+00 0.  1.
         11    1    1    2    0    0  0.62758850540E+02  0.53296348405E+02  0.25054434973E+03  0.26372645915E+03  0.00000000000E+00 0. -1.
<mgrwt>
<rscale>  0 0.13713942E+03</rscale>
<asrwt>0</asrwt>
<pdfrwt beam="1">  1        1 0.10713703E+00 0.14479506E+03</pdfrwt>
<pdfrwt beam="2">  1       -1 0.37835960E-02 0.14479506E+03</pdfrwt>
<totfact> 0.73354190E+03</totfact>
</mgrwt>
</event>
<event>
 7    1  0.6387485E-006  0.1376237E+03  0.7546771E-02  0.1228007E+00
         -2   -1    0    0    0  501 -0.00000000000E+00  0.00000000000E+00  0.62723617170E+02  0.62723617170E+02  0.00000000000E+00 0.  1.
          2   -1    0    0  501    0  0.00000000000E+00 -0.00000000000E+00 -0.24250422064E+03  0.24250422064E+03  0.00000000000E+00 0. -1.
         23    2    1    2    0    0 -0.33244314260E+02 -0.46999551355E+02 -0.89015637291E+02  0.16390261659E+03  0.12500456705E+03 0.  0.
          5    1    3    3  502    0 -0.12284386151E+02 -0.22826930704E+02  0.30376036519E+02  0.40209059962E+02  0.47000000000E+01 0.  1.
         -5    1    3    3    0  502 -0.20959928109E+02 -0.24172620651E+02 -0.11939167381E+03  0.12369355663E+03  0.47000000000E+01 0.  1.
        -11    1    1    2    0    0 -0.91155027772E+01  0.13473919002E+02 -0.85515730631E+02  0.87049291034E+02  0.00000000000E+00 0. -1.
         11    1    1    2    0    0  0.42359817037E+02  0.33525632353E+02 -0.52492355489E+01  0.54275930189E+02  0.00000000000E+00 0.  1.
<mgrwt>
<rscale>  0 0.12962930E+03</rscale>
<asrwt>0</asrwt>
<pdfrwt beam="2">  1        2 0.37308343E-01 0.13762370E+03</pdfrwt>
<pdfrwt beam="1">  1       -2 0.96497870E-02 0.13762370E+03</pdfrwt>
<totfact> 0.91734607E+03</totfact>
</mgrwt>
</event>
<event>
 7    1  0.6387485E-006  0.1378191E+03  0.7546771E-02  0.1227936E+00
         -1   -1    0    0    0  501 -0.00000000000E+00  0.00000000000E+00  0.32096260516E+02  0.32096260516E+02  0.00000000000E+00 0.  1.
          1   -1    0    0  501    0  0.00000000000E+00 -0.00000000000E+00 -0.49308898809E+03  0.49308898809E+03  0.00000000000E+00 0. -1.
         23    2    1    2    0    0  0.85068807836E+01  0.57410667347E+02 -0.20168356383E+03  0.24427519722E+03  0.12500304122E+03 0.  0.
          5    1    3    3  502    0 -0.25884743630E+02  0.85960836869E+02 -0.15689591396E+03  0.18082506255E+03  0.47000000000E+01 0. -1.
         -5    1    3    3    0  502  0.34391624413E+02 -0.28550169522E+02 -0.44787649864E+02  0.63450134672E+02  0.47000000000E+01 0. -1.
        -11    1    1    2    0    0 -0.24199958740E+02 -0.73757094841E+02 -0.14596036342E+03  0.16531840409E+03  0.00000000000E+00 0.  1.
         11    1    1    2    0    0  0.15693077956E+02  0.16346427494E+02 -0.11334880033E+03  0.11559164730E+03  0.00000000000E+00 0. -1.
<mgrwt>
<rscale>  0 0.12967681E+03</rscale>
<asrwt>0</asrwt>
<pdfrwt beam="2">  1        1 0.75859841E-01 0.13781913E+03</pdfrwt>
<pdfrwt beam="1">  1       -1 0.49378865E-02 0.13781913E+03</pdfrwt>
<totfact> 0.78959421E+03</totfact>
</mgrwt>
</event>
<event>
 7    1  0.6387485E-006  0.2115449E+03  0.7546771E-02  0.1144010E+00
         -3   -1    0    0    0  501 -0.00000000000E+00  0.00000000000E+00  0.40667353700E+02  0.40667353700E+02  0.00000000000E+00 0.  1.
          3   -1    0    0  501    0  0.00000000000E+00 -0.00000000000E+00 -0.10132724946E+04  0.10132724946E+04  0.00000000000E+00 0. -1.
         23    2    1    2    0    0 -0.13509927641E+03  0.10424229884E+03 -0.47634436414E+03  0.52120551297E+03  0.12503184453E+03 0.  0.
          5    1    3    3  502    0 -0.12355798402E+03  0.12295601200E+03 -0.46371625903E+03  0.49541862620E+03  0.47000000000E+01 0.  1.
         -5    1    3    3    0  502 -0.11541292398E+02 -0.18713713156E+02 -0.12628105107E+02  0.25786886762E+02  0.47000000000E+01 0.  1.
        -11    1    1    2    0    0  0.10130077834E+03 -0.36034276394E+02 -0.20253675392E+03  0.22930646187E+03  0.00000000000E+00 0.  1.
         11    1    1    2    0    0  0.33798498071E+02 -0.68208022448E+02 -0.29372402286E+03  0.30342787348E+03  0.00000000000E+00 0. -1.
<mgrwt>
<rscale>  0 0.20694303E+03</rscale>
<asrwt>0</asrwt>
<pdfrwt beam="2">  1        3 0.15588807E+00 0.21154487E+03</pdfrwt>
<pdfrwt beam="1">  1       -3 0.62565161E-02 0.21154487E+03</pdfrwt>
<totfact> 0.12190616E+02</totfact>
</mgrwt>
</event>
<event>
 7    1  0.6387485E-006  0.1619567E+03  0.7546771E-02  0.1193823E+00
          2   -1    0    0  501    0  0.00000000000E+00  0.00000000000E+00  0.46472886548E+03  0.46472886548E+03  0.00000000000E+00 0. -1.
         -2   -1    0    0    0  501 -0.00000000000E+00 -0.00000000000E+00 -0.51496071415E+02  0.51496071415E+02  0.00000000000E+00 0.  1.
         23    2    1    2    0    0 -0.64827081003E+02 -0.80012457088E+02  0.15846535874E+03  0.22658606443E+03  0.12500172380E+03 0.  0.
          5    1    3    3  502    0  0.31276974820E+01  0.18515692386E+02 -0.84647039306E+01  0.21127105071E+02  0.47000000000E+01 0.  1.
         -5    1    3    3    0  502 -0.67954778485E+02 -0.98528149474E+02  0.16693006267E+03  0.20545895936E+03  0.47000000000E+01 0.  1.
        -11    1    1    2    0    0  0.31072829925E+01  0.75087443368E+02  0.12488470902E+03  0.14575311285E+03  0.00000000000E+00 0.  1.
         11    1    1    2    0    0  0.61719798010E+02  0.49250137200E+01  0.12988272632E+03  0.14388575962E+03  0.00000000000E+00 0. -1.
<mgrwt>
<rscale>  0 0.15554223E+03</rscale>
<asrwt>0</asrwt>
<pdfrwt beam="1">  1        2 0.71496746E-01 0.16195671E+03</pdfrwt>
<pdfrwt beam="2">  1       -2 0.79224728E-02 0.16195671E+03</pdfrwt>
<totfact> 0.62885000E+03</totfact>
</mgrwt>
</event>
<event>
 7    1  0.6387485E-006  0.1279660E+03  0.7546771E-02  0.1244355E+00
          2   -1    0    0  501    0  0.00000000000E+00  0.00000000000E+00  0.28617555840E+03  0.28617555840E+03  0.00000000000E+00 0. -1.
         -2   -1    0    0    0  501 -0.00000000000E+00 -0.00000000000E+00 -0.71095213340E+02  0.71095213340E+02  0.00000000000E+00 0.  1.
         23    2    1    2    0    0  0.18800079147E+02  0.20024751601E+02  0.72863780859E+01  0.12817331595E+03  0.12498349476E+03 0.  0.
          5    1    3    3  502    0  0.15229481357E+02  0.32646551629E+02 -0.54132802091E+02  0.65193440605E+02  0.47000000000E+01 0.  1.
         -5    1    3    3    0  502  0.35705977898E+01 -0.12621800028E+02  0.61419180176E+02  0.62979875342E+02  0.47000000000E+01 0.  1.
        -11    1    1    2    0    0 -0.49108551561E+02 -0.32846528575E+02  0.97548031156E+02  0.11404456435E+03  0.00000000000E+00 0.  1.
         11    1    1    2    0    0  0.30308472413E+02  0.12821776974E+02  0.11024593582E+03  0.11505289144E+03  0.00000000000E+00 0. -1.
<mgrwt>
<rscale>  0 0.11924058E+03</rscale>
<asrwt>0</asrwt>
<pdfrwt beam="1">  1        2 0.44027008E-01 0.12796604E+03</pdfrwt>
<pdfrwt beam="2">  1       -2 0.10937725E-01 0.12796604E+03</pdfrwt>
<totfact> 0.62854706E+03</totfact>
</mgrwt>
</event>
<event>
 7    1  0.6387485E-006  0.1366741E+03  0.7546771E-02  0.1230824E+00
         -2   -1    0    0    0  501 -0.00000000000E+00  0.00000000000E+00  0.11607011898E+03  0.11607011898E+03  0.00000000000E+00 0.  1.
          2   -1    0    0  501    0  0.00000000000E+00 -0.00000000000E+00 -0.13838691458E+03  0.13838691458E+03  0.00000000000E+00 0. -1.
         23    2    1    2    0    0  0.54951948180E+02  0.53365118912E+01  0.26562222443E+02  0.13923132278E+03  0.12502645565E+03 0.  0.
          5    1    3    3  502    0 -0.21334252735E+02  0.45102980842E+02  0.14935273926E+02  0.52293227361E+02  0.47000000000E+01 0.  1.
         -5    1    3    3    0  502  0.76286200915E+02 -0.39766468950E+02  0.11626948517E+02  0.86938095416E+02  0.47000000000E+01 0.  1.
        -11    1    1    2    0    0  0.18961415064E+02 -0.28425747728E+01 -0.35103307660E+02  0.39998221227E+02  0.00000000000E+00 0. -1.
         11    1    1    2    0    0 -0.73913363244E+02 -0.24939371184E+01 -0.13775710385E+02  0.75227489557E+02  0.00000000000E+00 0.  1.
<mgrwt>
<rscale>  0 0.12775627E+03</rscale>
<asrwt>0</asrwt>
<pdfrwt beam="2">  1        2 0.21290294E-01 0.13667410E+03</pdfrwt>
<pdfrwt beam="1">  1       -2 0.17856942E-01 0.13667410E+03</pdfrwt>
<totfact> 0.62669149E+03</totfact>
</mgrwt>
</event>
<event>
 7    1  0.6387485E-006  0.1890038E+03  0.7546771E-02  0.1164254E+00
         -1   -1    0    0    0  501 -0.00000000000E+00  0.00000000000E+00  0.63813581089E+02  0.63813581089E+02  0.00000000000E+00 0.  1.
          1   -1    0    0  501    0  0.00000000000E+00 -0.00000000000E+00 -0.50325658386E+03  0.50325658386E+03  0.00000000000E+00 0. -1.
         23    2    1    2    0    0  0.12780425240E+03  0.61460579169E+02 -0.21465455431E+03  0.28600524479E+03  0.12494435818E+03 0.  0.
          5    1    3    3  502    0  0.71122718342E+02 -0.10416236125E+02 -0.26575550152E+02  0.76780784739E+02  0.47000000000E+01 0.  1.
         -5    1    3    3    0  502  0.56681534056E+02  0.71876815295E+02 -0.18807900416E+03  0.20922446005E+03  0.47000000000E+01 0.  1.
        -11    1    1    2    0    0 -0.64514814046E+02  0.16878355969E+02 -0.10713855522E+03  0.12619710831E+03  0.00000000000E+00 0.  1.
         11    1    1    2    0    0 -0.63289438351E+02 -0.78338935139E+02 -0.11764989324E+03  0.15486781184E+03  0.00000000000E+00 0. -1.
<mgrwt>
<rscale>  0 0.18371591E+03</rscale>
<asrwt>0</asrwt>
<pdfrwt beam="2">  1        1 0.77424088E-01 0.18900376E+03</pdfrwt>
<pdfrwt beam="1">  1       -1 0.98174742E-02 0.18900376E+03</pdfrwt>
<totfact> 0.27709599E+03</totfact>
</mgrwt>
</event>
<event>
 7    1  0.6387485E-006  0.1378705E+03  0.7546771E-02  0.1228545E+00
          3   -1    0    0  501    0  0.00000000000E+00  0.00000000000E+00  0.39323327144E+02  0.39323327144E+02  0.00000000000E+00 0. -1.
         -3   -1    0    0    0  501 -0.00000000000E+00 -0.00000000000E+00 -0.43082299347E+03  0.43082299347E+03  0.00000000000E+00 0.  1.
         23    2    1    2    0    0 -0.49024283284E+02 -0.31243065307E+02 -0.29816004919E+03  0.32849306155E+03  0.12501506739E+03 0.  0.
          5    1    3    3  502    0 -0.55747216305E+02 -0.21469004512E+02 -0.30711364674E+03  0.31290502120E+03  0.47000000000E+01 0. -1.
         -5    1    3    3    0  502  0.67229330209E+01 -0.97740607945E+01  0.89535975502E+01  0.15588040349E+02  0.47000000000E+01 0. -1.
        -11    1    1    2    0    0 -0.25522016946E+02  0.19006741429E+00 -0.18199272145E+02  0.31346817721E+02  0.00000000000E+00 0. -1.
         11    1    1    2    0    0  0.74546300231E+02  0.31052997893E+02 -0.75140344997E+02  0.11030644135E+03  0.00000000000E+00 0.  1.
<mgrwt>
<rscale>  0 0.12926891E+03</rscale>
<asrwt>0</asrwt>
<pdfrwt beam="1">  1        3 0.60497427E-02 0.13787051E+03</pdfrwt>
<pdfrwt beam="2">  1       -3 0.66280460E-01 0.13787051E+03</pdfrwt>
<totfact> 0.86890599E+02</totfact>
</mgrwt>
</event>
<event>
 7    1  0.6387485E-006  0.1307404E+03  0.7546771E-02  0.1239722E+00
          3   -1    0    0  501    0  0.00000000000E+00  0.00000000000E+00  0.58516896287E+02  0.58516896287E+02  0.00000000000E+00 0. -1.
         -3   -1    0    0    0  501 -0.00000000000E+00 -0.00000000000E+00 -0.24869997247E+03  0.24869997247E+03  0.00000000000E+00 0.  1.
         23    2    1    2    0    0 -0.17396473336E+02 -0.34143053028E+02 -0.15270615837E+03  0.20102790661E+03  0.12499865229E+03 0.  0.
          5    1    3    3  502    0 -0.18641563581E+02  0.42001644862E+02 -0.94071502101E+02  0.10480068498E+03  0.47000000000E+01 0.  1.
         -5    1    3    3    0  502  0.12450902448E+01 -0.76144697890E+02 -0.58634656274E+02  0.96227221631E+02  0.47000000000E+01 0.  1.
        -11    1    1    2    0    0  0.28982512582E+02  0.69340313871E+01 -0.61335426463E+02  0.68191651734E+02  0.00000000000E+00 0.  1.
         11    1    1    2    0    0 -0.11586039246E+02  0.27209021641E+02  0.23858508651E+02  0.37997310420E+02  0.00000000000E+00 0. -1.
<mgrwt>
<rscale>  0 0.12206907E+03</rscale>
<asrwt>0</asrwt>
<pdfrwt beam="1">  1        3 0.90025993E-02 0.13074039E+03</pdfrwt>
<pdfrwt beam="2">  1       -3 0.38261535E-01 0.13074039E+03</pdfrwt>
<totfact> 0.13589868E+03</totfact>
</mgrwt>
</event>
<event>
 7    1  0.6387485E-006  0.1507134E+03  0.7546771E-02  0.1209134E+00
         -2   -1    0    0    0  501 -0.00000000000E+00  0.00000000000E+00  0.69264013418E+02  0.69264013418E+02  0.00000000000E+00 0.  1.
          2   -1    0    0  501    0  0.00000000000E+00 -0.00000000000E+00 -0.27139254229E+03  0.27139254229E+03  0.00000000000E+00 0. -1.
         23    2    1    2    0    0 -0.52254431222E+02  0.66020421400E+02 -0.12418771040E+03  0.19528727873E+03  0.12500124878E+03 0.  0.
          5    1    3    3  502    0 -0.39223361365E+02  0.95397008776E+01 -0.13060299564E+03  0.13677978812E+03  0.47000000000E+01 0. -1.
         -5    1    3    3    0  502 -0.13031069857E+02  0.56480720522E+02  0.64152852399E+01  0.58507490606E+02  0.47000000000E+01 0. -1.
        -11    1    1    2    0    0  0.70603807784E+02 -0.20580660941E+02 -0.43097169378E+02  0.85239822189E+02  0.00000000000E+00 0.  1.
         11    1    1    2    0    0 -0.18349376561E+02 -0.45439760458E+02 -0.34843649091E+02  0.60129454785E+02  0.00000000000E+00 0. -1.
<mgrwt>
<rscale>  0 0.14316369E+03</rscale>
<asrwt>0</asrwt>
<pdfrwt beam="2">  1        2 0.41752699E-01 0.15071342E+03</pdfrwt>
<pdfrwt beam="1">  1       -2 0.10656002E-01 0.15071342E+03</pdfrwt>
<totfact> 0.70030127E+03</totfact>
</mgrwt>
</event>
<event>
 7    1  0.6387485E-006  0.1906369E+03  0.7546771E-02  0.1162637E+00
         -2   -1    0    0    0  501 -0.00000000000E+00  0.00000000000E+00  0.73404321142E+02  0.73404321142E+02  0.00000000000E+00 0.  1.
          2   -1    0    0  501    0  0.00000000000E+00 -0.00000000000E+00 -0.45494102836E+03  0.45494102836E+03  0.00000000000E+00 0. -1.
         23    2    1    2    0    0 -0.10579401300E+03  0.97607046389E+02 -0.24071032234E+03  0.30705683146E+03  0.12499171883E+03 0.  0.
          5    1    3    3  502    0 -0.71710599330E+02  0.12211722545E+03 -0.14651564449E+03  0.20382333254E+03  0.47000000000E+01 0.  1.
         -5    1    3    3    0  502 -0.34083413665E+02 -0.24510179056E+02 -0.94194677854E+02  0.10323349893E+03  0.47000000000E+01 0.  1.
        -11    1    1    2    0    0  0.23229750347E+02 -0.44386355838E+01  0.10039505008E+02  0.25692692498E+02  0.00000000000E+00 0.  1.
         11    1    1    2    0    0  0.82564262649E+02 -0.93168410805E+02 -0.15086588988E+03  0.19559582554E+03  0.00000000000E+00 0. -1.
<mgrwt>
<rscale>  0 0.18544282E+03</rscale>
<asrwt>0</asrwt>
<pdfrwt beam="2">  1        2 0.69990929E-01 0.19063693E+03</pdfrwt>
<pdfrwt beam="1">  1       -2 0.11292972E-01 0.19063693E+03</pdfrwt>
<totfact> 0.37120435E+03</totfact>
</mgrwt>
</event>
<event>
 7    1  0.6387485E-006  0.1260881E+03  0.7546771E-02  0.1248461E+00
         -1   -1    0    0    0  501 -0.00000000000E+00  0.00000000000E+00  0.47571235825E+03  0.47571235825E+03  0.00000000000E+00 0.  1.
          1   -1    0    0  501    0  0.00000000000E+00 -0.00000000000E+00 -0.34330342931E+02  0.34330342931E+02  0.00000000000E+00 0. -1.
         23    2    1    2    0    0  0.11540981145E+02  0.11813838330E+02  0.37571519830E+03  0.39630812454E+03  0.12500183327E+03 0.  0.
          5    1    3    3  502    0 -0.53622780272E+02  0.25109709163E+02  0.18045636324E+03  0.18998023343E+03  0.47000000000E+01 0.  1.
         -5    1    3    3    0  502  0.65163761417E+02 -0.13295870833E+02  0.19525883506E+03  0.20632789112E+03  0.47000000000E+01 0.  1.
        -11    1    1    2    0    0  0.29113108360E+02 -0.18715866042E+02  0.63647883841E+02  0.72449360504E+02  0.00000000000E+00 0.  1.
         11    1    1    2    0    0 -0.40654089505E+02  0.69020277114E+01  0.20189331743E+01  0.41285216133E+02  0.00000000000E+00 0. -1.
<mgrwt>
<rscale>  0 0.11680613E+03</rscale>
<asrwt>0</asrwt>
<pdfrwt beam="2">  1        1 0.52815916E-02 0.12608814E+03</pdfrwt>
<pdfrwt beam="1">  1       -1 0.73186512E-01 0.12608814E+03</pdfrwt>
<totfact> 0.29023329E+03</totfact>
</mgrwt>
</event>
<event>
 7    1  0.6387485E-006  0.2061019E+03  0.7546771E-02  0.1148642E+00
         -1   -1    0    0    0  501 -0.00000000000E+00  0.00000000000E+00  0.25811763134E+03  0.25811763134E+03  0.00000000000E+00 0.  1.
          1   -1    0    0  501    0  0.00000000000E+00 -0.00000000000E+00 -0.16701730038E+03  0.16701730038E+03  0.00000000000E+00 0. -1.
         23    2    1    2    0    0  0.73696302780E+02 -0.14636448091E+03  0.11504585695E+03  0.23603712452E+03  0.12499707451E+03 0.  0.
          5    1    3    3  502    0 -0.12079431239E+02  0.36181029879E+01  0.49315662819E+02  0.51118762970E+02  0.47000000000E+01 0. -1.
         -5    1    3    3    0  502  0.85775734019E+02 -0.14998258390E+03  0.65730194134E+02  0.18491836155E+03  0.47000000000E+01 0. -1.
        -11    1    1    2    0    0 -0.41373016103E+02  0.12174135170E+03  0.19000113750E+02  0.12997571888E+03  0.00000000000E+00 0.  1.
         11    1    1    2    0    0 -0.32323286676E+02  0.24623129207E+02 -0.42945639745E+02  0.59122088314E+02  0.00000000000E+00 0. -1.
<mgrwt>
<rscale>  0 0.20130543E+03</rscale>
<asrwt>0</asrwt>
<pdfrwt beam="2">  1        1 0.25694969E-01 0.20610186E+03</pdfrwt>
<pdfrwt beam="1">  1       -1 0.39710405E-01 0.20610186E+03</pdfrwt>
<totfact> 0.11501763E+03</totfact>
</mgrwt>
</event>
<event>
 7    1  0.6387485E-006  0.1459048E+03  0.7546771E-02  0.1215573E+00
         -1   -1    0    0    0  501 -0.00000000000E+00  0.00000000000E+00  0.61681197395E+02  0.61681197395E+02  0.00000000000E+00 0.  1.
          1   -1    0    0  501    0  0.00000000000E+00 -0.00000000000E+00 -0.28591430738E+03  0.28591430738E+03  0.00000000000E+00 0. -1.
         23    2    1    2    0    0 -0.64710741217E+02  0.38413300748E+02 -0.14368199799E+03  0.20477485614E+03  0.12500065382E+03 0.  0.
          5    1    3    3  502    0 -0.74538021183E+02  0.66649065301E+02 -0.62193635351E+02  0.11784800713E+03  0.47000000000E+01 0.  1.
         -5    1    3    3    0  502  0.98272799653E+01 -0.28235764553E+02 -0.81488362644E+02  0.86926849004E+02  0.47000000000E+01 0.  1.
        -11    1    1    2    0    0  0.99345667444E+01 -0.26984127738E+02  0.14741955384E+02  0.32313526807E+02  0.00000000000E+00 0.  1.
         11    1    1    2    0    0  0.54776174473E+02 -0.11429173010E+02 -0.95293067379E+02  0.11050712183E+03  0.00000000000E+00 0. -1.
<mgrwt>
<rscale>  0 0.13834558E+03</rscale>
<asrwt>0</asrwt>
<pdfrwt beam="2">  1        1 0.43986817E-01 0.14590485E+03</pdfrwt>
<pdfrwt beam="1">  1       -1 0.94894150E-02 0.14590485E+03</pdfrwt>
<totfact> 0.59102628E+03</totfact>
</mgrwt>
</event>
<event>
 7    1  0.6387485E-006  0.1305163E+03  0.7546771E-02  0.1240056E+00
         -3   -1    0    0    0  501 -0.00000000000E+00  0.00000000000E+00  0.60688266873E+02  0.60688266873E+02  0.00000000000E+00 0. -1.
          3   -1    0    0  501    0  0.00000000000E+00 -0.00000000000E+00 -0.22677050544E+03  0.22677050544E+03  0.00000000000E+00 0.  1.
         23    2    1    2    0    0  0.34480456961E+02 -0.14865332240E+02 -0.64887019652E+02  0.14575609490E+03  0.12499853546E+03 0.  0.
          5    1    3    3  502    0 -0.13081886373E+02 -0.60448193070E+02 -0.17430655557E+02  0.64428546078E+02  0.47000000000E+01 0.  1.
         -5    1    3    3    0  502  0.47562343334E+02  0.45582860830E+02 -0.47456364094E+02  0.81327548825E+02  0.47000000000E+01 0.  1.
        -11    1    1    2    0    0 -0.40250552195E+02  0.38494457457E+02 -0.10322816324E+03  0.11729443249E+03  0.00000000000E+00 0.  1.
         11    1    1    2    0    0  0.57700952344E+01 -0.23629125217E+02  0.20329443250E+01  0.24408244922E+02  0.00000000000E+00 0. -1.
<mgrwt>
<rscale>  0 0.12186206E+03</rscale>
<asrwt>0</asrwt>
<pdfrwt beam="2">  1        3 0.34887770E-01 0.13051634E+03</pdfrwt>
<pdfrwt beam="1">  1       -3 0.93366566E-02 0.13051634E+03</pdfrwt>
<totfact> 0.15252775E+03</totfact>
</mgrwt>
</event>
<event>
 7    1  0.6387485E-006  0.1435336E+03  0.7546771E-02  0.1218930E+00
          2   -1    0    0  501    0  0.00000000000E+00  0.00000000000E+00  0.57402574337E+03  0.57402574337E+03  0.00000000000E+00 0. -1.
         -2   -1    0    0    0  501 -0.00000000000E+00 -0.00000000000E+00 -0.39016405971E+02  0.39016405971E+02  0.00000000000E+00 0.  1.
         23    2    1    2    0    0 -0.59391112580E+02 -0.38037527399E+02  0.13619890006E+03  0.19786871608E+03  0.12501092225E+03 0.  0.
          5    1    3    3  502    0 -0.39431550229E+01 -0.97558636838E+01  0.13494357600E+03  0.13543479631E+03  0.47000000000E+01 0. -1.
         -5    1    3    3    0  502 -0.55447957557E+02 -0.28281663715E+02  0.12553240617E+01  0.62433919773E+02  0.47000000000E+01 0. -1.
        -11    1    1    2    0    0 -0.13467586184E+01  0.49878781778E+02  0.12797081696E+03  0.13735441975E+03  0.00000000000E+00 0.  1.
         11    1    1    2    0    0  0.60737871198E+02 -0.11841254379E+02  0.27083962038E+03  0.27781901351E+03  0.00000000000E+00 0. -1.
<mgrwt>
<rscale>  0 0.13591737E+03</rscale>
<asrwt>0</asrwt>
<pdfrwt beam="1">  1        2 0.88311647E-01 0.14353358E+03</pdfrwt>
<pdfrwt beam="2">  1       -2 0.60025244E-02 0.14353358E+03</pdfrwt>
<totfact> 0.75621503E+03</totfact>
</mgrwt>
</event>
<event>
 7    1  0.6387485E-006  0.1197471E+03  0.7546771E-02  0.1255293E+00
          1   -1    0    0  501    0  0.00000000000E+00  0.00000000000E+00  0.24960995094E+03  0.24960995094E+03  0.00000000000E+00 0. -1.
         -1   -1    0    0    0  501 -0.00000000000E+00 -0.00000000000E+00 -0.61138680227E+02  0.61138680227E+02  0.00000000000E+00 0.  1.
         23    2    1    2    0    0  0.38813820773E+02 -0.10924911061E+02  0.25697576732E+02  0.12247341745E+03  0.11275418470E+03 0.  0.
          5    1    3    3  502    0  0.57864899152E+02 -0.12120834258E+02  0.59092773678E+02  0.83721604607E+02  0.47000000000E+01 0. -1.
         -5    1    3    3    0  502 -0.19051078379E+02  0.11959231972E+01 -0.33395196946E+02  0.38751812845E+02  0.47000000000E+01 0.  1.
        -11    1    1    2    0    0  0.77583961606E+01  0.38796762129E+02  0.80724652692E+02  0.89899115762E+02  0.00000000000E+00 0. -1.
         11    1    1    2    0    0 -0.46572216933E+02 -0.27871851068E+02  0.82049041294E+02  0.98376097957E+02  0.00000000000E+00 0.  1.
<mgrwt>
<rscale>  0 0.11289911E+03</rscale>
<asrwt>0</asrwt>
<pdfrwt beam="1">  1        1 0.38401530E-01 0.11974712E+03</pdfrwt>
<pdfrwt beam="2">  1       -1 0.94059510E-02 0.11974712E+03</pdfrwt>
<totfact> 0.69925196E+03</totfact>
</mgrwt>
</event>
<event>
 7    1  0.6387485E-006  0.1306283E+03  0.7546771E-02  0.1240741E+00
         -2   -1    0    0    0  501 -0.00000000000E+00  0.00000000000E+00  0.39900307963E+02  0.39900307963E+02  0.00000000000E+00 0.  1.
          2   -1    0    0  501    0  0.00000000000E+00 -0.00000000000E+00 -0.38756966152E+03  0.38756966152E+03  0.00000000000E+00 0. -1.
         23    2    1    2    0    0  0.12705438998E+02  0.35689909543E+02 -0.11079548960E+03  0.17128746461E+03  0.12501422796E+03 0.  0.
          5    1    3    3  502    0 -0.53085429377E+02  0.15345390447E+02 -0.24096482100E+02  0.60467133797E+02  0.47000000000E+01 0. -1.
         -5    1    3    3    0  502  0.65790868375E+02  0.20344519096E+02 -0.86699007502E+02  0.11082033081E+03  0.47000000000E+01 0. -1.
        -11    1    1    2    0    0 -0.17802085815E+02  0.20425892184E+02 -0.24732453172E+02  0.36685495373E+02  0.00000000000E+00 0.  1.
         11    1    1    2    0    0  0.50966468170E+01 -0.56115801726E+02 -0.21214141079E+03  0.21949700951E+03  0.00000000000E+00 0. -1.
<mgrwt>
<rscale>  0 0.12143923E+03</rscale>
<asrwt>0</asrwt>
<pdfrwt beam="2">  1        2 0.59626102E-01 0.13062831E+03</pdfrwt>
<pdfrwt beam="1">  1       -2 0.61385089E-02 0.13062831E+03</pdfrwt>
<totfact> 0.11151451E+04</totfact>
</mgrwt>
</event>
<event>
 7    1  0.6387485E-006  0.2232374E+03  0.7546771E-02  0.1134438E+00
          1   -1    0    0  501    0  0.00000000000E+00  0.00000000000E+00  0.20324763598E+03  0.20324763598E+03  0.00000000000E+00 0. -1.
         -1   -1    0    0    0  501 -0.00000000000E+00 -0.00000000000E+00 -0.27283044945E+03  0.27283044945E+03  0.00000000000E+00 0.  1.
         23    2    1    2    0    0  0.29864233360E+02 -0.18252644231E+03 -0.13178024475E+03  0.25923151870E+03  0.12500869091E+03 0.  0.
          5    1    3    3  502    0 -0.87008284771E+01 -0.40772043356E+00 -0.58150619249E+02  0.58986906778E+02  0.47000000000E+01 0. -1.
         -5    1    3    3    0  502  0.38565061837E+02 -0.18211872188E+03 -0.73629625505E+02  0.20024461192E+03  0.47000000000E+01 0. -1.
        -11    1    1    2    0    0 -0.21251351121E+02  0.19171254214E+03  0.49880462329E+02  0.19923197349E+03  0.00000000000E+00 0.  1.
         11    1    1    2    0    0 -0.86128822389E+01 -0.91860998314E+01  0.12316968962E+02  0.17614593239E+02  0.00000000000E+00 0. -1.
<mgrwt>
<rscale>  0 0.21925665E+03</rscale>
<asrwt>0</asrwt>
<pdfrwt beam="1">  1        1 0.31268867E-01 0.22323742E+03</pdfrwt>
<pdfrwt beam="2">  1       -1 0.41973915E-01 0.22323742E+03</pdfrwt>
<totfact> 0.81401278E+02</totfact>
</mgrwt>
</event>
<event>
 7    1  0.6387485E-006  0.2345424E+03  0.7546771E-02  0.1126423E+00
         -2   -1    0    0    0  501 -0.00000000000E+00  0.00000000000E+00  0.44693811447E+02  0.44693811447E+02  0.00000000000E+00 0.  1.
          2   -1    0    0  501    0  0.00000000000E+00 -0.00000000000E+00 -0.11492307962E+04  0.11492307962E+04  0.00000000000E+00 0. -1.
         23    2    1    2    0    0  0.19782129378E+03 -0.15880565381E+02 -0.53993050854E+03  0.58867232774E+03  0.12499879506E+03 0.  0.
          5    1    3    3  502    0  0.14375816681E+03 -0.50776927863E+02 -0.46709632692E+03  0.49137132145E+03  0.47000000000E+01 0. -1.
         -5    1    3    3    0  502  0.54063126968E+02  0.34896362482E+02 -0.72834181625E+02  0.97301006290E+02  0.47000000000E+01 0. -1.
        -11    1    1    2    0    0 -0.13222363889E+03  0.40670990275E+02 -0.28239309444E+03  0.31445680135E+03  0.00000000000E+00 0.  1.
         11    1    1    2    0    0 -0.65597654885E+02 -0.24790424893E+02 -0.28221338180E+03  0.29079547858E+03  0.00000000000E+00 0. -1.
<mgrwt>
<rscale>  0 0.23030837E+03</rscale>
<asrwt>0</asrwt>
<pdfrwt beam="2">  1        2 0.17680470E+00 0.23454244E+03</pdfrwt>
<pdfrwt beam="1">  1       -2 0.68759723E-02 0.23454244E+03</pdfrwt>
<totfact> 0.25563155E+03</totfact>
</mgrwt>
</event>
<event>
 7    1  0.6387485E-006  0.1570832E+03  0.7546771E-02  0.1200173E+00
         -3   -1    0    0    0  501 -0.00000000000E+00  0.00000000000E+00  0.38713524219E+03  0.38713524219E+03  0.00000000000E+00 0.  1.
          3   -1    0    0  501    0  0.00000000000E+00 -0.00000000000E+00 -0.55151842366E+02  0.55151842366E+02  0.00000000000E+00 0. -1.
         23    2    1    2    0    0 -0.66968135050E+02 -0.67546028518E+02  0.14543666874E+03  0.21407234813E+03  0.12501179360E+03 0.  0.
          5    1    3    3  502    0 -0.12383571434E+02 -0.91294427869E+02  0.11380896455E+03  0.14650118025E+03  0.47000000000E+01 0. -1.
         -5    1    3    3    0  502 -0.54584563616E+02  0.23748399351E+02  0.31627704191E+02  0.67571167884E+02  0.47000000000E+01 0. -1.
        -11    1    1    2    0    0  0.11017492954E+02 -0.20508197113E+02  0.59055184021E+02  0.63478232959E+02  0.00000000000E+00 0.  1.
         11    1    1    2    0    0  0.55950642096E+02  0.88054225631E+02  0.12749154706E+03  0.16473650347E+03  0.00000000000E+00 0. -1.
<mgrwt>
<rscale>  0 0.15024414E+03</rscale>
<asrwt>0</asrwt>
<pdfrwt beam="2">  1        3 0.84848991E-02 0.15708324E+03</pdfrwt>
<pdfrwt beam="1">  1       -3 0.59559266E-01 0.15708324E+03</pdfrwt>
<totfact> 0.64003422E+02</totfact>
</mgrwt>
</event>
<event>
 7    1  0.6387485E-006  0.1315562E+03  0.7546771E-02  0.1238851E+00
         -1   -1    0    0    0  501 -0.00000000000E+00  0.00000000000E+00  0.39170479009E+02  0.39170479009E+02  0.00000000000E+00 0.  1.
          1   -1    0    0  501    0  0.00000000000E+00 -0.00000000000E+00 -0.34452337870E+03  0.34452337870E+03  0.00000000000E+00 0. -1.
         23    2    1    2    0    0  0.95790520906E+01  0.39891899232E+02 -0.15206907632E+03  0.20107716687E+03  0.12499560473E+03 0.  0.
          5    1    3    3  502    0  0.49009624809E+02  0.43810865613E+01 -0.11495462767E+02  0.50748132060E+02  0.47000000000E+01 0.  1.
         -5    1    3    3    0  502 -0.39430572719E+02  0.35510812671E+02 -0.14057361355E+03  0.15032903481E+03  0.47000000000E+01 0.  1.
        -11    1    1    2    0    0  0.25273898709E+02 -0.41916340508E+01 -0.11985075569E+03  0.12255832649E+03  0.00000000000E+00 0. -1.
         11    1    1    2    0    0 -0.34852950799E+02 -0.35700265181E+02 -0.33433067686E+02  0.60058364349E+02  0.00000000000E+00 0.  1.
<mgrwt>
<rscale>  0 0.12261089E+03</rscale>
<asrwt>0</asrwt>
<pdfrwt beam="2">  1        1 0.53003595E-01 0.13155616E+03</pdfrwt>
<pdfrwt beam="1">  1       -1 0.60262278E-02 0.13155616E+03</pdfrwt>
<totfact> 0.92269260E+03</totfact>
</mgrwt>
</event>
<event>
 7    1  0.6387485E-006  0.1489579E+03  0.7546771E-02  0.1211344E+00
         -1   -1    0    0    0  501 -0.00000000000E+00  0.00000000000E+00  0.17272021081E+03  0.17272021081E+03  0.00000000000E+00 0.  1.
          1   -1    0    0  501    0  0.00000000000E+00 -0.00000000000E+00 -0.10993381158E+03  0.10993381158E+03  0.00000000000E+00 0. -1.
         23    2    1    2    0    0 -0.64864935353E+02  0.48537211853E+02  0.68138348130E+01  0.14911370028E+03  0.12500058598E+03 0.  0.
          5    1    3    3  502    0 -0.72765872997E+02  0.83007027715E+02 -0.73501432738E+01  0.11073009315E+03  0.47000000000E+01 0. -1.
         -5    1    3    3    0  502  0.79009376443E+01 -0.34469815862E+02  0.14163978087E+02  0.38383607132E+02  0.47000000000E+01 0. -1.
        -11    1    1    2    0    0 -0.14787361385E+01 -0.31101888869E+02  0.56984409273E+02  0.64936407754E+02  0.00000000000E+00 0.  1.
         11    1    1    2    0    0  0.66343671491E+02 -0.17435322984E+02 -0.10118448577E+01  0.68603914353E+02  0.00000000000E+00 0. -1.
<mgrwt>
<rscale>  0 0.14148576E+03</rscale>
<asrwt>0</asrwt>
<pdfrwt beam="2">  1        1 0.16912894E-01 0.14895794E+03</pdfrwt>
<pdfrwt beam="1">  1       -1 0.26572340E-01 0.14895794E+03</pdfrwt>
<totfact> 0.38560322E+03</totfact>
</mgrwt>
</event>
<event>
 7    1  0.6387485E-006  0.1860350E+03  0.7546771E-02  0.1167625E+00
         -2   -1    0    0    0  501 -0.00000000000E+00  0.00000000000E+00  0.12568688874E+03  0.12568688874E+03  0.00000000000E+00 0.  1.
          2   -1    0    0  501    0  0.00000000000E+00 -0.00000000000E+00 -0.45998659879E+03  0.45998659879E+03  0.00000000000E+00 0. -1.
         23    2    1    2    0    0  0.70382672424E+02  0.11844980969E+03  0.27973235332E+02  0.18812634524E+03  0.12499976754E+03 0.  0.
          5    1    3    3  502    0  0.10568398737E+03  0.91302060769E+02  0.31368725454E+02  0.14321752136E+03  0.47000000000E+01 0.  1.
         -5    1    3    3    0  502 -0.35301314951E+02  0.27147748921E+02 -0.33954901219E+01  0.44908823876E+02  0.47000000000E+01 0.  1.
        -11    1    1    2    0    0 -0.10918661980E+01 -0.45243101276E+02 -0.21078260957E+03  0.21558626784E+03  0.00000000000E+00 0. -1.
         11    1    1    2    0    0 -0.69290806226E+02 -0.73206708414E+02 -0.15149033582E+03  0.18196087445E+03  0.00000000000E+00 0.  1.
<mgrwt>
<rscale>  0 0.18018431E+03</rscale>
<asrwt>0</asrwt>
<pdfrwt beam="2">  1        2 0.70767169E-01 0.18603500E+03</pdfrwt>
<pdfrwt beam="1">  1       -2 0.19336444E-01 0.18603500E+03</pdfrwt>
<totfact> 0.15128770E+03</totfact>
</mgrwt>
</event>
<event>
 7    1  0.6387485E-006  0.1358743E+03  0.7546771E-02  0.1231828E+00
          1   -1    0    0  501    0  0.00000000000E+00  0.00000000000E+00  0.95719007676E+02  0.95719007676E+02  0.00000000000E+00 0. -1.
         -1   -1    0    0    0  501 -0.00000000000E+00 -0.00000000000E+00 -0.15292161573E+03  0.15292161573E+03  0.00000000000E+00 0.  1.
         23    2    1    2    0    0  0.10707887071E+02  0.52162425822E+02 -0.48432378003E+02  0.14424815875E+03  0.12500503410E+03 0.  0.
          5    1    3    3  502    0  0.32523324585E+02  0.87804059731E+02 -0.31270027269E+02  0.98829267693E+02  0.47000000000E+01 0. -1.
         -5    1    3    3    0  502 -0.21815437514E+02 -0.35641633909E+02 -0.17162350734E+02  0.45418891052E+02  0.47000000000E+01 0. -1.
        -11    1    1    2    0    0 -0.41991686913E+02 -0.30215308397E+02 -0.30874695441E+02  0.60245443395E+02  0.00000000000E+00 0.  1.
         11    1    1    2    0    0  0.31283799842E+02 -0.21947117425E+02  0.22104465394E+02  0.44147021261E+02  0.00000000000E+00 0. -1.
<mgrwt>
<rscale>  0 0.12709716E+03</rscale>
<asrwt>0</asrwt>
<pdfrwt beam="1">  1        1 0.14726001E-01 0.13587434E+03</pdfrwt>
<pdfrwt beam="2">  1       -1 0.23526402E-01 0.13587434E+03</pdfrwt>
<totfact> 0.56026742E+03</totfact>
</mgrwt>
</event>
<event>
 6    1  0.6387485E-006  0.1819528E+03  0.7546771E-02  0.1189365E+00
          1   -1    0    0  501    0  0.00000000000E+00  0.00000000000E+00  0.87623007642E+02  0.87623007642E+02  0.00000000000E+00 0. -1.
         -1   -1    0    0    0  501 -0.00000000000E+00 -0.00000000000E+00 -0.23940039611E+03  0.23940039611E+03  0.00000000000E+00 0.  1.
          5    1    1    2  502    0  0.36486155193E+02  0.83003087110E+02 -0.10792549690E+03  0.14103458750E+03  0.47000000000E+01 0. -1.
         -5    1    1    2    0  502 -0.47010611109E+02 -0.30198554271E+02  0.21941244982E+02  0.60211780145E+02  0.47000000000E+01 0.  1.
        -11    1    1    2    0    0  0.44594458314E+02 -0.57166370216E+02 -0.49284246257E+02  0.87667534042E+02  0.00000000000E+00 0.  1.
         11    1    1    2    0    0 -0.34070002398E+02  0.43618373764E+01 -0.16508890291E+02  0.38109502061E+02  0.00000000000E+00 0. -1.
<mgrwt>
<rscale>  0 0.15940954E+03</rscale>
<asrwt>0</asrwt>
<pdfrwt beam="1">  1        1 0.13480463E-01 0.18195277E+03</pdfrwt>
<pdfrwt beam="2">  1       -1 0.36830830E-01 0.18195277E+03</pdfrwt>
<totfact> 0.30051716E+03</totfact>
</mgrwt>
</event>
<event>
 7    1  0.6387485E-006  0.1487007E+03  0.7546771E-02  0.1229458E+00
          2   -1    0    0  501    0  0.00000000000E+00  0.00000000000E+00  0.21017303084E+03  0.21017303084E+03  0.00000000000E+00 0. -1.
         -2   -1    0    0    0  501 -0.00000000000E+00 -0.00000000000E+00 -0.71810372735E+02  0.71810372735E+02  0.00000000000E+00 0.  1.
         23    2    1    2    0    0 -0.79825943782E+02  0.10722799775E+02  0.41865145752E+02  0.15448163430E+03  0.12499890068E+03 0.  0.
          5    1    3    3  502    0 -0.87117779439E+01  0.23721671592E+02  0.71673888195E+02  0.76143607920E+02  0.47000000000E+01 0.  1.
         -5    1    3    3    0  502 -0.71114165838E+02 -0.12998871817E+02 -0.29808742443E+02  0.78338026381E+02  0.47000000000E+01 0.  1.
        -11    1    1    2    0    0  0.14402876015E+02 -0.10037402979E+02  0.15844761379E+02  0.23648440947E+02  0.00000000000E+00 0. -1.
         11    1    1    2    0    0  0.65423067766E+02 -0.68539679646E+00  0.80652750969E+02  0.10385332832E+03  0.00000000000E+00 0.  1.
<mgrwt>
<rscale>  0 0.12865988E+03</rscale>
<asrwt>0</asrwt>
<pdfrwt beam="1">  1        2 0.32334312E-01 0.14870066E+03</pdfrwt>
<pdfrwt beam="2">  1       -2 0.11047750E-01 0.14870066E+03</pdfrwt>
<totfact> 0.86893069E+03</totfact>
</mgrwt>
</event>
<event>
 7    1  0.6387485E-006  0.1266235E+03  0.7546771E-02  0.1249416E+00
          3   -1    0    0  501    0  0.00000000000E+00  0.00000000000E+00  0.30317925239E+03  0.30317925239E+03  0.00000000000E+00 0. -1.
         -3   -1    0    0    0  501 -0.00000000000E+00 -0.00000000000E+00 -0.38819791766E+02  0.38819791766E+02  0.00000000000E+00 0.  1.
         23    2    1    2    0    0 -0.12537165774E+01  0.20171626376E+02  0.14430380348E+03  0.19198204387E+03  0.12500020462E+03 0.  0.
          5    1    3    3  502    0  0.33596329379E+02 -0.36779043729E+02  0.26820898450E+02  0.56770256288E+02  0.47000000000E+01 0.  1.
         -5    1    3    3    0  502 -0.34850045957E+02  0.56950670105E+02  0.11748290503E+03  0.13521178758E+03  0.47000000000E+01 0.  1.
        -11    1    1    2    0    0  0.44048957326E+02 -0.11352393758E+02  0.71013855014E+02  0.84333594075E+02  0.00000000000E+00 0.  1.
         11    1    1    2    0    0 -0.42795240749E+02 -0.88192326182E+01  0.49041802135E+02  0.65683406210E+02  0.00000000000E+00 0. -1.
<mgrwt>
<rscale>  0 0.11624949E+03</rscale>
<asrwt>0</asrwt>
<pdfrwt beam="1">  1        3 0.46642960E-01 0.12662353E+03</pdfrwt>
<pdfrwt beam="2">  1       -3 0.59722759E-02 0.12662353E+03</pdfrwt>
<totfact> 0.17865429E+03</totfact>
</mgrwt>
</event>
<event>
 7    1  0.6387485E-006  0.1945876E+03  0.7546771E-02  0.1159083E+00
         -2   -1    0    0    0  501 -0.00000000000E+00  0.00000000000E+00  0.43924450090E+03  0.43924450090E+03  0.00000000000E+00 0. -1.
          2   -1    0    0  501    0  0.00000000000E+00 -0.00000000000E+00 -0.79587443753E+02  0.79587443753E+02  0.00000000000E+00 0.  1.
         23    2    1    2    0    0  0.12306670637E+03  0.84215099371E+02  0.23176203212E+03  0.30261851985E+03  0.12500692719E+03 0.  0.
          5    1    3    3  502    0  0.15847355810E+02 -0.29877706813E+02  0.67496680113E+02  0.75641971662E+02  0.47000000000E+01 0.  1.
         -5    1    3    3    0  502  0.10721935056E+03  0.11409280618E+03  0.16426535201E+03  0.22697654819E+03  0.47000000000E+01 0.  1.
        -11    1    1    2    0    0 -0.39443763337E+02 -0.21148371970E+02  0.97296586793E+02  0.10709663816E+03  0.00000000000E+00 0. -1.
         11    1    1    2    0    0 -0.83622943029E+02 -0.63066727401E+02  0.30598438233E+02  0.10911678665E+03  0.00000000000E+00 0.  1.
<mgrwt>
<rscale>  0 0.18931266E+03</rscale>
<asrwt>0</asrwt>
<pdfrwt beam="2">  1        2 0.12244222E-01 0.19458759E+03</pdfrwt>
<pdfrwt beam="1">  1       -2 0.67576076E-01 0.19458759E+03</pdfrwt>
<totfact> 0.10152983E+03</totfact>
</mgrwt>
</event>
<event>
 7    1  0.6387485E-006  0.2312636E+03  0.7546771E-02  0.1128753E+00
         -2   -1    0    0    0  501 -0.00000000000E+00  0.00000000000E+00  0.16737368293E+03  0.16737368293E+03  0.00000000000E+00 0.  1.
          2   -1    0    0  501    0  0.00000000000E+00 -0.00000000000E+00 -0.45433534549E+03  0.45433534549E+03  0.00000000000E+00 0. -1.
         23    2    1    2    0    0  0.16311410760E+03  0.10608061412E+03  0.35808014268E+02  0.23401941563E+03  0.12499425674E+03 0.  0.
          5    1    3    3  502    0  0.15020280835E+03  0.13050779351E+03  0.45849484172E+02  0.20424845899E+03  0.47000000000E+01 0. -1.
         -5    1    3    3    0  502  0.12911299256E+02 -0.24427179393E+02 -0.10041469904E+02  0.29770956642E+02  0.47000000000E+01 0. -1.
        -11    1    1    2    0    0 -0.11046494111E+03 -0.55136949449E+02 -0.27155208755E+03  0.29830038998E+03  0.00000000000E+00 0. -1.
         11    1    1    2    0    0 -0.52649166491E+02 -0.50943664670E+02 -0.51217589268E+02  0.89389222799E+02  0.00000000000E+00 0.  1.
<mgrwt>
<rscale>  0 0.22702317E+03</rscale>
<asrwt>0</asrwt>
<pdfrwt beam="2">  1        2 0.69897746E-01 0.23126364E+03</pdfrwt>
<pdfrwt beam="1">  1       -2 0.25749797E-01 0.23126364E+03</pdfrwt>
<totfact> 0.93587654E+02</totfact>
</mgrwt>
</event>
<event>
 7    1  0.6387485E-006  0.1971643E+03  0.7546771E-02  0.1156419E+00
          1   -1    0    0  501    0  0.00000000000E+00  0.00000000000E+00  0.85498857818E+03  0.85498857818E+03  0.00000000000E+00 0. -1.
         -1   -1    0    0    0  501 -0.00000000000E+00 -0.00000000000E+00 -0.44783806952E+02  0.44783806952E+02  0.00000000000E+00 0.  1.
         23    2    1    2    0    0 -0.70256589352E+02  0.13532532036E+03  0.29723113811E+03  0.35667928007E+03  0.12499931475E+03 0.  0.
          5    1    3    3  502    0  0.18137969859E+02 -0.53485344372E+01  0.84499793916E+02  0.86717345111E+02  0.47000000000E+01 0. -1.
         -5    1    3    3    0  502 -0.88394559211E+02  0.14067385480E+03  0.21273134420E+03  0.26996193496E+03  0.47000000000E+01 0. -1.
        -11    1    1    2    0    0  0.49543415880E+02 -0.12259201030E+03  0.49629859766E+03  0.51361040594E+03  0.00000000000E+00 0. -1.
         11    1    1    2    0    0  0.20713173472E+02 -0.12733310062E+02  0.16675035451E+02  0.29482699125E+02  0.00000000000E+00 0.  1.
<mgrwt>
<rscale>  0 0.19228196E+03</rscale>
<asrwt>0</asrwt>
<pdfrwt beam="1">  1        1 0.13153669E+00 0.19716430E+03</pdfrwt>
<pdfrwt beam="2">  1       -1 0.68898171E-02 0.19716430E+03</pdfrwt>
<totfact> 0.22339979E+03</totfact>
</mgrwt>
</event>
<event>
 6    1  0.6387485E-006  0.3547002E+03  0.7546771E-02  0.1080712E+00
          2   -1    0    0  501    0  0.00000000000E+00  0.00000000000E+00  0.67151846260E+03  0.67151846260E+03  0.00000000000E+00 0. -1.
         -2   -1    0    0    0  501 -0.00000000000E+00 -0.00000000000E+00 -0.14359348166E+03  0.14359348166E+03  0.00000000000E+00 0.  1.
          5    1    1    2  502    0  0.19994076576E+03 -0.82411678118E+02  0.17296113805E+03  0.27695783033E+03  0.47000000000E+01 0. -1.
         -5    1    1    2    0  502 -0.18223181179E+02  0.10388264833E+03 -0.23150016419E+02  0.10808192364E+03  0.47000000000E+01 0.  1.
        -11    1    1    2    0    0 -0.27776878469E+02  0.19730541418E+02  0.23771252187E+02  0.41544213468E+02  0.00000000000E+00 0.  1.
         11    1    1    2    0    0 -0.15394070611E+03 -0.41201511634E+02  0.35434260712E+03  0.38852797683E+03  0.00000000000E+00 0. -1.
<mgrwt>
<rscale>  0 0.30923732E+03</rscale>
<asrwt>0</asrwt>
<pdfrwt beam="1">  1        2 0.10331053E+00 0.35470021E+03</pdfrwt>
<pdfrwt beam="2">  1       -2 0.22091305E-01 0.35470021E+03</pdfrwt>
<totfact> 0.78125701E+02</totfact>
</mgrwt>
</event>
<event>
 7    1  0.6387485E-006  0.1236207E+03  0.7546771E-02  0.1246168E+00
          1   -1    0    0  501    0  0.00000000000E+00  0.00000000000E+00  0.42857132935E+02  0.42857132935E+02  0.00000000000E+00 0. -1.
         -1   -1    0    0    0  501 -0.00000000000E+00 -0.00000000000E+00 -0.58527418664E+03  0.58527418664E+03  0.00000000000E+00 0.  1.
         23    2    1    2    0    0  0.43646034963E+02  0.14562089047E+02 -0.50253609688E+03  0.51751774410E+03  0.11473907782E+03 0.  0.
          5    1    3    3  502    0  0.44606957839E+02  0.52283478542E+02 -0.43131399811E+03  0.43678049153E+03  0.47000000000E+01 0. -1.
         -5    1    3    3    0  502 -0.96092287585E+00 -0.37721389495E+02 -0.71222098777E+02  0.80737252569E+02  0.47000000000E+01 0.  1.
        -11    1    1    2    0    0 -0.53869881280E+01 -0.13504853689E+02 -0.63829723773E+02  0.65464756558E+02  0.00000000000E+00 0.  1.
         11    1    1    2    0    0 -0.38259046835E+02 -0.10572353579E+01  0.23948766953E+02  0.45148818920E+02  0.00000000000E+00 0. -1.
<mgrwt>
<rscale>  0 0.11815744E+03</rscale>
<asrwt>0</asrwt>
<pdfrwt beam="1">  1        1 0.65934055E-02 0.12362074E+03</pdfrwt>
<pdfrwt beam="2">  1       -1 0.90042177E-01 0.12362074E+03</pdfrwt>
<totfact> 0.14028445E+03</totfact>
</mgrwt>
</event>
<event>
 7    1  0.6387485E-006  0.1567722E+03  0.7546771E-02  0.1200265E+00
          1   -1    0    0  501    0  0.00000000000E+00  0.00000000000E+00  0.30924946903E+03  0.30924946903E+03  0.00000000000E+00 0. -1.
         -1   -1    0    0    0  501 -0.00000000000E+00 -0.00000000000E+00 -0.67431947404E+02  0.67431947404E+02  0.00000000000E+00 0.  1.
         23    2    1    2    0    0 -0.71486418820E+02  0.61959225674E+02  0.13501010472E+03  0.20689429350E+03  0.12501306565E+03 0.  0.
          5    1    3    3  502    0 -0.34783264261E+02  0.65740140066E+02  0.84728261067E+01  0.75003468392E+02  0.47000000000E+01 0.  1.
         -5    1    3    3    0  502 -0.36703154559E+02 -0.37809143921E+01  0.12653727862E+03  0.13189082511E+03  0.47000000000E+01 0.  1.
        -11    1    1    2    0    0  0.10042698835E+02 -0.11745751146E+02  0.86511302935E+02  0.87880737397E+02  0.00000000000E+00 0. -1.
         11    1    1    2    0    0  0.61443719986E+02 -0.50213474528E+02  0.20296113970E+02  0.81906385539E+02  0.00000000000E+00 0.  1.
<mgrwt>
<rscale>  0 0.15016970E+03</rscale>
<asrwt>0</asrwt>
<pdfrwt beam="1">  1        1 0.47576841E-01 0.15677219E+03</pdfrwt>
<pdfrwt beam="2">  1       -1 0.10374146E-01 0.15677219E+03</pdfrwt>
<totfact> 0.46973138E+03</totfact>
</mgrwt>
</event>
<event>
 6    1  0.6387485E-006  0.3718943E+03  0.7546771E-02  0.1077424E+00
         -2   -1    0    0    0  501 -0.00000000000E+00  0.00000000000E+00  0.42663122815E+02  0.42663122815E+02  0.00000000000E+00 0.  1.
          2   -1    0    0  501    0  0.00000000000E+00 -0.00000000000E+00 -0.18785245235E+04  0.18785245235E+04  0.00000000000E+00 0. -1.
          5    1    1    2  502    0  0.13207320222E+03 -0.31099959310E+01 -0.40923842418E+03  0.43005950826E+03  0.47000000000E+01 0. -1.
         -5    1    1    2    0  502 -0.21901114673E+03  0.96698135204E+02 -0.80273076050E+03  0.83768441288E+03  0.47000000000E+01 0.  1.
        -11    1    1    2    0    0 -0.37902832396E+02 -0.21288188695E+02 -0.83657789812E+02  0.94278510159E+02  0.00000000000E+00 0.  1.
         11    1    1    2    0    0  0.12484077690E+03 -0.72299950577E+02 -0.54023442620E+03  0.55916521501E+03  0.00000000000E+00 0. -1.
<mgrwt>
<rscale>  0 0.31617331E+03</rscale>
<asrwt>0</asrwt>
<pdfrwt beam="2">  1        2 0.28900369E+00 0.37189427E+03</pdfrwt>
<pdfrwt beam="1">  1       -2 0.65635591E-02 0.37189427E+03</pdfrwt>
<totfact> 0.10987858E+03</totfact>
</mgrwt>
</event>
<event>
 6    1  0.6387485E-006  0.3946058E+03  0.7546771E-02  0.1053832E+00
         -2   -1    0    0    0  501 -0.00000000000E+00  0.00000000000E+00  0.64904032967E+02  0.64904032967E+02  0.00000000000E+00 0.  1.
          2   -1    0    0  501    0  0.00000000000E+00 -0.00000000000E+00 -0.19282953918E+04  0.19282953918E+04  0.00000000000E+00 0. -1.
          5    1    1    2  502    0  0.28995093376E+03 -0.12229887223E+03 -0.10530908146E+04  0.10991136939E+04  0.47000000000E+01 0. -1.
         -5    1    1    2    0  502 -0.22956394556E+01  0.39151208611E+02 -0.20087735232E+02  0.44313589372E+02  0.47000000000E+01 0.  1.
        -11    1    1    2    0    0 -0.39617449618E+01  0.21946004787E+02 -0.54537402004E+02  0.58920715937E+02  0.00000000000E+00 0. -1.
         11    1    1    2    0    0 -0.28369354934E+03  0.61201658836E+02 -0.73567540698E+03  0.79085142563E+03  0.00000000000E+00 0.  1.
<mgrwt>
<rscale>  0 0.37225996E+03</rscale>
<asrwt>0</asrwt>
<pdfrwt beam="2">  1        2 0.29666083E+00 0.39460582E+03</pdfrwt>
<pdfrwt beam="1">  1       -2 0.99852357E-02 0.39460582E+03</pdfrwt>
<totfact> 0.53089239E+02</totfact>
</mgrwt>
</event>
<event>
 7    1  0.6387485E-006  0.1301479E+03  0.7546771E-02  0.1241110E+00
         -2   -1    0    0    0  501 -0.00000000000E+00  0.00000000000E+00  0.93384465928E+02  0.93384465928E+02  0.00000000000E+00 0.  1.
          2   -1    0    0  501    0  0.00000000000E+00 -0.00000000000E+00 -0.14741348624E+03  0.14741348624E+03  0.00000000000E+00 0. -1.
         23    2    1    2    0    0  0.34671271406E+02 -0.10619749770E+02 -0.25597857300E+01  0.13017303619E+03  0.12499436268E+03 0.  0.
          5    1    3    3  502    0  0.75604074037E+02  0.20505804700E+02 -0.80319561081E-01  0.78476496409E+02  0.47000000000E+01 0. -1.
         -5    1    3    3    0  502 -0.40932802631E+02 -0.31125554470E+02 -0.24794661690E+01  0.51696539776E+02  0.47000000000E+01 0. -1.
        -11    1    1    2    0    0 -0.44232432910E+02  0.41515876058E+02 -0.16236561700E+02  0.62798901438E+02  0.00000000000E+00 0. -1.
         11    1    1    2    0    0  0.95611615040E+01 -0.30896126288E+02 -0.35232672886E+02  0.47826014548E+02  0.00000000000E+00 0.  1.
<mgrwt>
<rscale>  0 0.12121274E+03</rscale>
<asrwt>0</asrwt>
<pdfrwt beam="2">  1        2 0.22678998E-01 0.13014787E+03</pdfrwt>
<pdfrwt beam="1">  1       -2 0.14366841E-01 0.13014787E+03</pdfrwt>
<totfact> 0.83224224E+03</totfact>
</mgrwt>
</event>
<event>
 7    1  0.6387485E-006  0.1958149E+03  0.7546771E-02  0.1157846E+00
          2   -1    0    0  501    0  0.00000000000E+00  0.00000000000E+00  0.63946126335E+03  0.63946126335E+03  0.00000000000E+00 0. -1.
         -2   -1    0    0    0  501 -0.00000000000E+00 -0.00000000000E+00 -0.55432539274E+02  0.55432539274E+02  0.00000000000E+00 0.  1.
         23    2    1    2    0    0  0.79461424164E+02 -0.12807740590E+03  0.25278198797E+03  0.31975334916E+03  0.12500212409E+03 0.  0.
          5    1    3    3  502    0  0.21525588824E+02 -0.89502187865E+02  0.22765032096E+03  0.24560283231E+03  0.47000000000E+01 0.  1.
         -5    1    3    3    0  502  0.57935835339E+02 -0.38575218035E+02  0.25131667012E+02  0.74150516854E+02  0.47000000000E+01 0.  1.
        -11    1    1    2    0    0  0.47819760183E+01  0.25869420883E+02  0.10871978004E+02  0.28465665936E+02  0.00000000000E+00 0.  1.
         11    1    1    2    0    0 -0.84243400182E+02  0.10220798502E+03  0.32037475811E+03  0.34667478753E+03  0.00000000000E+00 0. -1.
<mgrwt>
<rscale>  0 0.19068430E+03</rscale>
<asrwt>0</asrwt>
<pdfrwt beam="1">  1        2 0.98378651E-01 0.19581489E+03</pdfrwt>
<pdfrwt beam="2">  1       -2 0.85280834E-02 0.19581489E+03</pdfrwt>
<totfact> 0.39441320E+03</totfact>
</mgrwt>
</event>
<event>
 7    1  0.6387485E-006  0.1358290E+03  0.7546771E-02  0.1230126E+00
         -2   -1    0    0    0  501 -0.00000000000E+00  0.00000000000E+00  0.55585999989E+02  0.55585999989E+02  0.00000000000E+00 0.  1.
          2   -1    0    0  501    0  0.00000000000E+00 -0.00000000000E+00 -0.31611692318E+03  0.31611692318E+03  0.00000000000E+00 0. -1.
         23    2    1    2    0    0  0.48132097760E+02 -0.22549937855E+02 -0.70090866606E+02  0.15284712355E+03  0.12499726023E+03 0.  0.
          5    1    3    3  502    0  0.21066614038E+02  0.91172930272E+01  0.33622484313E+02  0.40981565497E+02  0.47000000000E+01 0.  1.
         -5    1    3    3    0  502  0.27065483722E+02 -0.31667230882E+02 -0.10371335092E+03  0.11186555806E+03  0.47000000000E+01 0.  1.
        -11    1    1    2    0    0 -0.42743648422E+01 -0.24773023473E+02 -0.12292092312E+03  0.12546523912E+03  0.00000000000E+00 0. -1.
         11    1    1    2    0    0 -0.43857732918E+02  0.47322961328E+02 -0.67519133467E+02  0.93390560496E+02  0.00000000000E+00 0.  1.
<mgrwt>
<rscale>  0 0.12821649E+03</rscale>
<asrwt>0</asrwt>
<pdfrwt beam="2">  1        2 0.48633372E-01 0.13582899E+03</pdfrwt>
<pdfrwt beam="1">  1       -2 0.85516925E-02 0.13582899E+03</pdfrwt>
<totfact> 0.83505344E+03</totfact>
</mgrwt>
</event>
<event>
 7    1  0.6387485E-006  0.1488123E+03  0.7546771E-02  0.1211352E+00
         -2   -1    0    0    0  501 -0.00000000000E+00  0.00000000000E+00  0.32757599109E+02  0.32757599109E+02  0.00000000000E+00 0.  1.
          2   -1    0    0  501    0  0.00000000000E+00 -0.00000000000E+00 -0.78668651335E+03  0.78668651335E+03  0.00000000000E+00 0. -1.
         23    2    1    2    0    0  0.12192259639E+02 -0.79811789996E+02 -0.18376996284E+03  0.23646672640E+03  0.12500616158E+03 0.  0.
          5    1    3    3  502    0  0.27368616603E+02  0.26058470031E+02 -0.73488797493E+02  0.82769429091E+02  0.47000000000E+01 0. -1.
         -5    1    3    3    0  502 -0.15176356964E+02 -0.10587026003E+03 -0.11028116534E+03  0.15369729730E+03  0.47000000000E+01 0. -1.
        -11    1    1    2    0    0 -0.46964000649E+02  0.23816526953E+02 -0.19071470450E+03  0.19785080952E+03  0.00000000000E+00 0.  1.
         11    1    1    2    0    0  0.34771741010E+02  0.55995263043E+02 -0.37944424689E+03  0.38512657654E+03  0.00000000000E+00 0. -1.
<mgrwt>
<rscale>  0 0.14147955E+03</rscale>
<asrwt>0</asrwt>
<pdfrwt beam="2">  1        2 0.12102870E+00 0.14881234E+03</pdfrwt>
<pdfrwt beam="1">  1       -2 0.50396304E-02 0.14881234E+03</pdfrwt>
<totfact> 0.68063440E+03</totfact>
</mgrwt>
</event>
<event>
 7    1  0.6387485E-006  0.1770341E+03  0.7546771E-02  0.1176479E+00
          1   -1    0    0  501    0  0.00000000000E+00  0.00000000000E+00  0.46231093808E+03  0.46231093808E+03  0.00000000000E+00 0. -1.
         -1   -1    0    0    0  501 -0.00000000000E+00 -0.00000000000E+00 -0.65630267025E+02  0.65630267025E+02  0.00000000000E+00 0.  1.
         23    2    1    2    0    0 -0.12351290261E+03 -0.21480617126E+02  0.13104045975E+03  0.22025590387E+03  0.12499682826E+03 0.  0.
          5    1    3    3  502    0 -0.11577503252E+03 -0.31344667701E+02  0.15304234745E+03  0.19450037651E+03  0.47000000000E+01 0.  1.
         -5    1    3    3    0  502 -0.77378700885E+01  0.98640505745E+01 -0.22001887702E+02  0.25755527362E+02  0.47000000000E+01 0.  1.
        -11    1    1    2    0    0  0.82204156123E+02 -0.26370394867E+02  0.19275918712E+03  0.21120848758E+03  0.00000000000E+00 0.  1.
         11    1    1    2    0    0  0.41308746490E+02  0.47851011993E+02  0.72881024197E+02  0.96476813656E+02  0.00000000000E+00 0. -1.
<mgrwt>
<rscale>  0 0.17131966E+03</rscale>
<asrwt>0</asrwt>
<pdfrwt beam="1">  1        1 0.71124758E-01 0.17703407E+03</pdfrwt>
<pdfrwt beam="2">  1       -1 0.10096964E-01 0.17703407E+03</pdfrwt>
<totfact> 0.29592793E+03</totfact>
</mgrwt>
</event>
<event>
 7    1  0.6387485E-006  0.1253185E+03  0.7546771E-02  0.1250205E+00
         -1   -1    0    0    0  501 -0.00000000000E+00  0.00000000000E+00  0.54510773315E+02  0.54510773315E+02  0.00000000000E+00 0.  1.
          1   -1    0    0  501    0  0.00000000000E+00 -0.00000000000E+00 -0.21528598035E+03  0.21528598035E+03  0.00000000000E+00 0. -1.
         23    2    1    2    0    0  0.32412024616E+01  0.81166705205E+01 -0.92570214447E+02  0.15580108884E+03  0.12501339507E+03 0.  0.
          5    1    3    3  502    0 -0.20856676053E+02 -0.49850999720E+02 -0.70800781351E+02  0.89190603479E+02  0.47000000000E+01 0. -1.
         -5    1    3    3    0  502  0.24097878514E+02  0.57967670241E+02 -0.21769433097E+02  0.66610485356E+02  0.47000000000E+01 0. -1.
        -11    1    1    2    0    0  0.17046402357E+02 -0.25400668580E+02  0.93512243788E+01  0.31987797596E+02  0.00000000000E+00 0.  1.
         11    1    1    2    0    0 -0.20287604819E+02  0.17283998060E+02 -0.77556216966E+02  0.82007867234E+02  0.00000000000E+00 0. -1.
<mgrwt>
<rscale>  0 0.11579168E+03</rscale>
<asrwt>0</asrwt>
<pdfrwt beam="2">  1        1 0.33120920E-01 0.12531853E+03</pdfrwt>
<pdfrwt beam="1">  1       -1 0.83862729E-02 0.12531853E+03</pdfrwt>
<totfact> 0.10018031E+04</totfact>
</mgrwt>
</event>
<event>
 6    1  0.6387485E-006  0.1414383E+03  0.7546771E-02  0.1237044E+00
          2   -1    0    0  501    0  0.00000000000E+00  0.00000000000E+00  0.35133599919E+03  0.35133599919E+03  0.00000000000E+00 0. -1.
         -2   -1    0    0    0  501 -0.00000000000E+00 -0.00000000000E+00 -0.40824993856E+02  0.40824993856E+02  0.00000000000E+00 0.  1.
          5    1    1    2  502    0 -0.36478868031E+01 -0.74976219505E+01  0.14140474199E+03  0.14172830511E+03  0.47000000000E+01 0. -1.
         -5    1    1    2    0  502  0.10490763601E+02 -0.41551995558E+02 -0.17284750751E+02  0.46448649758E+02  0.47000000000E+01 0.  1.
        -11    1    1    2    0    0  0.26673586857E+01  0.63043359874E+02  0.16537164513E+03  0.17700101988E+03  0.00000000000E+00 0. -1.
         11    1    1    2    0    0 -0.95102354838E+01 -0.13993742366E+02  0.21019368963E+02  0.26983018288E+02  0.00000000000E+00 0.  1.
<mgrwt>
<rscale>  0 0.12374513E+03</rscale>
<asrwt>0</asrwt>
<pdfrwt beam="1">  1        2 0.54051690E-01 0.14143830E+03</pdfrwt>
<pdfrwt beam="2">  1       -2 0.62807685E-02 0.14143830E+03</pdfrwt>
<totfact> 0.12028005E+04</totfact>
</mgrwt>
</event>
<event>
 7    1  0.6387485E-006  0.1439978E+03  0.7546771E-02  0.1218013E+00
         -1   -1    0    0    0  501 -0.00000000000E+00  0.00000000000E+00  0.50973712190E+03  0.50973712190E+03  0.00000000000E+00 0.  1.
          1   -1    0    0  501    0  0.00000000000E+00 -0.00000000000E+00 -0.33403443997E+02  0.33403443997E+02  0.00000000000E+00 0. -1.
         23    2    1    2    0    0 -0.67797587947E+02 -0.22674056416E+02  0.27907434245E+03  0.31403478936E+03  0.12499893818E+03 0.  0.
          5    1    3    3  502    0 -0.51222605179E+02  0.31740712001E+02  0.51486435002E+02  0.79398810249E+02  0.47000000000E+01 0. -1.
         -5    1    3    3    0  502 -0.16574982768E+02 -0.54414768417E+02  0.22758790745E+03  0.23463597911E+03  0.47000000000E+01 0. -1.
        -11    1    1    2    0    0  0.67253098143E+02  0.52381490802E+02  0.12853818419E+03  0.15423639189E+03  0.00000000000E+00 0. -1.
         11    1    1    2    0    0  0.54448980465E+00 -0.29707434386E+02  0.68721151260E+02  0.74869384647E+02  0.00000000000E+00 0.  1.
<mgrwt>
<rscale>  0 0.13657530E+03</rscale>
<asrwt>0</asrwt>
<pdfrwt beam="2">  1        1 0.51389917E-02 0.14399778E+03</pdfrwt>
<pdfrwt beam="1">  1       -1 0.78421090E-01 0.14399778E+03</pdfrwt>
<totfact> 0.26402859E+03</totfact>
</mgrwt>
</event>
<event>
 7    1  0.6387485E-006  0.2507710E+03  0.7546771E-02  0.1115293E+00
          1   -1    0    0  501    0  0.00000000000E+00  0.00000000000E+00  0.19191096271E+03  0.19191096271E+03  0.00000000000E+00 0. -1.
         -1   -1    0    0    0  501 -0.00000000000E+00 -0.00000000000E+00 -0.40020272153E+03  0.40020272153E+03  0.00000000000E+00 0.  1.
         23    2    1    2    0    0  0.21051814232E+03  0.54245668247E+02 -0.24861884765E+03  0.35312520966E+03  0.12500240606E+03 0.  0.
          5    1    3    3  502    0 -0.16321147433E+02 -0.16155903717E+01 -0.18669119370E+02  0.25290630752E+02  0.47000000000E+01 0. -1.
         -5    1    3    3    0  502  0.22683928976E+03  0.55861258619E+02 -0.22994972828E+03  0.32783457891E+03  0.47000000000E+01 0. -1.
        -11    1    1    2    0    0 -0.27293719051E+02 -0.19556583236E+02 -0.24497013667E+02  0.41563333915E+02  0.00000000000E+00 0.  1.
         11    1    1    2    0    0 -0.18322442327E+03 -0.34689085011E+02  0.64824102490E+02  0.19742514066E+03  0.00000000000E+00 0. -1.
<mgrwt>
<rscale>  0 0.24687893E+03</rscale>
<asrwt>0</asrwt>
<pdfrwt beam="1">  1        1 0.29524764E-01 0.25077098E+03</pdfrwt>
<pdfrwt beam="2">  1       -1 0.61569649E-01 0.25077098E+03</pdfrwt>
<totfact> 0.42939782E+02</totfact>
</mgrwt>
</event>
<event>
 7    1  0.6387485E-006  0.1664871E+03  0.7546771E-02  0.1188687E+00
          1   -1    0    0  501    0  0.00000000000E+00  0.00000000000E+00  0.19188273150E+03  0.19188273150E+03  0.00000000000E+00 0. -1.
         -1   -1    0    0    0  501 -0.00000000000E+00 -0.00000000000E+00 -0.17064344439E+03  0.17064344439E+03  0.00000000000E+00 0.  1.
         23    2    1    2    0    0 -0.94034782111E+02 -0.57035863478E+02 -0.83294049864E+02  0.18616086083E+03  0.12498934911E+03 0.  0.
          5    1    3    3  502    0 -0.20951427766E+02  0.39582138877E+02 -0.26857364922E+02  0.52432014019E+02  0.47000000000E+01 0. -1.
         -5    1    3    3    0  502 -0.73083354345E+02 -0.96618002354E+02 -0.56436684942E+02  0.13372884681E+03  0.47000000000E+01 0. -1.
        -11    1    1    2    0    0  0.85279850491E+02  0.45471647907E+02  0.12071374783E+03  0.15463548292E+03  0.00000000000E+00 0. -1.
         11    1    1    2    0    0  0.87549316201E+01  0.11564215571E+02 -0.16180410859E+02  0.21729832144E+02  0.00000000000E+00 0.  1.
<mgrwt>
<rscale>  0 0.16000883E+03</rscale>
<asrwt>0</asrwt>
<pdfrwt beam="1">  1        1 0.29520420E-01 0.16648714E+03</pdfrwt>
<pdfrwt beam="2">  1       -1 0.26252838E-01 0.16648714E+03</pdfrwt>
<totfact> 0.19499165E+03</totfact>
</mgrwt>
</event>
<event>
 7    1  0.6387485E-006  0.1467298E+03  0.7546771E-02  0.1214678E+00
         -2   -1    0    0    0  501 -0.00000000000E+00  0.00000000000E+00  0.35868430055E+02  0.35868430055E+02  0.00000000000E+00 0.  1.
          2   -1    0    0  501    0  0.00000000000E+00 -0.00000000000E+00 -0.48944983498E+03  0.48944983498E+03  0.00000000000E+00 0. -1.
         23    2    1    2    0    0 -0.71223029585E+02 -0.28780138253E+02 -0.25801937736E+03  0.29682256955E+03  0.12501448877E+03 0.  0.
          5    1    3    3  502    0 -0.53193643367E+02 -0.53717153774E+02 -0.60706777834E+02  0.97069558458E+02  0.47000000000E+01 0. -1.
         -5    1    3    3    0  502 -0.18029386218E+02  0.24937015522E+02 -0.19731259952E+03  0.19975301109E+03  0.47000000000E+01 0. -1.
        -11    1    1    2    0    0 -0.10722962715E+02 -0.97358084853E+01 -0.17664453121E+01  0.14590689678E+02  0.00000000000E+00 0.  1.
         11    1    1    2    0    0  0.81945992300E+02  0.38515946738E+02 -0.19379558226E+03  0.21390500581E+03  0.00000000000E+00 0. -1.
<mgrwt>
<rscale>  0 0.13900228E+03</rscale>
<asrwt>0</asrwt>
<pdfrwt beam="2">  1        2 0.75299972E-01 0.14672982E+03</pdfrwt>
<pdfrwt beam="1">  1       -2 0.55182202E-02 0.14672982E+03</pdfrwt>
<totfact> 0.10270560E+04</totfact>
</mgrwt>
</event>
<event>
 7    1  0.6387485E-006  0.2347610E+03  0.7546771E-02  0.1126087E+00
         -2   -1    0    0    0  501 -0.00000000000E+00  0.00000000000E+00  0.20849810886E+03  0.20849810886E+03  0.00000000000E+00 0.  1.
          2   -1    0    0  501    0  0.00000000000E+00 -0.00000000000E+00 -0.34629124975E+03  0.34629124975E+03  0.00000000000E+00 0. -1.
         23    2    1    2    0    0 -0.19774562460E+03 -0.19659192674E+02  0.77771198474E+02  0.24730762932E+03  0.12499155294E+03 0.  0.
          5    1    3    3  502    0  0.17585201195E+02 -0.50166593844E+01  0.64041987257E+01  0.19937651159E+02  0.47000000000E+01 0. -1.
         -5    1    3    3    0  502 -0.21533082579E+03 -0.14642533290E+02  0.71366999748E+02  0.22736997816E+03  0.47000000000E+01 0. -1.
        -11    1    1    2    0    0  0.11957656013E+03 -0.19174314659E+02 -0.76333530852E+02  0.14315381939E+03  0.00000000000E+00 0.  1.
         11    1    1    2    0    0  0.78169064468E+02  0.38833507333E+02 -0.13923080852E+03  0.16432790990E+03  0.00000000000E+00 0. -1.
<mgrwt>
<rscale>  0 0.23078714E+03</rscale>
<asrwt>0</asrwt>
<pdfrwt beam="2">  1        2 0.53275576E-01 0.23476095E+03</pdfrwt>
<pdfrwt beam="1">  1       -2 0.32076632E-01 0.23476095E+03</pdfrwt>
<totfact> 0.84620579E+02</totfact>
</mgrwt>
</event>
<event>
 7    1  0.6387485E-006  0.1354708E+03  0.7546771E-02  0.1232243E+00
         -1   -1    0    0    0  501 -0.00000000000E+00  0.00000000000E+00  0.53433850691E+03  0.53433850691E+03  0.00000000000E+00 0.  1.
          1   -1    0    0  501    0  0.00000000000E+00 -0.00000000000E+00 -0.47272834075E+02  0.47272834075E+02  0.00000000000E+00 0. -1.
         23    2    1    2    0    0 -0.46703231938E+01 -0.52017992144E+02  0.45189779604E+03  0.47176684579E+03  0.12499862116E+03 0.  0.
          5    1    3    3  502    0  0.19728616488E+02  0.10923672302E+02  0.10681383991E+02  0.25391472763E+02  0.47000000000E+01 0. -1.
         -5    1    3    3    0  502 -0.24398939682E+02 -0.62941664446E+02  0.44121641205E+03  0.44637537303E+03  0.47000000000E+01 0. -1.
        -11    1    1    2    0    0  0.29810228026E+02  0.20590315820E+02 -0.20133906409E+02  0.41448582458E+02  0.00000000000E+00 0. -1.
         11    1    1    2    0    0 -0.25139904832E+02  0.31427676324E+02  0.55301783206E+02  0.68395912742E+02  0.00000000000E+00 0.  1.
<mgrwt>
<rscale>  0 0.12682591E+03</rscale>
<asrwt>0</asrwt>
<pdfrwt beam="2">  1        1 0.72727441E-02 0.13547080E+03</pdfrwt>
<pdfrwt beam="1">  1       -1 0.82205920E-01 0.13547080E+03</pdfrwt>
<totfact> 0.14919154E+03</totfact>
</mgrwt>
</event>
<event>
 7    1  0.6387485E-006  0.1955170E+03  0.7546771E-02  0.1158005E+00
          1   -1    0    0  501    0  0.00000000000E+00  0.00000000000E+00  0.12965701163E+04  0.12965701163E+04  0.00000000000E+00 0. -1.
         -1   -1    0    0    0  501 -0.00000000000E+00 -0.00000000000E+00 -0.26731385040E+02  0.26731385040E+02  0.00000000000E+00 0.  1.
         23    2    1    2    0    0 -0.10115183566E+03  0.11122172182E+03  0.63065974226E+03  0.66027162477E+03  0.12499977082E+03 0.  0.
          5    1    3    3  502    0 -0.33386545290E+02  0.12211547737E+03  0.40257800381E+03  0.42204027103E+03  0.47000000000E+01 0.  1.
         -5    1    3    3    0  502 -0.67765290373E+02 -0.10893755553E+02  0.22808173845E+03  0.23823135374E+03  0.47000000000E+01 0.  1.
        -11    1    1    2    0    0  0.21652782817E+02  0.12870213863E+02  0.54115003055E+02  0.59690191524E+02  0.00000000000E+00 0. -1.
         11    1    1    2    0    0  0.79499052846E+02 -0.12409193568E+03  0.58506398596E+03  0.60333968506E+03  0.00000000000E+00 0.  1.
<mgrwt>
<rscale>  0 0.19050729E+03</rscale>
<asrwt>0</asrwt>
<pdfrwt beam="1">  1        1 0.19947228E+00 0.19551703E+03</pdfrwt>
<pdfrwt beam="2">  1       -1 0.41125218E-02 0.19551703E+03</pdfrwt>
<totfact> 0.23103729E+03</totfact>
</mgrwt>
</event>
<event>
 7    1  0.6387485E-006  0.1303878E+03  0.7546771E-02  0.1240560E+00
         -1   -1    0    0    0  501 -0.00000000000E+00  0.00000000000E+00  0.13161654828E+03  0.13161654828E+03  0.00000000000E+00 0.  1.
          1   -1    0    0  501    0  0.00000000000E+00 -0.00000000000E+00 -0.13751442472E+03  0.13751442472E+03  0.00000000000E+00 0. -1.
         23    2    1    2    0    0  0.36766956273E+02  0.49652830039E+01  0.67015486173E+02  0.14660171129E+03  0.12499809302E+03 0.  0.
          5    1    3    3  502    0  0.23491731077E+02  0.23894582675E+02  0.10027153182E+03  0.10582666301E+03  0.47000000000E+01 0.  1.
         -5    1    3    3    0  502  0.13275225195E+02 -0.18929299671E+02 -0.33256045651E+02  0.40775048281E+02  0.47000000000E+01 0.  1.
        -11    1    1    2    0    0 -0.36647887485E+02  0.39562082921E+02 -0.38765001108E+02  0.66414993587E+02  0.00000000000E+00 0. -1.
         11    1    1    2    0    0 -0.11906878743E+00 -0.44527365925E+02 -0.34148361507E+02  0.56114268125E+02  0.00000000000E+00 0.  1.
<mgrwt>
<rscale>  0 0.12155080E+03</rscale>
<asrwt>0</asrwt>
<pdfrwt beam="2">  1        1 0.21156065E-01 0.13038783E+03</pdfrwt>
<pdfrwt beam="1">  1       -1 0.20248700E-01 0.13038783E+03</pdfrwt>
<totfact> 0.44796193E+03</totfact>
</mgrwt>
</event>
<event>
 7    1  0.6387485E-006  0.1536978E+03  0.7546771E-02  0.1205702E+00
          1   -1    0    0  501    0  0.00000000000E+00  0.00000000000E+00  0.13644556726E+03  0.13644556726E+03  0.00000000000E+00 0. -1.
         -1   -1    0    0    0  501 -0.00000000000E+00 -0.00000000000E+00 -0.25113715251E+03  0.25113715251E+03  0.00000000000E+00 0.  1.
         23    2    1    2    0    0  0.63905845292E+02  0.62566322911E+02 -0.18818630314E+03  0.24297549505E+03  0.12499801870E+03 0.  0.
          5    1    3    3  502    0  0.78539736584E+01 -0.20449449297E+02 -0.11913479329E+03  0.12122315724E+03  0.47000000000E+01 0. -1.
         -5    1    3    3    0  502  0.56051871634E+02  0.83015772208E+02 -0.69051509852E+02  0.12175233781E+03  0.47000000000E+01 0. -1.
        -11    1    1    2    0    0 -0.75546142949E+02 -0.52076874549E+02  0.27155297596E+02  0.95690285634E+02  0.00000000000E+00 0.  1.
         11    1    1    2    0    0  0.11640297656E+02 -0.10489448362E+02  0.46339420298E+02  0.48916939091E+02  0.00000000000E+00 0. -1.
<mgrwt>
<rscale>  0 0.14582312E+03</rscale>
<asrwt>0</asrwt>
<pdfrwt beam="1">  1        1 0.20991626E-01 0.15369778E+03</pdfrwt>
<pdfrwt beam="2">  1       -1 0.38636484E-01 0.15369778E+03</pdfrwt>
<totfact> 0.15494834E+03</totfact>
</mgrwt>
</event>
<event>
 7    1  0.6387485E-006  0.1315427E+03  0.7546771E-02  0.1236639E+00
         -1   -1    0    0    0  501 -0.00000000000E+00  0.00000000000E+00  0.21903014256E+03  0.21903014256E+03  0.00000000000E+00 0.  1.
          1   -1    0    0  501    0  0.00000000000E+00 -0.00000000000E+00 -0.71445563307E+02  0.71445563307E+02  0.00000000000E+00 0. -1.
         23    2    1    2    0    0 -0.20787076504E+02  0.35310421208E+02  0.13034272371E+03  0.18518289522E+03  0.12499820263E+03 0.  0.
          5    1    3    3  502    0  0.76624313580E+01  0.40644700903E+02 -0.91672332084E+01  0.42624320880E+02  0.47000000000E+01 0.  1.
         -5    1    3    3    0  502 -0.28449507862E+02 -0.53342796954E+01  0.13950995692E+03  0.14255857434E+03  0.47000000000E+01 0.  1.
        -11    1    1    2    0    0  0.50912845362E+02 -0.73855386909E+01  0.33195711615E+02  0.61225968953E+02  0.00000000000E+00 0.  1.
         11    1    1    2    0    0 -0.30125768858E+02 -0.27924882517E+02 -0.15953856078E+02  0.44066841691E+02  0.00000000000E+00 0. -1.
<mgrwt>
<rscale>  0 0.12400071E+03</rscale>
<asrwt>0</asrwt>
<pdfrwt beam="2">  1        1 0.10991625E-01 0.13154269E+03</pdfrwt>
<pdfrwt beam="1">  1       -1 0.33696945E-01 0.13154269E+03</pdfrwt>
<totfact> 0.45025392E+03</totfact>
</mgrwt>
</event>
<event>
 6    1  0.6387485E-006  0.8972808E+03  0.7546771E-02  0.9428987E-01
         -2   -1    0    0    0  501 -0.00000000000E+00  0.00000000000E+00  0.12758706470E+03  0.12758706470E+03  0.00000000000E+00 0.  1.
          2   -1    0    0  501    0  0.00000000000E+00 -0.00000000000E+00 -0.15775752218E+04  0.15775752218E+04  0.00000000000E+00 0. -1.
          5    1    1    2  502    0 -0.19465950645E+03 -0.43219818194E+02 -0.30110635177E+03  0.36117502851E+03  0.47000000000E+01 0. -1.
         -5    1    1    2    0  502  0.85395248466E+02 -0.33421471919E+01 -0.21901213078E+02  0.88347447856E+02  0.47000000000E+01 0.  1.
        -11    1    1    2    0    0 -0.14858388870E+03 -0.65105119731E+02 -0.99217614047E+02  0.19015778589E+03  0.00000000000E+00 0.  1.
         11    1    1    2    0    0  0.25784814669E+03  0.11166708512E+03 -0.10277629782E+04  0.10654820243E+04  0.00000000000E+00 0. -1.
<mgrwt>
<rscale>  0 0.89728076E+03</rscale>
<asrwt>0</asrwt>
<pdfrwt beam="2">  1        2 0.24270387E+00 0.89728076E+03</pdfrwt>
<pdfrwt beam="1">  1       -2 0.19628780E-01 0.89728076E+03</pdfrwt>
<totfact> 0.25446791E+02</totfact>
</mgrwt>
</event>
<event>
 7    1  0.6387485E-006  0.1460931E+03  0.7546771E-02  0.1215276E+00
          1   -1    0    0  501    0  0.00000000000E+00  0.00000000000E+00  0.18338148407E+03  0.18338148407E+03  0.00000000000E+00 0. -1.
         -1   -1    0    0    0  501 -0.00000000000E+00 -0.00000000000E+00 -0.98886568605E+02  0.98886568605E+02  0.00000000000E+00 0.  1.
         23    2    1    2    0    0  0.63602581369E+02  0.40864735716E+02  0.19588874334E+02  0.14740056521E+03  0.12501195001E+03 0.  0.
          5    1    3    3  502    0  0.10576254724E+02 -0.39717066901E+02  0.28766424153E+02  0.50387495728E+02  0.47000000000E+01 0. -1.
         -5    1    3    3    0  502  0.53026326645E+02  0.80581802617E+02 -0.91775498181E+01  0.97013069486E+02  0.47000000000E+01 0. -1.
        -11    1    1    2    0    0 -0.44268801208E+02 -0.30713533645E+02 -0.11763255205E+02  0.55149089588E+02  0.00000000000E+00 0.  1.
         11    1    1    2    0    0 -0.19333780161E+02 -0.10151202071E+02  0.76669296332E+02  0.79718397869E+02  0.00000000000E+00 0. -1.
<mgrwt>
<rscale>  0 0.13856289E+03</rscale>
<asrwt>0</asrwt>
<pdfrwt beam="1">  1        1 0.28212536E-01 0.14609313E+03</pdfrwt>
<pdfrwt beam="2">  1       -1 0.15213318E-01 0.14609313E+03</pdfrwt>
<totfact> 0.49447862E+03</totfact>
</mgrwt>
</event>
<event>
 7    1  0.6387485E-006  0.1383643E+03  0.7546771E-02  0.1225175E+00
          1   -1    0    0  501    0  0.00000000000E+00  0.00000000000E+00  0.36802347279E+03  0.36802347279E+03  0.00000000000E+00 0. -1.
         -1   -1    0    0    0  501 -0.00000000000E+00 -0.00000000000E+00 -0.67920934106E+02  0.67920934106E+02  0.00000000000E+00 0.  1.
         23    2    1    2    0    0 -0.31589394260E+02 -0.50292333075E+02  0.27831762201E+02  0.14113574495E+03  0.12496992806E+03 0.  0.
          5    1    3    3  502    0  0.22359112778E+02 -0.35532521479E+02  0.62297715864E+02  0.75270083092E+02  0.47000000000E+01 0. -1.
         -5    1    3    3    0  502 -0.53948507038E+02 -0.14759811597E+02 -0.34465953663E+02  0.65865661858E+02  0.47000000000E+01 0. -1.
        -11    1    1    2    0    0  0.28855276879E+02 -0.24710120380E+02  0.93371242009E+02  0.10080379897E+03  0.00000000000E+00 0.  1.
         11    1    1    2    0    0  0.27341173809E+01  0.75002453455E+02  0.17889953447E+03  0.19400486297E+03  0.00000000000E+00 0. -1.
<mgrwt>
<rscale>  0 0.13154907E+03</rscale>
<asrwt>0</asrwt>
<pdfrwt beam="1">  1        1 0.56618995E-01 0.13836434E+03</pdfrwt>
<pdfrwt beam="2">  1       -1 0.10449375E-01 0.13836434E+03</pdfrwt>
<totfact> 0.37153489E+03</totfact>
</mgrwt>
</event>
<event>
 7    1  0.6387485E-006  0.1886449E+03  0.7546771E-02  0.1164569E+00
         -3   -1    0    0    0  501 -0.00000000000E+00  0.00000000000E+00  0.45202742500E+02  0.45202742500E+02  0.00000000000E+00 0.  1.
          3   -1    0    0  501    0  0.00000000000E+00 -0.00000000000E+00 -0.72524910169E+03  0.72524910169E+03  0.00000000000E+00 0. -1.
         23    2    1    2    0    0 -0.66962262733E+02  0.12452014566E+03 -0.29490860226E+03  0.35008282931E+03  0.12489072175E+03 0.  0.
          5    1    3    3  502    0 -0.90997684267E+01  0.95777244662E+02 -0.25829887228E+03  0.27567459767E+03  0.47000000000E+01 0. -1.
         -5    1    3    3    0  502 -0.57862494307E+02  0.28742901001E+02 -0.36609729979E+02  0.74408231631E+02  0.47000000000E+01 0. -1.
        -11    1    1    2    0    0  0.50734555576E+02 -0.43915781613E+02 -0.27415555321E+03  0.28224786688E+03  0.00000000000E+00 0. -1.
         11    1    1    2    0    0  0.16227707157E+02 -0.80604364050E+02 -0.11098220373E+03  0.13812114801E+03  0.00000000000E+00 0.  1.
<mgrwt>
<rscale>  0 0.18338276E+03</rscale>
<asrwt>0</asrwt>
<pdfrwt beam="2">  1        3 0.11157678E+00 0.18864491E+03</pdfrwt>
<pdfrwt beam="1">  1       -3 0.69542682E-02 0.18864491E+03</pdfrwt>
<totfact> 0.22904930E+02</totfact>
</mgrwt>
</event>
<event>
 7    1  0.6387485E-006  0.1277308E+03  0.7546771E-02  0.1244859E+00
          1   -1    0    0  501    0  0.00000000000E+00  0.00000000000E+00  0.11548868101E+03  0.11548868101E+03  0.00000000000E+00 0. -1.
         -1   -1    0    0    0  501 -0.00000000000E+00 -0.00000000000E+00 -0.10924174496E+03  0.10924174496E+03  0.00000000000E+00 0.  1.
         23    2    1    2    0    0  0.14223231096E+02  0.22106561374E+02 -0.62958445753E+01  0.12788590663E+03  0.12499666834E+03 0.  0.
          5    1    3    3  502    0  0.97656435414E+01  0.56216919228E+02  0.40128115380E+02  0.69914701209E+02  0.47000000000E+01 0. -1.
         -5    1    3    3    0  502  0.44575875551E+01 -0.34110357853E+02 -0.46423959955E+02  0.57971205418E+02  0.47000000000E+01 0. -1.
        -11    1    1    2    0    0 -0.42857792809E+02 -0.20659632768E+01 -0.21553743306E+02  0.48016897643E+02  0.00000000000E+00 0.  1.
         11    1    1    2    0    0  0.28634561713E+02 -0.20040598098E+02  0.34096523930E+02  0.48827621698E+02  0.00000000000E+00 0. -1.
<mgrwt>
<rscale>  0 0.11893844E+03</rscale>
<asrwt>0</asrwt>
<pdfrwt beam="1">  1        1 0.17767489E-01 0.12773084E+03</pdfrwt>
<pdfrwt beam="2">  1       -1 0.16806422E-01 0.12773084E+03</pdfrwt>
<totfact> 0.75134321E+03</totfact>
</mgrwt>
</event>
<event>
 7    1  0.6387485E-006  0.1382197E+03  0.7546771E-02  0.1240551E+00
          1   -1    0    0  501    0  0.00000000000E+00  0.00000000000E+00  0.23381498896E+03  0.23381498896E+03  0.00000000000E+00 0. -1.
         -1   -1    0    0    0  501 -0.00000000000E+00 -0.00000000000E+00 -0.59910263746E+02  0.59910263746E+02  0.00000000000E+00 0.  1.
         23    2    1    2    0    0 -0.22340389638E+02  0.54556022417E+02  0.54692145242E+02  0.14864698702E+03  0.12501697248E+03 0.  0.
          5    1    3    3  502    0 -0.56401899498E+02  0.42485487818E+02 -0.12826218140E+02  0.71922130210E+02  0.47000000000E+01 0. -1.
         -5    1    3    3    0  502  0.34061509860E+02  0.12070534600E+02  0.67518363382E+02  0.76724856815E+02  0.47000000000E+01 0. -1.
        -11    1    1    2    0    0  0.33211971318E+02 -0.16430040506E+02  0.84947378932E+02  0.92677065433E+02  0.00000000000E+00 0.  1.
         11    1    1    2    0    0 -0.10871581680E+02 -0.38125981912E+02  0.34265201035E+02  0.52401200243E+02  0.00000000000E+00 0. -1.
<mgrwt>
<rscale>  0 0.12155654E+03</rscale>
<asrwt>0</asrwt>
<pdfrwt beam="1">  1        1 0.35971536E-01 0.13821974E+03</pdfrwt>
<pdfrwt beam="2">  1       -1 0.92169638E-02 0.13821974E+03</pdfrwt>
<totfact> 0.78975990E+03</totfact>
</mgrwt>
</event>
<event>
 7    1  0.6387485E-006  0.1278904E+03  0.7546771E-02  0.1245293E+00
         -2   -1    0    0    0  501 -0.00000000000E+00  0.00000000000E+00  0.63336037005E+02  0.63336037005E+02  0.00000000000E+00 0.  1.
          2   -1    0    0  501    0  0.00000000000E+00 -0.00000000000E+00 -0.22736285484E+03  0.22736285484E+03  0.00000000000E+00 0. -1.
         23    2    1    2    0    0  0.26964323526E+02 -0.43481337493E+01 -0.38865542671E+02  0.13366555694E+03  0.12493986432E+03 0.  0.
          5    1    3    3  502    0 -0.43060598253E+02  0.88418882893E+01 -0.43607007343E+02  0.62097143250E+02  0.47000000000E+01 0. -1.
         -5    1    3    3    0  502  0.70024921779E+02 -0.13190022039E+02  0.47414646721E+01  0.71568413695E+02  0.47000000000E+01 0. -1.
        -11    1    1    2    0    0  0.26942316235E+02  0.11933582472E+02 -0.12695780088E+02  0.32085536099E+02  0.00000000000E+00 0.  1.
         11    1    1    2    0    0 -0.53906639761E+02 -0.75854487228E+01 -0.11246549508E+03  0.12494779880E+03  0.00000000000E+00 0. -1.
<mgrwt>
<rscale>  0 0.11867884E+03</rscale>
<asrwt>0</asrwt>
<pdfrwt beam="2">  1        2 0.34978900E-01 0.12789039E+03</pdfrwt>
<pdfrwt beam="1">  1       -2 0.97440058E-02 0.12789039E+03</pdfrwt>
<totfact> 0.96256601E+03</totfact>
</mgrwt>
</event>
<event>
 7    1  0.6387485E-006  0.1690204E+03  0.7546771E-02  0.1182116E+00
         -2   -1    0    0    0  501 -0.00000000000E+00  0.00000000000E+00  0.31015430226E+03  0.31015430226E+03  0.00000000000E+00 0. -1.
          2   -1    0    0  501    0  0.00000000000E+00 -0.00000000000E+00 -0.92638906699E+02  0.92638906699E+02  0.00000000000E+00 0.  1.
         23    2    1    2    0    0 -0.53931585401E+02  0.10015665848E+03  0.16729586164E+03  0.23781463807E+03  0.12501169792E+03 0.  0.
          5    1    3    3  502    0  0.19974693579E+02  0.78712013833E+02  0.12701204254E+03  0.15082678296E+03  0.47000000000E+01 0. -1.
         -5    1    3    3    0  502 -0.73906278980E+02  0.21444644650E+02  0.40283819091E+02  0.86987855114E+02  0.47000000000E+01 0. -1.
        -11    1    1    2    0    0  0.83683842843E+02 -0.94992637723E+02  0.44861172947E+02  0.13430975993E+03  0.00000000000E+00 0.  1.
         11    1    1    2    0    0 -0.29752257442E+02 -0.51640207604E+01  0.53583609801E+01  0.30668810960E+02  0.00000000000E+00 0. -1.
<mgrwt>
<rscale>  0 0.16597112E+03</rscale>
<asrwt>0</asrwt>
<pdfrwt beam="2">  1        2 0.14252140E-01 0.16902040E+03</pdfrwt>
<pdfrwt beam="1">  1       -2 0.47716046E-01 0.16902040E+03</pdfrwt>
<totfact> 0.17139026E+03</totfact>
</mgrwt>
</event>
<event>
 7    1  0.6387485E-006  0.1418518E+03  0.7546771E-02  0.1221743E+00
          3   -1    0    0  501    0  0.00000000000E+00  0.00000000000E+00  0.14029124925E+03  0.14029124925E+03  0.00000000000E+00 0. -1.
         -3   -1    0    0    0  501 -0.00000000000E+00 -0.00000000000E+00 -0.12795954926E+03  0.12795954926E+03  0.00000000000E+00 0.  1.
         23    2    1    2    0    0 -0.15119411784E+02  0.65332375051E+02 -0.34840764236E+02  0.14606784289E+03  0.12500008013E+03 0.  0.
          5    1    3    3  502    0 -0.46673097289E+02 -0.15098694293E+02  0.73134032383E+01  0.49818916556E+02  0.47000000000E+01 0. -1.
         -5    1    3    3    0  502  0.31553685505E+02  0.80431069345E+02 -0.42154167475E+02  0.96248926334E+02  0.47000000000E+01 0. -1.
        -11    1    1    2    0    0  0.11042354579E+01 -0.47080052983E+02 -0.20010455955E+02  0.51168047377E+02  0.00000000000E+00 0.  1.
         11    1    1    2    0    0  0.14015176326E+02 -0.18252322069E+02  0.67182920185E+02  0.71014908244E+02  0.00000000000E+00 0. -1.
<mgrwt>
<rscale>  0 0.13392643E+03</rscale>
<asrwt>0</asrwt>
<pdfrwt beam="1">  1        3 0.21583269E-01 0.14185181E+03</pdfrwt>
<pdfrwt beam="2">  1       -3 0.19686085E-01 0.14185181E+03</pdfrwt>
<totfact> 0.10494397E+03</totfact>
</mgrwt>
</event>
<event>
 7    1  0.6387485E-006  0.1864421E+03  0.7546771E-02  0.1167120E+00
         -1   -1    0    0    0  501 -0.00000000000E+00  0.00000000000E+00  0.22717730379E+02  0.22717730379E+02  0.00000000000E+00 0.  1.
          1   -1    0    0  501    0  0.00000000000E+00 -0.00000000000E+00 -0.14916770689E+04  0.14916770689E+04  0.00000000000E+00 0. -1.
         23    2    1    2    0    0 -0.13655029759E+03  0.22149023089E+02 -0.54788522570E+03  0.57873905056E+03  0.12499642041E+03 0.  0.
          5    1    3    3  502    0 -0.11010975350E+03  0.19783587271E+02 -0.53876744866E+03  0.55027993047E+03  0.47000000000E+01 0. -1.
         -5    1    3    3    0  502 -0.26440544094E+02  0.23654358181E+01 -0.91177770384E+01  0.28459120098E+02  0.47000000000E+01 0. -1.
        -11    1    1    2    0    0  0.46732027249E+02  0.34703092130E+02 -0.33520507107E+03  0.34022143766E+03  0.00000000000E+00 0. -1.
         11    1    1    2    0    0  0.89818270343E+02 -0.56852115218E+02 -0.58586904173E+03  0.59543431103E+03  0.00000000000E+00 0.  1.
<mgrwt>
<rscale>  0 0.18070801E+03</rscale>
<asrwt>0</asrwt>
<pdfrwt beam="2">  1        1 0.22948879E+00 0.18644213E+03</pdfrwt>
<pdfrwt beam="1">  1       -1 0.34950353E-02 0.18644213E+03</pdfrwt>
<totfact> 0.21780162E+03</totfact>
</mgrwt>
</event>
<event>
 7    1  0.6387485E-006  0.1262613E+03  0.7546771E-02  0.1248841E+00
         -1   -1    0    0    0  501 -0.00000000000E+00  0.00000000000E+00  0.67636597062E+02  0.67636597062E+02  0.00000000000E+00 0.  1.
          1   -1    0    0  501    0  0.00000000000E+00 -0.00000000000E+00 -0.31768014001E+03  0.31768014001E+03  0.00000000000E+00 0. -1.
         23    2    1    2    0    0 -0.17042403454E+02  0.30854135702E+01 -0.80660897689E+01  0.12651869067E+03  0.12506779758E+03 0.  0.
          5    1    3    3  502    0 -0.86021977815E+00  0.47221991237E+02  0.37797473061E+02  0.60674503741E+02  0.47000000000E+01 0.  1.
         -5    1    3    3    0  502 -0.16182183676E+02 -0.44136577667E+02 -0.45863562829E+02  0.65844186927E+02  0.47000000000E+01 0.  1.
        -11    1    1    2    0    0  0.24515976133E+02  0.40582409423E+02 -0.12028301530E+03  0.12929025025E+03  0.00000000000E+00 0.  1.
         11    1    1    2    0    0 -0.74735726786E+01 -0.43667822993E+02 -0.12169443788E+03  0.12950779616E+03  0.00000000000E+00 0. -1.
<mgrwt>
<rscale>  0 0.11658381E+03</rscale>
<asrwt>0</asrwt>
<pdfrwt beam="2">  1        1 0.48873868E-01 0.12626131E+03</pdfrwt>
<pdfrwt beam="1">  1       -1 0.10405630E-01 0.12626131E+03</pdfrwt>
<totfact> 0.44693818E+03</totfact>
</mgrwt>
</event>
<event>
 7    1  0.6387485E-006  0.1647823E+03  0.7546771E-02  0.1190059E+00
         -2   -1    0    0    0  501 -0.00000000000E+00  0.00000000000E+00  0.18921362781E+03  0.18921362781E+03  0.00000000000E+00 0.  1.
          2   -1    0    0  501    0  0.00000000000E+00 -0.00000000000E+00 -0.12506704113E+03  0.12506704113E+03  0.00000000000E+00 0. -1.
         23    2    1    2    0    0 -0.83571261284E+02 -0.67425820386E+02  0.45439435597E+02  0.17093263207E+03  0.12499130142E+03 0.  0.
          5    1    3    3  502    0 -0.19243202558E+02 -0.29326303447E+02 -0.42569498780E+02  0.55358695296E+02  0.47000000000E+01 0. -1.
         -5    1    3    3    0  502 -0.64328058726E+02 -0.38099516940E+02  0.88008934376E+02  0.11557393677E+03  0.47000000000E+01 0. -1.
        -11    1    1    2    0    0  0.23725637134E+02 -0.21694268156E+02  0.16128475902E+02  0.35967691935E+02  0.00000000000E+00 0.  1.
         11    1    1    2    0    0  0.59845624151E+02  0.89120088542E+02  0.25786751802E+01  0.10738034493E+03  0.00000000000E+00 0. -1.
<mgrwt>
<rscale>  0 0.15879925E+03</rscale>
<asrwt>0</asrwt>
<pdfrwt beam="2">  1        2 0.19241083E-01 0.16478235E+03</pdfrwt>
<pdfrwt beam="1">  1       -2 0.29109789E-01 0.16478235E+03</pdfrwt>
<totfact> 0.30533008E+03</totfact>
</mgrwt>
</event>
<event>
 7    1  0.6387485E-006  0.1305484E+03  0.7546771E-02  0.1247947E+00
         -2   -1    0    0    0  501 -0.00000000000E+00  0.00000000000E+00  0.41685160542E+02  0.41685160542E+02  0.00000000000E+00 0. -1.
          2   -1    0    0  501    0  0.00000000000E+00 -0.00000000000E+00 -0.28276310890E+03  0.28276310890E+03  0.00000000000E+00 0.  1.
         23    2    1    2    0    0 -0.35706687382E+02 -0.11999703861E+02 -0.12407306307E+03  0.18010280062E+03  0.12499573351E+03 0.  0.
          5    1    3    3  502    0  0.27907194618E+02 -0.25115141166E+02 -0.10595403208E+03  0.11250746082E+03  0.47000000000E+01 0. -1.
         -5    1    3    3    0  502 -0.63613882000E+02  0.13115437305E+02 -0.18119030992E+02  0.67595339802E+02  0.47000000000E+01 0. -1.
        -11    1    1    2    0    0  0.15164437870E+02  0.38668555588E+02 -0.96169893937E+02  0.10475622114E+03  0.00000000000E+00 0.  1.
         11    1    1    2    0    0  0.20542249512E+02 -0.26668851728E+02 -0.20834991357E+02  0.39589247686E+02  0.00000000000E+00 0. -1.
<mgrwt>
<rscale>  0 0.11710693E+03</rscale>
<asrwt>0</asrwt>
<pdfrwt beam="2">  1        2 0.43502016E-01 0.13054843E+03</pdfrwt>
<pdfrwt beam="1">  1       -2 0.64131017E-02 0.13054843E+03</pdfrwt>
<totfact> 0.14574535E+04</totfact>
</mgrwt>
</event>
<event>
 7    1  0.6387485E-006  0.2362137E+03  0.7546771E-02  0.1125141E+00
          1   -1    0    0  501    0  0.00000000000E+00  0.00000000000E+00  0.88500752370E+02  0.88500752370E+02  0.00000000000E+00 0. -1.
         -1   -1    0    0    0  501 -0.00000000000E+00 -0.00000000000E+00 -0.66756248422E+03  0.66756248422E+03  0.00000000000E+00 0.  1.
         23    2    1    2    0    0  0.17158900005E+03 -0.10357715949E+03 -0.42816278059E+03  0.48899925789E+03  0.12500357849E+03 0.  0.
          5    1    3    3  502    0  0.18737236900E+03 -0.96565524566E+02 -0.34822692420E+03  0.40708400354E+03  0.47000000000E+01 0. -1.
         -5    1    3    3    0  502 -0.15783368954E+02 -0.70116349285E+01 -0.79935856383E+02  0.81915254352E+02  0.47000000000E+01 0. -1.
        -11    1    1    2    0    0 -0.17742270498E+02  0.56790007308E+02 -0.43189355683E+02  0.73520157350E+02  0.00000000000E+00 0.  1.
         11    1    1    2    0    0 -0.15384672955E+03  0.46787152186E+02 -0.10770959558E+03  0.19354382135E+03  0.00000000000E+00 0. -1.
<mgrwt>
<rscale>  0 0.23214292E+03</rscale>
<asrwt>0</asrwt>
<pdfrwt beam="1">  1        1 0.13615500E-01 0.23621369E+03</pdfrwt>
<pdfrwt beam="2">  1       -1 0.10270192E+00 0.23621369E+03</pdfrwt>
<totfact> 0.40335222E+02</totfact>
</mgrwt>
</event>
<event>
 7    1  0.6387485E-006  0.1501587E+03  0.7546771E-02  0.1208974E+00
         -1   -1    0    0    0  501 -0.00000000000E+00  0.00000000000E+00  0.33331906437E+03  0.33331906437E+03  0.00000000000E+00 0.  1.
          1   -1    0    0  501    0  0.00000000000E+00 -0.00000000000E+00 -0.60478592901E+02  0.60478592901E+02  0.00000000000E+00 0. -1.
         23    2    1    2    0    0  0.83192511781E+02 -0.16129364371E+01  0.19812452865E+03  0.24859802492E+03  0.12499621418E+03 0.  0.
          5    1    3    3  502    0  0.10022246061E+03 -0.16867603184E+02  0.20079998865E+03  0.22510393841E+03  0.47000000000E+01 0. -1.
         -5    1    3    3    0  502 -0.17029948826E+02  0.15254666747E+02 -0.26754599979E+01  0.23494086507E+02  0.47000000000E+01 0. -1.
        -11    1    1    2    0    0 -0.37891049675E+02 -0.23746707516E+00  0.89759557034E+02  0.97429800959E+02  0.00000000000E+00 0.  1.
         11    1    1    2    0    0 -0.45301462106E+02  0.18504035123E+01 -0.15043614220E+02  0.47769831389E+02  0.00000000000E+00 0. -1.
<mgrwt>
<rscale>  0 0.14328676E+03</rscale>
<asrwt>0</asrwt>
<pdfrwt beam="2">  1        1 0.93043991E-02 0.15015875E+03</pdfrwt>
<pdfrwt beam="1">  1       -1 0.51279855E-01 0.15015875E+03</pdfrwt>
<totfact> 0.26930679E+03</totfact>
</mgrwt>
</event>
<event>
 7    1  0.6387485E-006  0.1337101E+03  0.7546771E-02  0.1234537E+00
          1   -1    0    0  501    0  0.00000000000E+00  0.00000000000E+00  0.56413331405E+03  0.56413331405E+03  0.00000000000E+00 0. -1.
         -1   -1    0    0    0  501 -0.00000000000E+00 -0.00000000000E+00 -0.24884102252E+02  0.24884102252E+02  0.00000000000E+00 0.  1.
         23    2    1    2    0    0 -0.23559394822E+02 -0.41208689389E+02  0.30614716835E+03  0.33407254626E+03  0.12500070524E+03 0.  0.
          5    1    3    3  502    0 -0.34214165643E+02 -0.10037474997E+02  0.11800608640E+02  0.37851081877E+02  0.47000000000E+01 0.  1.
         -5    1    3    3    0  502  0.10654770822E+02 -0.31171214392E+02  0.29434655971E+03  0.29622146439E+03  0.47000000000E+01 0.  1.
        -11    1    1    2    0    0  0.53596689157E+02  0.41603939759E+02  0.11929405325E+03  0.13723907618E+03  0.00000000000E+00 0.  1.
         11    1    1    2    0    0 -0.30037294336E+02 -0.39525037002E+00  0.11380799020E+03  0.11770579385E+03  0.00000000000E+00 0. -1.
<mgrwt>
<rscale>  0 0.12534134E+03</rscale>
<asrwt>0</asrwt>
<pdfrwt beam="1">  1        1 0.86789731E-01 0.13371005E+03</pdfrwt>
<pdfrwt beam="2">  1       -1 0.38283239E-02 0.13371005E+03</pdfrwt>
<totfact> 0.95980777E+03</totfact>
</mgrwt>
</event>
<event>
 7    1  0.6387485E-006  0.1377723E+03  0.7546771E-02  0.1228043E+00
         -2   -1    0    0    0  501 -0.00000000000E+00  0.00000000000E+00  0.74516442028E+02  0.74516442028E+02  0.00000000000E+00 0.  1.
          2   -1    0    0  501    0  0.00000000000E+00 -0.00000000000E+00 -0.21620203168E+03  0.21620203168E+03  0.00000000000E+00 0. -1.
         23    2    1    2    0    0 -0.56942220776E+01  0.57651009644E+02 -0.42547683522E+02  0.14419260230E+03  0.12500055242E+03 0.  0.
          5    1    3    3  502    0  0.52906579961E+02  0.96336779165E+01 -0.41815005131E+02  0.68282491222E+02  0.47000000000E+01 0. -1.
         -5    1    3    3    0  502 -0.58600802039E+02  0.48017331728E+02 -0.73267839140E+00  0.75910111075E+02  0.47000000000E+01 0. -1.
        -11    1    1    2    0    0 -0.16626577491E+02 -0.15444134814E+02  0.11924749454E+02  0.25635210722E+02  0.00000000000E+00 0.  1.
         11    1    1    2    0    0  0.22320799569E+02 -0.42206874830E+02 -0.11106265558E+03  0.12089066069E+03  0.00000000000E+00 0. -1.
<mgrwt>
<rscale>  0 0.12960523E+03</rscale>
<asrwt>0</asrwt>
<pdfrwt beam="2">  1        2 0.33261851E-01 0.13777228E+03</pdfrwt>
<pdfrwt beam="1">  1       -2 0.11464068E-01 0.13777228E+03</pdfrwt>
<totfact> 0.79043858E+03</totfact>
</mgrwt>
</event>
<event>
 7    1  0.6387485E-006  0.1420366E+03  0.7546771E-02  0.1222435E+00
         -2   -1    0    0    0  501 -0.00000000000E+00  0.00000000000E+00  0.92790797066E+03  0.92790797066E+03  0.00000000000E+00 0.  1.
          2   -1    0    0  501    0  0.00000000000E+00 -0.00000000000E+00 -0.19752951537E+02  0.19752951537E+02  0.00000000000E+00 0. -1.
         23    2    1    2    0    0  0.66071338591E+02  0.13559762434E+02  0.67225404642E+03  0.68709525876E+03  0.12500041099E+03 0.  0.
          5    1    3    3  502    0 -0.15094390095E+02 -0.30373766450E+02  0.71516840762E+02  0.79291580974E+02  0.47000000000E+01 0.  1.
         -5    1    3    3    0  502  0.81165728686E+02  0.43933528884E+02  0.60073720565E+03  0.60780367779E+03  0.47000000000E+01 0.  1.
        -11    1    1    2    0    0 -0.59254236475E+02 -0.99001952693E+00  0.23874152395E+03  0.24598691009E+03  0.00000000000E+00 0.  1.
         11    1    1    2    0    0 -0.68171021162E+01 -0.12569742907E+02 -0.28405512355E+01  0.14578753353E+02  0.00000000000E+00 0. -1.
<mgrwt>
<rscale>  0 0.13344303E+03</rscale>
<asrwt>0</asrwt>
<pdfrwt beam="2">  1        2 0.30389163E-02 0.14203659E+03</pdfrwt>
<pdfrwt beam="1">  1       -2 0.14275504E+00 0.14203659E+03</pdfrwt>
<totfact> 0.10748522E+03</totfact>
</mgrwt>
</event>
<event>
 7    1  0.6387485E-006  0.1309234E+03  0.7546771E-02  0.1253570E+00
          2   -1    0    0  501    0  0.00000000000E+00  0.00000000000E+00  0.27978222264E+03  0.27978222264E+03  0.00000000000E+00 0. -1.
         -2   -1    0    0    0  501 -0.00000000000E+00 -0.00000000000E+00 -0.40661260416E+02  0.40661260416E+02  0.00000000000E+00 0.  1.
         23    2    1    2    0    0 -0.46996558547E+02  0.83544139881E+01  0.10926166051E+03  0.17052582938E+03  0.12191175202E+03 0.  0.
          5    1    3    3  502    0 -0.87115957431E+02  0.14970226341E+02  0.86148266354E+02  0.12351887108E+03  0.47000000000E+01 0. -1.
         -5    1    3    3    0  502  0.40119398884E+02 -0.66158123530E+01  0.23113394157E+02  0.47006958308E+02  0.47000000000E+01 0.  1.
        -11    1    1    2    0    0 -0.10665628255E+02 -0.65604573305E+01  0.49086360188E+02  0.50658325900E+02  0.00000000000E+00 0. -1.
         11    1    1    2    0    0  0.57662186802E+02 -0.17939566577E+01  0.80772941521E+02  0.99259327770E+02  0.00000000000E+00 0.  1.
<mgrwt>
<rscale>  0 0.11386794E+03</rscale>
<asrwt>0</asrwt>
<pdfrwt beam="1">  1        2 0.43043418E-01 0.13092344E+03</pdfrwt>
<pdfrwt beam="2">  1       -2 0.62555787E-02 0.13092344E+03</pdfrwt>
<totfact> 0.15310561E+04</totfact>
</mgrwt>
</event>
<event>
 7    1  0.6387485E-006  0.1430410E+03  0.7546771E-02  0.1219411E+00
          2   -1    0    0  501    0  0.00000000000E+00  0.00000000000E+00  0.58723772607E+03  0.58723772607E+03  0.00000000000E+00 0. -1.
         -2   -1    0    0    0  501 -0.00000000000E+00 -0.00000000000E+00 -0.28632637235E+02  0.28632637235E+02  0.00000000000E+00 0.  1.
         23    2    1    2    0    0 -0.35690187575E+00  0.69536654133E+02  0.28395743577E+03  0.31795055516E+03  0.12500102621E+03 0.  0.
          5    1    3    3  502    0  0.39617374283E+02  0.88964529982E+02  0.17802342193E+03  0.20297451243E+03  0.47000000000E+01 0.  1.
         -5    1    3    3    0  502 -0.39974276159E+02 -0.19427875850E+02  0.10593401385E+03  0.11497604274E+03  0.47000000000E+01 0.  1.
        -11    1    1    2    0    0 -0.34325788894E+02 -0.36141074842E+02  0.60312517577E+02  0.78243446054E+02  0.00000000000E+00 0.  1.
         11    1    1    2    0    0  0.34682690770E+02 -0.33395579290E+02  0.21433513548E+03  0.21967636208E+03  0.00000000000E+00 0. -1.
<mgrwt>
<rscale>  0 0.13557460E+03</rscale>
<asrwt>0</asrwt>
<pdfrwt beam="1">  1        2 0.90344256E-01 0.14304101E+03</pdfrwt>
<pdfrwt beam="2">  1       -2 0.44050216E-02 0.14304101E+03</pdfrwt>
<totfact> 0.11741815E+04</totfact>
</mgrwt>
</event>
<event>
 7    1  0.6387485E-006  0.1592141E+03  0.7546771E-02  0.1197176E+00
          2   -1    0    0  501    0  0.00000000000E+00  0.00000000000E+00  0.37989883036E+03  0.37989883036E+03  0.00000000000E+00 0. -1.
         -2   -1    0    0    0  501 -0.00000000000E+00 -0.00000000000E+00 -0.64955269824E+02  0.64955269824E+02  0.00000000000E+00 0.  1.
         23    2    1    2    0    0 -0.78491465629E+01 -0.98290242751E+02  0.90717006495E+02  0.18324496443E+03  0.12500624304E+03 0.  0.
          5    1    3    3  502    0  0.14694769242E+01  0.29332154413E+02  0.27217000409E+02  0.40316122783E+02  0.47000000000E+01 0.  1.
         -5    1    3    3    0  502 -0.93186234871E+01 -0.12762239716E+03  0.63500006086E+02  0.14292884165E+03  0.47000000000E+01 0.  1.
        -11    1    1    2    0    0  0.37892633283E+02  0.94426900553E+02  0.14815011652E+03  0.17972408918E+03  0.00000000000E+00 0.  1.
         11    1    1    2    0    0 -0.30043486720E+02  0.38633421984E+01  0.76076437522E+02  0.81885046579E+02  0.00000000000E+00 0. -1.
<mgrwt>
<rscale>  0 0.15271478E+03</rscale>
<asrwt>0</asrwt>
<pdfrwt beam="1">  1        2 0.58445973E-01 0.15921414E+03</pdfrwt>
<pdfrwt beam="2">  1       -2 0.99931187E-02 0.15921414E+03</pdfrwt>
<totfact> 0.54339908E+03</totfact>
</mgrwt>
</event>
<event>
 7    1  0.6387485E-006  0.1362385E+03  0.7546771E-02  0.1230706E+00
          1   -1    0    0  501    0  0.00000000000E+00  0.00000000000E+00  0.42680847820E+03  0.42680847820E+03  0.00000000000E+00 0. -1.
         -1   -1    0    0    0  501 -0.00000000000E+00 -0.00000000000E+00 -0.47424957612E+02  0.47424957612E+02  0.00000000000E+00 0.  1.
         23    2    1    2    0    0  0.54179885825E+02 -0.80699507162E-01  0.82839728954E+02  0.15944697918E+03  0.12500180773E+03 0.  0.
          5    1    3    3  502    0  0.24849953340E+02 -0.15195560667E+02  0.11159417812E+03  0.11542866124E+03  0.47000000000E+01 0.  1.
         -5    1    3    3    0  502  0.29329932484E+02  0.15114861160E+02 -0.28754449167E+02  0.44018317941E+02  0.47000000000E+01 0.  1.
        -11    1    1    2    0    0  0.14145988913E+02 -0.13275469534E+02  0.14346002056E+02  0.24127885707E+02  0.00000000000E+00 0.  1.
         11    1    1    2    0    0 -0.68325874737E+02  0.13356169041E+02  0.28219778958E+03  0.29065857092E+03  0.00000000000E+00 0. -1.
<mgrwt>
<rscale>  0 0.12783369E+03</rscale>
<asrwt>0</asrwt>
<pdfrwt beam="1">  1        1 0.65662840E-01 0.13623846E+03</pdfrwt>
<pdfrwt beam="2">  1       -1 0.72961476E-02 0.13623846E+03</pdfrwt>
<totfact> 0.53089604E+03</totfact>
</mgrwt>
</event>
<event>
 7    1  0.6387485E-006  0.1434313E+03  0.7546771E-02  0.1218217E+00
          1   -1    0    0  501    0  0.00000000000E+00  0.00000000000E+00  0.11921253029E+03  0.11921253029E+03  0.00000000000E+00 0. -1.
         -1   -1    0    0    0  501 -0.00000000000E+00 -0.00000000000E+00 -0.15626788321E+03  0.15626788321E+03  0.00000000000E+00 0.  1.
         23    2    1    2    0    0 -0.40290083303E+01 -0.70223292473E+02 -0.60648287537E+02  0.15572654835E+03  0.12499999746E+03 0.  0.
          5    1    3    3  502    0  0.45048762730E+02  0.79074820649E+01 -0.40269354291E+02  0.61119801956E+02  0.47000000000E+01 0.  1.
         -5    1    3    3    0  502 -0.49077771060E+02 -0.78130774538E+02 -0.20378933246E+02  0.94606746389E+02  0.47000000000E+01 0.  1.
        -11    1    1    2    0    0 -0.13928179706E+02 -0.20116500688E+02  0.10864427072E+02  0.26771319830E+02  0.00000000000E+00 0. -1.
         11    1    1    2    0    0  0.17957188036E+02  0.90339793161E+02  0.12728507548E+02  0.92982545324E+02  0.00000000000E+00 0.  1.
<mgrwt>
<rscale>  0 0.13642888E+03</rscale>
<asrwt>0</asrwt>
<pdfrwt beam="1">  1        1 0.18340389E-01 0.14343132E+03</pdfrwt>
<pdfrwt beam="2">  1       -1 0.24041213E-01 0.14343132E+03</pdfrwt>
<totfact> 0.40894957E+03</totfact>
</mgrwt>
</event>
<event>
 6    1  0.6387485E-006  0.1801192E+03  0.7546771E-02  0.1200242E+00
          1   -1    0    0  501    0  0.00000000000E+00  0.00000000000E+00  0.30617788077E+03  0.30617788077E+03  0.00000000000E+00 0. -1.
         -1   -1    0    0    0  501 -0.00000000000E+00 -0.00000000000E+00 -0.64296787870E+02  0.64296787870E+02  0.00000000000E+00 0.  1.
          5    1    1    2  502    0  0.19888087277E+02  0.68680523163E+02  0.12097172175E+03  0.14060155668E+03  0.47000000000E+01 0. -1.
         -5    1    1    2    0  502  0.16061429551E+02 -0.64382110414E+02 -0.15257291413E+02  0.68248813923E+02  0.47000000000E+01 0.  1.
        -11    1    1    2    0    0 -0.17446936564E+02  0.34609083438E+02  0.92452145702E+02  0.10024761093E+03  0.00000000000E+00 0.  1.
         11    1    1    2    0    0 -0.18502580264E+02 -0.38907496187E+02  0.43714516858E+02  0.61376687106E+02  0.00000000000E+00 0. -1.
<mgrwt>
<rscale>  0 0.15018835E+03</rscale>
<asrwt>0</asrwt>
<pdfrwt beam="1">  1        1 0.47104289E-01 0.18011923E+03</pdfrwt>
<pdfrwt beam="2">  1       -1 0.98918137E-02 0.18011923E+03</pdfrwt>
<totfact> 0.51538339E+03</totfact>
</mgrwt>
</event>
<event>
 7    1  0.6387485E-006  0.1907157E+03  0.7546771E-02  0.1162570E+00
          3   -1    0    0  501    0  0.00000000000E+00  0.00000000000E+00  0.36884613012E+02  0.36884613012E+02  0.00000000000E+00 0. -1.
         -3   -1    0    0    0  501 -0.00000000000E+00 -0.00000000000E+00 -0.92274119511E+03  0.92274119511E+03  0.00000000000E+00 0.  1.
         23    2    1    2    0    0  0.11349138445E+03 -0.88705043120E+02 -0.56256656078E+03  0.59401483590E+03  0.12499444361E+03 0.  0.
          5    1    3    3  502    0  0.88282377093E+02 -0.67490317899E+02 -0.54528753419E+03  0.55651532419E+03  0.47000000000E+01 0. -1.
         -5    1    3    3    0  502  0.25209007355E+02 -0.21214725221E+02 -0.17279026590E+02  0.37499511702E+02  0.47000000000E+01 0. -1.
        -11    1    1    2    0    0  0.10515549705E+02  0.33231756363E+02 -0.62744709400E+02  0.71776214544E+02  0.00000000000E+00 0.  1.
         11    1    1    2    0    0 -0.12400693415E+03  0.55473286757E+02 -0.26054531191E+03  0.29383475768E+03  0.00000000000E+00 0. -1.
<mgrwt>
<rscale>  0 0.18551495E+03</rscale>
<asrwt>0</asrwt>
<pdfrwt beam="1">  1        3 0.56745562E-02 0.19071573E+03</pdfrwt>
<pdfrwt beam="2">  1       -3 0.14196018E+00 0.19071573E+03</pdfrwt>
<totfact> 0.17798879E+02</totfact>
</mgrwt>
</event>
<event>
 7    1  0.6387485E-006  0.2886142E+03  0.7546771E-02  0.1094000E+00
          2   -1    0    0  501    0  0.00000000000E+00  0.00000000000E+00  0.62383202947E+03  0.62383202947E+03  0.00000000000E+00 0. -1.
         -2   -1    0    0    0  501 -0.00000000000E+00 -0.00000000000E+00 -0.12584464925E+03  0.12584464925E+03  0.00000000000E+00 0.  1.
         23    2    1    2    0    0 -0.11313095838E+03  0.23425064498E+03  0.21090282111E+03  0.35746069278E+03  0.12500467395E+03 0.  0.
          5    1    3    3  502    0 -0.23268506152E+02  0.17020012304E+03  0.91063375346E+02  0.19448427595E+03  0.47000000000E+01 0.  1.
         -5    1    3    3    0  502 -0.89862452227E+02  0.64050521941E+02  0.11983944576E+03  0.16297641683E+03  0.47000000000E+01 0.  1.
        -11    1    1    2    0    0  0.85341700908E+02 -0.20716591338E+03  0.21594084774E+03  0.31117739524E+03  0.00000000000E+00 0.  1.
         11    1    1    2    0    0  0.27789257471E+02 -0.27084731600E+02  0.71143711363E+02  0.81038590703E+02  0.00000000000E+00 0. -1.
<mgrwt>
<rscale>  0 0.28311480E+03</rscale>
<asrwt>0</asrwt>
<pdfrwt beam="1">  1        2 0.95974156E-01 0.28861418E+03</pdfrwt>
<pdfrwt beam="2">  1       -2 0.19360716E-01 0.28861418E+03</pdfrwt>
<totfact> 0.10730538E+03</totfact>
</mgrwt>
</event>
<event>
 7    1  0.6387485E-006  0.2586825E+03  0.7546771E-02  0.1110108E+00
          2   -1    0    0  501    0  0.00000000000E+00  0.00000000000E+00  0.48222320888E+03  0.48222320888E+03  0.00000000000E+00 0. -1.
         -2   -1    0    0    0  501 -0.00000000000E+00 -0.00000000000E+00 -0.16774453683E+03  0.16774453683E+03  0.00000000000E+00 0.  1.
         23    2    1    2    0    0 -0.22647232221E+03 -0.11644997622E+01  0.94033701487E+01  0.25885340115E+03  0.12500236450E+03 0.  0.
          5    1    3    3  502    0 -0.71102263296E+02  0.51117309951E+02  0.31903825327E+02  0.93319104651E+02  0.47000000000E+01 0. -1.
         -5    1    3    3    0  502 -0.15537005892E+03 -0.52281809713E+02 -0.22500455178E+02  0.16553429650E+03  0.47000000000E+01 0. -1.
        -11    1    1    2    0    0  0.21103697858E+03 -0.45188410997E+01  0.22164333623E+03  0.30607645245E+03  0.00000000000E+00 0.  1.
         11    1    1    2    0    0  0.15435343635E+02  0.56833408619E+01  0.83431965681E+02  0.85037892106E+02  0.00000000000E+00 0. -1.
<mgrwt>
<rscale>  0 0.25512513E+03</rscale>
<asrwt>0</asrwt>
<pdfrwt beam="1">  1        2 0.74188185E-01 0.25868255E+03</pdfrwt>
<pdfrwt beam="2">  1       -2 0.25806852E-01 0.25868255E+03</pdfrwt>
<totfact> 0.87297617E+02</totfact>
</mgrwt>
</event>
<event>
 7    1  0.6387485E-006  0.2588481E+03  0.7546771E-02  0.1110302E+00
          2   -1    0    0  501    0  0.00000000000E+00  0.00000000000E+00  0.66663619015E+03  0.66663619015E+03  0.00000000000E+00 0. -1.
         -2   -1    0    0    0  501 -0.00000000000E+00 -0.00000000000E+00 -0.94475440615E+02  0.94475440615E+02  0.00000000000E+00 0.  1.
         23    2    1    2    0    0 -0.57419149006E+02  0.21927222746E+03  0.29639653847E+03  0.39351394576E+03  0.12500019634E+03 0.  0.
          5    1    3    3  502    0 -0.68434351002E+02  0.47844287916E+02  0.12810111276E+03  0.15298470961E+03  0.47000000000E+01 0. -1.
         -5    1    3    3    0  502  0.11015201996E+02  0.17142793954E+03  0.16829542571E+03  0.24052923616E+03  0.47000000000E+01 0. -1.
        -11    1    1    2    0    0 -0.27890447659E+01 -0.11612334770E+03  0.90848918123E+02  0.14746503509E+03  0.00000000000E+00 0. -1.
         11    1    1    2    0    0  0.60208193772E+02 -0.10314887976E+03  0.18491529294E+03  0.22013264991E+03  0.00000000000E+00 0.  1.
<mgrwt>
<rscale>  0 0.25480957E+03</rscale>
<asrwt>0</asrwt>
<pdfrwt beam="1">  1        2 0.10255941E+00 0.25884806E+03</pdfrwt>
<pdfrwt beam="2">  1       -2 0.14534684E-01 0.25884806E+03</pdfrwt>
<totfact> 0.16044346E+03</totfact>
</mgrwt>
</event>
<event>
 7    1  0.6387485E-006  0.1396200E+03  0.7546771E-02  0.1227285E+00
         -3   -1    0    0    0  501 -0.00000000000E+00  0.00000000000E+00  0.67077326592E+03  0.67077326592E+03  0.00000000000E+00 0.  1.
          3   -1    0    0  501    0  0.00000000000E+00 -0.00000000000E+00 -0.31329167602E+02  0.31329167602E+02  0.00000000000E+00 0. -1.
         23    2    1    2    0    0  0.51101034421E+02 -0.35456222809E+02  0.53821081696E+03  0.55602573883E+03  0.12500111717E+03 0.  0.
          5    1    3    3  502    0  0.55947376746E+02 -0.61267894041E+02  0.19749233206E+03  0.21426426446E+03  0.47000000000E+01 0.  1.
         -5    1    3    3    0  502 -0.48463423248E+01  0.25811671232E+02  0.34071848491E+03  0.34176147437E+03  0.47000000000E+01 0.  1.
        -11    1    1    2    0    0 -0.50864240670E+02 -0.14707335324E+02  0.37086868636E+02  0.64644508788E+02  0.00000000000E+00 0. -1.
         11    1    1    2    0    0 -0.23679375141E+00  0.50163558133E+02  0.64146412713E+02  0.81432185896E+02  0.00000000000E+00 0.  1.
<mgrwt>
<rscale>  0 0.13011525E+03</rscale>
<asrwt>0</asrwt>
<pdfrwt beam="2">  1        3 0.48198724E-02 0.13961998E+03</pdfrwt>
<pdfrwt beam="1">  1       -3 0.10319588E+00 0.13961998E+03</pdfrwt>
<totfact> 0.47424476E+02</totfact>
</mgrwt>
</event>
<event>
 7    1  0.6387485E-006  0.1401779E+03  0.7546771E-02  0.1226820E+00
          2   -1    0    0  501    0  0.00000000000E+00  0.00000000000E+00  0.48151059238E+03  0.48151059238E+03  0.00000000000E+00 0.  1.
         -2   -1    0    0    0  501 -0.00000000000E+00 -0.00000000000E+00 -0.32260917725E+02  0.32260917725E+02  0.00000000000E+00 0. -1.
         23    2    1    2    0    0  0.52284851346E+02  0.35926123432E+02  0.21022122167E+03  0.25267133998E+03  0.12500180793E+03 0.  0.
          5    1    3    3  502    0  0.74810777627E+02 -0.42349712538E+01  0.18567428671E+03  0.20027885105E+03  0.47000000000E+01 0.  1.
         -5    1    3    3    0  502 -0.22525926282E+02  0.40161094686E+02  0.24546934954E+02  0.52392488935E+02  0.47000000000E+01 0.  1.
        -11    1    1    2    0    0  0.17013326231E+02 -0.31271352141E+02  0.79219386544E+02  0.86850802752E+02  0.00000000000E+00 0. -1.
         11    1    1    2    0    0 -0.69298177576E+02 -0.46547712909E+01  0.15980906644E+03  0.17424936737E+03  0.00000000000E+00 0.  1.
<mgrwt>
<rscale>  0 0.13042907E+03</rscale>
<asrwt>0</asrwt>
<pdfrwt beam="1">  1        2 0.74078548E-01 0.14017790E+03</pdfrwt>
<pdfrwt beam="2">  1       -2 0.49632184E-02 0.14017790E+03</pdfrwt>
<totfact> 0.12227947E+04</totfact>
</mgrwt>
</event>
<event>
 7    1  0.6387485E-006  0.1485639E+03  0.7546771E-02  0.1212122E+00
          1   -1    0    0  501    0  0.00000000000E+00  0.00000000000E+00  0.19675050540E+03  0.19675050540E+03  0.00000000000E+00 0. -1.
         -1   -1    0    0    0  501 -0.00000000000E+00 -0.00000000000E+00 -0.94085291727E+02  0.94085291727E+02  0.00000000000E+00 0.  1.
         23    2    1    2    0    0 -0.34457748307E+02 -0.72523149566E+02  0.34009568912E+02  0.15240699493E+03  0.12499719071E+03 0.  0.
          5    1    3    3  502    0  0.44637682220E+02 -0.27022893415E+02  0.31233606704E+02  0.60994980369E+02  0.47000000000E+01 0. -1.
         -5    1    3    3    0  502 -0.79095430527E+02 -0.45500256151E+02  0.27759622081E+01  0.91412014561E+02  0.47000000000E+01 0. -1.
        -11    1    1    2    0    0 -0.25536731865E+02  0.91878513390E+01 -0.43756676040E+00  0.27142821358E+02  0.00000000000E+00 0. -1.
         11    1    1    2    0    0  0.59994480172E+02  0.63335298227E+02  0.69093211518E+02  0.11128598083E+03  0.00000000000E+00 0.  1.
<mgrwt>
<rscale>  0 0.14090114E+03</rscale>
<asrwt>0</asrwt>
<pdfrwt beam="1">  1        1 0.30269308E-01 0.14856393E+03</pdfrwt>
<pdfrwt beam="2">  1       -1 0.14474660E-01 0.14856393E+03</pdfrwt>
<totfact> 0.49016935E+03</totfact>
</mgrwt>
</event>
<event>
 7    1  0.6387485E-006  0.2689216E+03  0.7546771E-02  0.1103902E+00
         -2   -1    0    0    0  501 -0.00000000000E+00  0.00000000000E+00  0.26630435099E+03  0.26630435099E+03  0.00000000000E+00 0.  1.
          2   -1    0    0  501    0  0.00000000000E+00 -0.00000000000E+00 -0.26017301407E+03  0.26017301407E+03  0.00000000000E+00 0. -1.
         23    2    1    2    0    0 -0.23789616517E+03 -0.10006446498E+02  0.26893784984E+02  0.27026304110E+03  0.12499648532E+03 0.  0.
          5    1    3    3  502    0 -0.16287831346E+03 -0.58302284678E+01 -0.41830342368E+02  0.16833063923E+03  0.47000000000E+01 0.  1.
         -5    1    3    3    0  502 -0.75017851704E+02 -0.41762180301E+01  0.68724127352E+02  0.10193240187E+03  0.47000000000E+01 0.  1.
        -11    1    1    2    0    0  0.16089447123E+03  0.34635035105E+02  0.19796113514E+02  0.16576640986E+03  0.00000000000E+00 0.  1.
         11    1    1    2    0    0  0.77001693937E+02 -0.24628588607E+02 -0.40558561586E+02  0.90447914094E+02  0.00000000000E+00 0. -1.
<mgrwt>
<rscale>  0 0.26546818E+03</rscale>
<asrwt>0</asrwt>
<pdfrwt beam="2">  1        2 0.40026618E-01 0.26892162E+03</pdfrwt>
<pdfrwt beam="1">  1       -2 0.40969900E-01 0.26892162E+03</pdfrwt>
<totfact> 0.72814980E+02</totfact>
</mgrwt>
</event>
<event>
 7    1  0.6387485E-006  0.1611687E+03  0.7546771E-02  0.1193212E+00
          1   -1    0    0  501    0  0.00000000000E+00  0.00000000000E+00  0.32992795164E+03  0.32992795164E+03  0.00000000000E+00 0. -1.
         -1   -1    0    0    0  501 -0.00000000000E+00 -0.00000000000E+00 -0.70793291100E+02  0.70793291100E+02  0.00000000000E+00 0.  1.
         23    2    1    2    0    0 -0.93097734064E+02  0.41031828975E+02  0.11081736972E+03  0.19559099609E+03  0.12499819696E+03 0.  0.
          5    1    3    3  502    0 -0.58086793074E+02 -0.18339316078E+02 -0.43961087725E+01  0.61252116830E+02  0.47000000000E+01 0.  1.
         -5    1    3    3    0  502 -0.35010940990E+02  0.59371145053E+02  0.11521347849E+03  0.13433887926E+03  0.47000000000E+01 0.  1.
        -11    1    1    2    0    0 -0.14354328613E+02 -0.91703850584E+01  0.60195343024E+02  0.62558948471E+02  0.00000000000E+00 0. -1.
         11    1    1    2    0    0  0.10745206268E+03 -0.31861443917E+02  0.88121947801E+02  0.14257129819E+03  0.00000000000E+00 0.  1.
<mgrwt>
<rscale>  0 0.15606555E+03</rscale>
<asrwt>0</asrwt>
<pdfrwt beam="1">  1        1 0.50758146E-01 0.16116870E+03</pdfrwt>
<pdfrwt beam="2">  1       -1 0.10891276E-01 0.16116870E+03</pdfrwt>
<totfact> 0.40263471E+03</totfact>
</mgrwt>
</event>
<event>
 7    1  0.6387485E-006  0.2076637E+03  0.7546771E-02  0.1147188E+00
          1   -1    0    0  501    0  0.00000000000E+00  0.00000000000E+00  0.52944037788E+02  0.52944037788E+02  0.00000000000E+00 0. -1.
         -1   -1    0    0    0  501 -0.00000000000E+00 -0.00000000000E+00 -0.79934656494E+03  0.79934656494E+03  0.00000000000E+00 0.  1.
         23    2    1    2    0    0 -0.14140941534E+03  0.86628334093E+02 -0.49874791486E+03  0.54025334702E+03  0.12499242126E+03 0.  0.
          5    1    3    3  502    0 -0.11522482092E+03  0.48142801507E+02 -0.18635440997E+03  0.22437590069E+03  0.47000000000E+01 0. -1.
         -5    1    3    3    0  502 -0.26184594420E+02  0.38485532586E+02 -0.31239350489E+03  0.31587744633E+03  0.47000000000E+01 0. -1.
        -11    1    1    2    0    0  0.11485245377E+03 -0.10557343336E+03 -0.19047400190E+03  0.24620556730E+03  0.00000000000E+00 0. -1.
         11    1    1    2    0    0  0.26556961573E+02  0.18945099269E+02 -0.57180610390E+02  0.65831688410E+02  0.00000000000E+00 0.  1.
<mgrwt>
<rscale>  0 0.20305333E+03</rscale>
<asrwt>0</asrwt>
<pdfrwt beam="1">  1        1 0.81452366E-02 0.20766366E+03</pdfrwt>
<pdfrwt beam="2">  1       -1 0.12297639E+00 0.20766366E+03</pdfrwt>
<totfact> 0.52854610E+02</totfact>
</mgrwt>
</event>
<event>
 7    1  0.8192344E-006  0.1395387E+03  0.7546771E-02  0.1225914E+00
          1   -1    0    0  501    0  0.00000000000E+00  0.00000000000E+00  0.20750292653E+03  0.20750292653E+03  0.00000000000E+00 0. -1.
         -1   -1    0    0    0  501 -0.00000000000E+00 -0.00000000000E+00 -0.78529898329E+02  0.78529898329E+02  0.00000000000E+00 0.  1.
         23    2    1    2    0    0 -0.61960321198E+02  0.27854957526E+01  0.38557740444E+02  0.14476794676E+03  0.12499687464E+03 0.  0.
          5    1    3    3  502    0 -0.87178429063E+01  0.59809740928E+02  0.24338846807E+02  0.65327447208E+02  0.47000000000E+01 0. -1.
         -5    1    3    3    0  502 -0.53242478292E+02 -0.57024245176E+02  0.14218893637E+02  0.79440499550E+02  0.47000000000E+01 0. -1.
        -11    1    1    2    0    0  0.56625476541E+02 -0.24801578060E+02  0.16538332012E+02  0.63992806576E+02  0.00000000000E+00 0.  1.
         11    1    1    2    0    0  0.53348446564E+01  0.22016082307E+02  0.73876955742E+02  0.77272071523E+02  0.00000000000E+00 0. -1.
<mgrwt>
<rscale>  0 0.13104430E+03</rscale>
<asrwt>0</asrwt>
<pdfrwt beam="1">  1        1 0.31923527E-01 0.13953874E+03</pdfrwt>
<pdfrwt beam="2">  1       -1 0.12081523E-01 0.13953874E+03</pdfrwt>
<totfact> 0.60535408E+03</totfact>
</mgrwt>
</event>
<event>
 7    1  0.6387485E-006  0.1624851E+03  0.7546771E-02  0.1193277E+00
          1   -1    0    0  501    0  0.00000000000E+00  0.00000000000E+00  0.28931926132E+03  0.28931926132E+03  0.00000000000E+00 0. -1.
         -1   -1    0    0    0  501 -0.00000000000E+00 -0.00000000000E+00 -0.93124949743E+02  0.93124949743E+02  0.00000000000E+00 0.  1.
         23    2    1    2    0    0  0.30411828087E+02  0.99263788595E+02  0.28091943431E+02  0.16489560374E+03  0.12499289513E+03 0.  0.
          5    1    3    3  502    0  0.37590659023E+02  0.11690572928E+02 -0.37945741481E+02  0.54878925260E+02  0.47000000000E+01 0.  1.
         -5    1    3    3    0  502 -0.71788309360E+01  0.87573215666E+02  0.66037684912E+02  0.11001667848E+03  0.47000000000E+01 0.  1.
        -11    1    1    2    0    0 -0.41195362344E+02 -0.95625805934E+02  0.17543743360E+03  0.20400893546E+03  0.00000000000E+00 0. -1.
         11    1    1    2    0    0  0.10783534257E+02 -0.36379826610E+01 -0.73350654534E+01  0.13539671862E+02  0.00000000000E+00 0.  1.
<mgrwt>
<rscale>  0 0.15600952E+03</rscale>
<asrwt>0</asrwt>
<pdfrwt beam="1">  1        1 0.44510655E-01 0.16248509E+03</pdfrwt>
<pdfrwt beam="2">  1       -1 0.14326915E-01 0.16248509E+03</pdfrwt>
<totfact> 0.30981855E+03</totfact>
</mgrwt>
</event>
<event>
 7    1  0.6387485E-006  0.1364261E+03  0.7546771E-02  0.1230561E+00
         -2   -1    0    0    0  501 -0.00000000000E+00  0.00000000000E+00  0.12502669229E+03  0.12502669229E+03  0.00000000000E+00 0.  1.
          2   -1    0    0  501    0  0.00000000000E+00 -0.00000000000E+00 -0.13793956354E+03  0.13793956354E+03  0.00000000000E+00 0. -1.
         23    2    1    2    0    0 -0.19874669156E+02 -0.50908232830E+02  0.43694973438E+02  0.14325272040E+03  0.12500176221E+03 0.  0.
          5    1    3    3  502    0 -0.72296753857E+02 -0.19090558384E+02  0.23661555867E+02  0.78569900495E+02  0.47000000000E+01 0.  1.
         -5    1    3    3    0  502  0.52422084701E+02 -0.31817674446E+02  0.20033417570E+02  0.64682819906E+02  0.47000000000E+01 0.  1.
        -11    1    1    2    0    0  0.88884965168E+01  0.19697132017E+02  0.24169873222E+02  0.32421677187E+02  0.00000000000E+00 0.  1.
         11    1    1    2    0    0  0.10986172640E+02  0.31211100813E+02 -0.80777717910E+02  0.87291858234E+02  0.00000000000E+00 0. -1.
<mgrwt>
<rscale>  0 0.12792926E+03</rscale>
<asrwt>0</asrwt>
<pdfrwt beam="2">  1        2 0.21221471E-01 0.13642614E+03</pdfrwt>
<pdfrwt beam="1">  1       -2 0.19234876E-01 0.13642614E+03</pdfrwt>
<totfact> 0.55525636E+03</totfact>
</mgrwt>
</event>
<event>
 7    1  0.6387485E-006  0.1651717E+03  0.7546771E-02  0.1190072E+00
         -1   -1    0    0    0  501 -0.00000000000E+00  0.00000000000E+00  0.10056717532E+03  0.10056717532E+03  0.00000000000E+00 0.  1.
          1   -1    0    0  501    0  0.00000000000E+00 -0.00000000000E+00 -0.24705909170E+03  0.24705909170E+03  0.00000000000E+00 0. -1.
         23    2    1    2    0    0  0.11190228402E+02  0.10738459428E+03 -0.37568193425E+02  0.16939027339E+03  0.12500009305E+03 0.  0.
          5    1    3    3  502    0 -0.20540478360E+02 -0.22827908597E+02 -0.69768414215E+01  0.31840084459E+02  0.47000000000E+01 0. -1.
         -5    1    3    3    0  502  0.31730706761E+02  0.13021250288E+03 -0.30591352003E+02  0.13755018893E+03  0.47000000000E+01 0. -1.
        -11    1    1    2    0    0  0.17475653179E+02 -0.82905752034E+02 -0.28459226248E+02  0.89379470422E+02  0.00000000000E+00 0.  1.
         11    1    1    2    0    0 -0.28665881581E+02 -0.24478842248E+02 -0.80464496709E+02  0.88856523200E+02  0.00000000000E+00 0. -1.
<mgrwt>
<rscale>  0 0.15878829E+03</rscale>
<asrwt>0</asrwt>
<pdfrwt beam="2">  1        1 0.38009091E-01 0.16517172E+03</pdfrwt>
<pdfrwt beam="1">  1       -1 0.15471873E-01 0.16517172E+03</pdfrwt>
<totfact> 0.33428218E+03</totfact>
</mgrwt>
</event>
<event>
 7    1  0.6387485E-006  0.1740854E+03  0.7546771E-02  0.1179719E+00
         -1   -1    0    0    0  501 -0.00000000000E+00  0.00000000000E+00  0.35171002247E+03  0.35171002247E+03  0.00000000000E+00 0.  1.
          1   -1    0    0  501    0  0.00000000000E+00 -0.00000000000E+00 -0.15812994351E+03  0.15812994351E+03  0.00000000000E+00 0. -1.
         23    2    1    2    0    0 -0.11236387340E+03 -0.45332826524E+02  0.28404536780E+03  0.33314784846E+03  0.12500005104E+03 0.  0.
          5    1    3    3  502    0 -0.20927773420E+02  0.29108653921E+02  0.15119684753E+03  0.15546016254E+03  0.47000000000E+01 0. -1.
         -5    1    3    3    0  502 -0.91436099983E+02 -0.74441480445E+02  0.13284852026E+03  0.17768768592E+03  0.47000000000E+01 0. -1.
        -11    1    1    2    0    0  0.77823933549E+02  0.11254284169E+02 -0.54718394070E+01  0.78823629527E+02  0.00000000000E+00 0.  1.
         11    1    1    2    0    0  0.34539939853E+02  0.34078542355E+02 -0.84993449431E+02  0.97868487984E+02  0.00000000000E+00 0. -1.
<mgrwt>
<rscale>  0 0.16821818E+03</rscale>
<asrwt>0</asrwt>
<pdfrwt beam="2">  1        1 0.24327684E-01 0.17408538E+03</pdfrwt>
<pdfrwt beam="1">  1       -1 0.54109234E-01 0.17408538E+03</pdfrwt>
<totfact> 0.70148840E+02</totfact>
</mgrwt>
</event>
<event>
 7    1  0.6387485E-006  0.3765289E+03  0.7546771E-02  0.1053169E+00
         -2   -1    0    0    0  501 -0.00000000000E+00  0.00000000000E+00  0.31005216361E+03  0.31005216361E+03  0.00000000000E+00 0.  1.
          2   -1    0    0  501    0  0.00000000000E+00 -0.00000000000E+00 -0.49082666577E+03  0.49082666577E+03  0.00000000000E+00 0. -1.
         23    2    1    2    0    0  0.17425709691E+03  0.30948085332E+03  0.30541897241E+02  0.37776561101E+03  0.12502045825E+03 0.  0.
          5    1    3    3  502    0  0.64380561203E+02  0.34855129839E+02  0.36366808717E+02  0.81880226631E+02  0.47000000000E+01 0. -1.
         -5    1    3    3    0  502  0.10987653571E+03  0.27462572348E+03 -0.58249114761E+01  0.29588538438E+03  0.47000000000E+01 0. -1.
        -11    1    1    2    0    0 -0.69850402496E+02 -0.15521990191E+03 -0.15038257998E+03  0.22712819517E+03  0.00000000000E+00 0. -1.
         11    1    1    2    0    0 -0.10440669442E+03 -0.15426095141E+03 -0.60933819423E+02  0.19598502320E+03  0.00000000000E+00 0.  1.
<mgrwt>
<rscale>  0 0.37401295E+03</rscale>
<asrwt>0</asrwt>
<pdfrwt beam="2">  1        2 0.75511795E-01 0.37652895E+03</pdfrwt>
<pdfrwt beam="1">  1       -2 0.47700333E-01 0.37652895E+03</pdfrwt>
<totfact> 0.26860819E+02</totfact>
</mgrwt>
</event>
<event>
 7    1  0.6387485E-006  0.1684139E+03  0.7546771E-02  0.1185755E+00
         -1   -1    0    0    0  501 -0.00000000000E+00  0.00000000000E+00  0.79973019234E+02  0.79973019234E+02  0.00000000000E+00 0.  1.
          1   -1    0    0  501    0  0.00000000000E+00 -0.00000000000E+00 -0.56327697767E+03  0.56327697767E+03  0.00000000000E+00 0. -1.
         23    2    1    2    0    0 -0.60263124870E+02 -0.95427670136E+02 -0.35513295827E+02  0.17211749197E+03  0.12500060966E+03 0.  0.
          5    1    3    3  502    0 -0.15652539497E+01 -0.89834386203E+02  0.18685572332E+02  0.91890737170E+02  0.47000000000E+01 0.  1.
         -5    1    3    3    0  502 -0.58697870921E+02 -0.55932839327E+01 -0.54198868158E+02  0.80226754798E+02  0.47000000000E+01 0.  1.
        -11    1    1    2    0    0 -0.10106333769E+02  0.28344543590E+02 -0.31198307071E+02  0.43346112832E+02  0.00000000000E+00 0.  1.
         11    1    1    2    0    0  0.70369458639E+02  0.67083126546E+02 -0.41659235554E+03  0.42778639211E+03  0.00000000000E+00 0. -1.
<mgrwt>
<rscale>  0 0.16263358E+03</rscale>
<asrwt>0</asrwt>
<pdfrwt beam="2">  1        1 0.86657998E-01 0.16841389E+03</pdfrwt>
<pdfrwt beam="1">  1       -1 0.12303541E-01 0.16841389E+03</pdfrwt>
<totfact> 0.16772416E+03</totfact>
</mgrwt>
</event>
<event>
 7    1  0.6387485E-006  0.1340000E+03  0.7546771E-02  0.1235453E+00
         -1   -1    0    0    0  501 -0.00000000000E+00  0.00000000000E+00  0.55118475540E+03  0.55118475540E+03  0.00000000000E+00 0.  1.
          1   -1    0    0  501    0  0.00000000000E+00 -0.00000000000E+00 -0.26815125138E+02  0.26815125138E+02  0.00000000000E+00 0. -1.
         23    2    1    2    0    0 -0.27321928310E+02 -0.39788504491E+02  0.37178718698E+03  0.39519830740E+03  0.12500550753E+03 0.  0.
          5    1    3    3  502    0  0.29873765395E+02  0.27482947210E+01  0.26492155549E+03  0.26665617477E+03  0.47000000000E+01 0.  1.
         -5    1    3    3    0  502 -0.57195693705E+02 -0.42536799212E+02  0.10686563150E+03  0.12854213263E+03  0.47000000000E+01 0.  1.
        -11    1    1    2    0    0  0.20330060031E+02 -0.21185070568E+02  0.91969226643E+02  0.96542515013E+02  0.00000000000E+00 0.  1.
         11    1    1    2    0    0  0.69918682788E+01  0.60973575058E+02  0.60613216638E+02  0.86259058125E+02  0.00000000000E+00 0. -1.
<mgrwt>
<rscale>  0 0.12475459E+03</rscale>
<asrwt>0</asrwt>
<pdfrwt beam="2">  1        1 0.41254043E-02 0.13399996E+03</pdfrwt>
<pdfrwt beam="1">  1       -1 0.84797646E-01 0.13399996E+03</pdfrwt>
<totfact> 0.30260237E+03</totfact>
</mgrwt>
</event>
<event>
 7    1  0.6387485E-006  0.1358535E+03  0.7546771E-02  0.1231709E+00
          3   -1    0    0  501    0  0.00000000000E+00  0.00000000000E+00  0.18708057621E+03  0.18708057621E+03  0.00000000000E+00 0. -1.
         -3   -1    0    0    0  501 -0.00000000000E+00 -0.00000000000E+00 -0.78405346219E+02  0.78405346219E+02  0.00000000000E+00 0.  1.
         23    2    1    2    0    0 -0.51510718771E+02 -0.13252930290E+02  0.44283985801E+02  0.14288891738E+03  0.12500870770E+03 0.  0.
          5    1    3    3  502    0 -0.67148674279E+02  0.18999003398E+02 -0.16779289985E+02  0.71927332496E+02  0.47000000000E+01 0. -1.
         -5    1    3    3    0  502  0.15637955508E+02 -0.32251933688E+02  0.61063275787E+02  0.70961584882E+02  0.47000000000E+01 0. -1.
        -11    1    1    2    0    0  0.28248634095E+02  0.25014708228E+01 -0.19803048999E+02  0.34589065240E+02  0.00000000000E+00 0.  1.
         11    1    1    2    0    0  0.23262084676E+02  0.10751459467E+02  0.84194293187E+02  0.88007939809E+02  0.00000000000E+00 0. -1.
<mgrwt>
<rscale>  0 0.12717468E+03</rscale>
<asrwt>0</asrwt>
<pdfrwt beam="1">  1        3 0.28781627E-01 0.13585349E+03</pdfrwt>
<pdfrwt beam="2">  1       -3 0.12062361E-01 0.13585349E+03</pdfrwt>
<totfact> 0.14362129E+03</totfact>
</mgrwt>
</event>
<event>
 6    1  0.6387485E-006  0.3328918E+03  0.7546771E-02  0.1099871E+00
         -2   -1    0    0    0  501 -0.00000000000E+00  0.00000000000E+00  0.77832508166E+02  0.77832508166E+02  0.00000000000E+00 0.  1.
          2   -1    0    0  501    0  0.00000000000E+00 -0.00000000000E+00 -0.77727307006E+03  0.77727307006E+03  0.00000000000E+00 0. -1.
          5    1    1    2  502    0 -0.92854814356E+02  0.13237201714E+03 -0.26561142764E+03  0.31099178118E+03  0.47000000000E+01 0. -1.
         -5    1    1    2    0  502 -0.26905013830E+02 -0.15818481666E+03 -0.13394842130E+03  0.20907076687E+03  0.47000000000E+01 0.  1.
        -11    1    1    2    0    0 -0.19835884823E+00 -0.16386410589E+02 -0.74326859514E+02  0.76111995398E+02  0.00000000000E+00 0.  1.
         11    1    1    2    0    0  0.11995818703E+03  0.42199210110E+02 -0.22555385345E+03  0.25893103479E+03  0.00000000000E+00 0. -1.
<mgrwt>
<rscale>  0 0.27247537E+03</rscale>
<asrwt>0</asrwt>
<pdfrwt beam="2">  1        2 0.11958047E+00 0.33289185E+03</pdfrwt>
<pdfrwt beam="1">  1       -2 0.11974232E-01 0.33289185E+03</pdfrwt>
<totfact> 0.18275481E+03</totfact>
</mgrwt>
</event>
<event>
 6    1  0.6387485E-006  0.1939979E+03  0.7546771E-02  0.1184154E+00
          2   -1    0    0  501    0  0.00000000000E+00  0.00000000000E+00  0.31446933896E+03  0.31446933896E+03  0.00000000000E+00 0. -1.
         -2   -1    0    0    0  501 -0.00000000000E+00 -0.00000000000E+00 -0.73424489247E+02  0.73424489247E+02  0.00000000000E+00 0.  1.
          5    1    1    2  502    0 -0.13421880805E+02  0.55494495333E+02  0.12739876463E+03  0.13968651018E+03  0.47000000000E+01 0. -1.
         -5    1    1    2    0  502 -0.15493734435E+02 -0.78752945001E+02 -0.18898718785E+02  0.82591365922E+02  0.47000000000E+01 0.  1.
        -11    1    1    2    0    0  0.50952967837E+02  0.43466210434E+02  0.73532946285E+02  0.99461603497E+02  0.00000000000E+00 0. -1.
         11    1    1    2    0    0 -0.22037352596E+02 -0.20207760766E+02  0.59011857580E+02  0.66154348607E+02  0.00000000000E+00 0.  1.
<mgrwt>
<rscale>  0 0.16409120E+03</rscale>
<asrwt>0</asrwt>
<pdfrwt beam="1">  1        2 0.48379898E-01 0.19399792E+03</pdfrwt>
<pdfrwt beam="2">  1       -2 0.11296075E-01 0.19399792E+03</pdfrwt>
<totfact> 0.55336080E+03</totfact>
</mgrwt>
</event>
<event>
 7    1  0.6387485E-006  0.1671199E+03  0.7546771E-02  0.1187632E+00
         -1   -1    0    0    0  501 -0.00000000000E+00  0.00000000000E+00  0.37559110197E+02  0.37559110197E+02  0.00000000000E+00 0.  1.
          1   -1    0    0  501    0  0.00000000000E+00 -0.00000000000E+00 -0.66678423429E+03  0.66678423429E+03  0.00000000000E+00 0. -1.
         23    2    1    2    0    0 -0.58319776207E+02 -0.94359239282E+02 -0.40333273185E+03  0.43658486183E+03  0.12499674662E+03 0.  0.
          5    1    3    3  502    0  0.37441033052E+02 -0.10646370641E+02 -0.79667124432E+02  0.88792549682E+02  0.47000000000E+01 0.  1.
         -5    1    3    3    0  502 -0.95760809258E+02 -0.83712868641E+02 -0.32366560742E+03  0.34779231215E+03  0.47000000000E+01 0.  1.
        -11    1    1    2    0    0 -0.13683077943E+02  0.64148144290E+02 -0.98532023275E+02  0.11836710121E+03  0.00000000000E+00 0. -1.
         11    1    1    2    0    0  0.72002854149E+02  0.30211094992E+02 -0.12736036897E+03  0.14939138144E+03  0.00000000000E+00 0.  1.
<mgrwt>
<rscale>  0 0.16094643E+03</rscale>
<asrwt>0</asrwt>
<pdfrwt beam="2">  1        1 0.10258218E+00 0.16711986E+03</pdfrwt>
<pdfrwt beam="1">  1       -1 0.57783251E-02 0.16711986E+03</pdfrwt>
<totfact> 0.41959617E+03</totfact>
</mgrwt>
</event>
<event>
 7    1  0.6387485E-006  0.2424942E+03  0.7546771E-02  0.1120331E+00
         -1   -1    0    0    0  501 -0.00000000000E+00  0.00000000000E+00  0.74689689430E+02  0.74689689430E+02  0.00000000000E+00 0.  1.
          1   -1    0    0  501    0  0.00000000000E+00 -0.00000000000E+00 -0.75983103360E+03  0.75983103360E+03  0.00000000000E+00 0. -1.
         23    2    1    2    0    0  0.17932193048E+03 -0.10498716545E+03 -0.29523836234E+03  0.38205908964E+03  0.12499919088E+03 0.  0.
          5    1    3    3  502    0 -0.19290279605E+02 -0.10915578185E+02 -0.29126196186E+02  0.36901084518E+02  0.47000000000E+01 0. -1.
         -5    1    3    3    0  502  0.19861221009E+03 -0.94071587261E+02 -0.26611216615E+03  0.34515800512E+03  0.47000000000E+01 0. -1.
        -11    1    1    2    0    0 -0.92531210728E+02  0.77083797631E+02 -0.30486837680E+03  0.32779363018E+03  0.00000000000E+00 0. -1.
         11    1    1    2    0    0 -0.86790719753E+02  0.27903367816E+02 -0.85034605033E+02  0.12466800321E+03  0.00000000000E+00 0.  1.
<mgrwt>
<rscale>  0 0.23919357E+03</rscale>
<asrwt>0</asrwt>
<pdfrwt beam="2">  1        1 0.11689708E+00 0.24249424E+03</pdfrwt>
<pdfrwt beam="1">  1       -1 0.11490721E-01 0.24249424E+03</pdfrwt>
<totfact> 0.12239386E+03</totfact>
</mgrwt>
</event>
<event>
 7    1  0.6387485E-006  0.1304682E+03  0.7546771E-02  0.1239119E+00
          4   -1    0    0  501    0  0.00000000000E+00  0.00000000000E+00  0.24129170289E+03  0.24129170289E+03  0.00000000000E+00 0.  1.
         -4   -1    0    0    0  501 -0.00000000000E+00 -0.00000000000E+00 -0.55872210156E+02  0.55872210156E+02  0.00000000000E+00 0. -1.
         23    2    1    2    0    0 -0.15686144884E+02  0.33931758116E+02  0.94322862138E+02  0.16099304381E+03  0.12499815392E+03 0.  0.
          5    1    3    3  502    0 -0.38684422225E+02  0.62171569269E+02  0.16889819530E+02  0.75293721863E+02  0.47000000000E+01 0. -1.
         -5    1    3    3    0  502  0.22998277341E+02 -0.28239811153E+02  0.77433042607E+02  0.85699321946E+02  0.47000000000E+01 0. -1.
        -11    1    1    2    0    0 -0.17504636124E+02 -0.50604661100E+01  0.90354939519E+02  0.92173942622E+02  0.00000000000E+00 0.  1.
         11    1    1    2    0    0  0.33190781008E+02 -0.28871292006E+02  0.74169107835E+00  0.43996926616E+02  0.00000000000E+00 0. -1.
<mgrwt>
<rscale>  0 0.12244380E+03</rscale>
<asrwt>0</asrwt>
<pdfrwt beam="1">  1        4 0.37121800E-01 0.13046823E+03</pdfrwt>
<pdfrwt beam="2">  1       -4 0.85957248E-02 0.13046823E+03</pdfrwt>
<totfact> 0.11291346E+03</totfact>
</mgrwt>
</event>
<event>
 7    1  0.6387485E-006  0.1268772E+03  0.7546771E-02  0.1247282E+00
         -1   -1    0    0    0  501 -0.00000000000E+00  0.00000000000E+00  0.37476702130E+02  0.37476702130E+02  0.00000000000E+00 0.  1.
          1   -1    0    0  501    0  0.00000000000E+00 -0.00000000000E+00 -0.34583261055E+03  0.34583261055E+03  0.00000000000E+00 0. -1.
         23    2    1    2    0    0  0.20678978423E+02 -0.67964924205E+01 -0.12792337626E+03  0.18017272340E+03  0.12499603037E+03 0.  0.
          5    1    3    3  502    0 -0.30544994689E+02  0.33435894342E+02 -0.11943089724E+02  0.47071043362E+02  0.47000000000E+01 0. -1.
         -5    1    3    3    0  502  0.51223973112E+02 -0.40232386763E+02 -0.11598028653E+03  0.13310168004E+03  0.47000000000E+01 0. -1.
        -11    1    1    2    0    0  0.73681898993E+01 -0.37609668179E+02 -0.99812943266E+02  0.10691773008E+03  0.00000000000E+00 0. -1.
         11    1    1    2    0    0 -0.28047168323E+02  0.44406160600E+02 -0.80619588901E+02  0.96218859195E+02  0.00000000000E+00 0.  1.
<mgrwt>
<rscale>  0 0.11749815E+03</rscale>
<asrwt>0</asrwt>
<pdfrwt beam="2">  1        1 0.53205014E-01 0.12687718E+03</pdfrwt>
<pdfrwt beam="1">  1       -1 0.57656468E-02 0.12687718E+03</pdfrwt>
<totfact> 0.97804694E+03</totfact>
</mgrwt>
</event>
<event>
 7    1  0.6387485E-006  0.1338229E+03  0.7546771E-02  0.1235004E+00
         -1   -1    0    0    0  501 -0.00000000000E+00  0.00000000000E+00  0.68088857952E+02  0.68088857952E+02  0.00000000000E+00 0.  1.
          1   -1    0    0  501    0  0.00000000000E+00 -0.00000000000E+00 -0.30052081900E+03  0.30052081900E+03  0.00000000000E+00 0. -1.
         23    2    1    2    0    0 -0.31466746702E+02  0.35959526726E+02 -0.23176460294E+02  0.13581500292E+03  0.12500129197E+03 0.  0.
          5    1    3    3  502    0 -0.53269400387E+02 -0.18075917345E+02  0.23364753742E+02  0.61093121731E+02  0.47000000000E+01 0.  1.
         -5    1    3    3    0  502  0.21802653686E+02  0.54035444071E+02 -0.46541214035E+02  0.74721881184E+02  0.47000000000E+01 0.  1.
        -11    1    1    2    0    0  0.51091099507E+02  0.65755284849E+01 -0.78415160101E+02  0.93821507968E+02  0.00000000000E+00 0.  1.
         11    1    1    2    0    0 -0.19624352805E+02 -0.42535055211E+02 -0.13084034065E+03  0.13897316607E+03  0.00000000000E+00 0. -1.
<mgrwt>
<rscale>  0 0.12504193E+03</rscale>
<asrwt>0</asrwt>
<pdfrwt beam="2">  1        1 0.46233972E-01 0.13382289E+03</pdfrwt>
<pdfrwt beam="1">  1       -1 0.10475209E-01 0.13382289E+03</pdfrwt>
<totfact> 0.47544554E+03</totfact>
</mgrwt>
</event>
<event>
 7    1  0.6387485E-006  0.1572232E+03  0.7546771E-02  0.1199625E+00
         -2   -1    0    0    0  501 -0.00000000000E+00  0.00000000000E+00  0.11749412030E+03  0.11749412030E+03  0.00000000000E+00 0.  1.
          2   -1    0    0  501    0  0.00000000000E+00 -0.00000000000E+00 -0.18612405956E+03  0.18612405956E+03  0.00000000000E+00 0. -1.
         23    2    1    2    0    0  0.40289862429E+02  0.86414703251E+02 -0.71517413118E+01  0.15738577547E+03  0.12501344313E+03 0.  0.
          5    1    3    3  502    0  0.38745263993E+02 -0.21967935384E+02 -0.18169579330E+02  0.48332279896E+02  0.47000000000E+01 0. -1.
         -5    1    3    3    0  502  0.15445984365E+01  0.10838263863E+03  0.11017838018E+02  0.10905349557E+03  0.47000000000E+01 0. -1.
        -11    1    1    2    0    0 -0.36909264045E+02 -0.98462949316E+02 -0.25586157371E+02  0.10822152101E+03  0.00000000000E+00 0.  1.
         11    1    1    2    0    0 -0.33805983840E+01  0.12048246065E+02 -0.35892040584E+02  0.38010883388E+02  0.00000000000E+00 0. -1.
<mgrwt>
<rscale>  0 0.15069192E+03</rscale>
<asrwt>0</asrwt>
<pdfrwt beam="2">  1        2 0.28634471E-01 0.15722320E+03</pdfrwt>
<pdfrwt beam="1">  1       -2 0.18076018E-01 0.15722320E+03</pdfrwt>
<totfact> 0.44615766E+03</totfact>
</mgrwt>
</event>
<event>
 7    1  0.6387485E-006  0.1712388E+03  0.7546771E-02  0.1182461E+00
          2   -1    0    0  501    0  0.00000000000E+00  0.00000000000E+00  0.98396030666E+03  0.98396030666E+03  0.00000000000E+00 0. -1.
         -2   -1    0    0    0  501 -0.00000000000E+00 -0.00000000000E+00 -0.26575080017E+02  0.26575080017E+02  0.00000000000E+00 0.  1.
         23    2    1    2    0    0 -0.20272682933E+02 -0.11526401830E+03  0.45105306608E+03  0.48246409431E+03  0.12500383308E+03 0.  0.
          5    1    3    3  502    0 -0.52102478751E+02 -0.98012449106E+02  0.20013827426E+03  0.22890724605E+03  0.47000000000E+01 0. -1.
         -5    1    3    3    0  502  0.31829795818E+02 -0.17251569191E+02  0.25091479182E+03  0.25355684825E+03  0.47000000000E+01 0. -1.
        -11    1    1    2    0    0 -0.10810834271E+02  0.43422289495E+02  0.59577237488E+02  0.74510513280E+02  0.00000000000E+00 0.  1.
         11    1    1    2    0    0  0.31083517204E+02  0.71841728802E+02  0.44675492307E+03  0.45356077909E+03  0.00000000000E+00 0. -1.
<mgrwt>
<rscale>  0 0.16565067E+03</rscale>
<asrwt>0</asrwt>
<pdfrwt beam="1">  1        2 0.15137848E+00 0.17123882E+03</pdfrwt>
<pdfrwt beam="2">  1       -2 0.40884746E-02 0.17123882E+03</pdfrwt>
<totfact> 0.70018504E+03</totfact>
</mgrwt>
</event>
<event>
 7    1  0.6387485E-006  0.1289366E+03  0.7546771E-02  0.1243188E+00
         -3   -1    0    0    0  501 -0.00000000000E+00  0.00000000000E+00  0.19763010287E+03  0.19763010287E+03  0.00000000000E+00 0.  1.
          3   -1    0    0  501    0  0.00000000000E+00 -0.00000000000E+00 -0.66797013846E+02  0.66797013846E+02  0.00000000000E+00 0. -1.
         23    2    1    2    0    0 -0.30745397176E+02  0.73495474877E+01  0.99648771293E+02  0.16295561714E+03  0.12500144096E+03 0.  0.
          5    1    3    3  502    0  0.50287263406E+01 -0.50896628848E+02  0.13923949152E+02  0.53213919952E+02  0.47000000000E+01 0. -1.
         -5    1    3    3    0  502 -0.35774123517E+02  0.58246176336E+02  0.85724822141E+02  0.10974169719E+03  0.47000000000E+01 0. -1.
        -11    1    1    2    0    0  0.44889555285E+01 -0.13695369199E+02 -0.30718644809E+02  0.33931533979E+02  0.00000000000E+00 0. -1.
         11    1    1    2    0    0  0.26256441648E+02  0.63458217115E+01  0.61902962545E+02  0.67539965598E+02  0.00000000000E+00 0.  1.
<mgrwt>
<rscale>  0 0.11994511E+03</rscale>
<asrwt>0</asrwt>
<pdfrwt beam="2">  1        3 0.10276464E-01 0.12893663E+03</pdfrwt>
<pdfrwt beam="1">  1       -3 0.30404631E-01 0.12893663E+03</pdfrwt>
<totfact> 0.16798135E+03</totfact>
</mgrwt>
</event>
<event>
 7    1  0.6387485E-006  0.1250691E+03  0.7546771E-02  0.1250651E+00
          1   -1    0    0  501    0  0.00000000000E+00  0.00000000000E+00  0.72448506594E+02  0.72448506594E+02  0.00000000000E+00 0. -1.
         -1   -1    0    0    0  501 -0.00000000000E+00 -0.00000000000E+00 -0.46950200711E+03  0.46950200711E+03  0.00000000000E+00 0.  1.
         23    2    1    2    0    0 -0.41888684356E+01  0.31282074277E+00 -0.42789283124E+03  0.44579654204E+03  0.12499854956E+03 0.  0.
          5    1    3    3  502    0  0.14371377894E+02  0.47225954018E+02 -0.34571542759E+03  0.34925359570E+03  0.47000000000E+01 0. -1.
         -5    1    3    3    0  502 -0.18560246329E+02 -0.46913133276E+02 -0.82177403656E+02  0.96542946346E+02  0.47000000000E+01 0. -1.
        -11    1    1    2    0    0 -0.86614501488E+01 -0.21465548262E+02 -0.25608010711E+02  0.34518990330E+02  0.00000000000E+00 0.  1.
         11    1    1    2    0    0  0.12850318584E+02  0.21152727519E+02  0.56447341433E+02  0.61634981335E+02  0.00000000000E+00 0. -1.
<mgrwt>
<rscale>  0 0.11553444E+03</rscale>
<asrwt>0</asrwt>
<pdfrwt beam="1">  1        1 0.11145924E-01 0.12506911E+03</pdfrwt>
<pdfrwt beam="2">  1       -1 0.72231079E-01 0.12506911E+03</pdfrwt>
<totfact> 0.10949755E+03</totfact>
</mgrwt>
</event>
<event>
 7    1  0.6387485E-006  0.2016594E+03  0.7546771E-02  0.1152471E+00
          1   -1    0    0  501    0  0.00000000000E+00  0.00000000000E+00  0.21421005537E+02  0.21421005537E+02  0.00000000000E+00 0. -1.
         -1   -1    0    0    0  501 -0.00000000000E+00 -0.00000000000E+00 -0.18318949361E+04  0.18318949361E+04  0.00000000000E+00 0.  1.
         23    2    1    2    0    0  0.15715032617E+03  0.18614029862E+02 -0.11694914800E+04  0.11867505416E+04  0.12499527660E+03 0.  0.
          5    1    3    3  502    0  0.12146853844E+03  0.62409671319E+02 -0.96195857851E+03  0.97161513454E+03  0.47000000000E+01 0.  1.
         -5    1    3    3    0  502  0.35681787733E+02 -0.43795641457E+02 -0.20753290146E+03  0.21513540707E+03  0.47000000000E+01 0.  1.
        -11    1    1    2    0    0 -0.50506690930E+01 -0.11908248269E+02 -0.73054374927E+01  0.14855472126E+02  0.00000000000E+00 0. -1.
         11    1    1    2    0    0 -0.15209965708E+03 -0.67057815928E+01 -0.63367701311E+03  0.65170992791E+03  0.00000000000E+00 0.  1.
<mgrwt>
<rscale>  0 0.19679539E+03</rscale>
<asrwt>0</asrwt>
<pdfrwt beam="1">  1        1 0.32955395E-02 0.20165943E+03</pdfrwt>
<pdfrwt beam="2">  1       -1 0.28182998E+00 0.20165943E+03</pdfrwt>
<totfact> 0.15067207E+02</totfact>
</mgrwt>
</event>
<event>
 7    1  0.6387485E-006  0.1262017E+03  0.7546771E-02  0.1247511E+00
         -2   -1    0    0    0  501 -0.00000000000E+00  0.00000000000E+00  0.26688980607E+03  0.26688980607E+03  0.00000000000E+00 0.  1.
          2   -1    0    0  501    0  0.00000000000E+00 -0.00000000000E+00 -0.60670169223E+02  0.60670169223E+02  0.00000000000E+00 0. -1.
         23    2    1    2    0    0 -0.10212204911E+02  0.14077021938E+02  0.19531442546E+03  0.23253942936E+03  0.12499763892E+03 0.  0.
          5    1    3    3  502    0 -0.43602860354E+02 -0.38527718693E+02  0.12806458025E+03  0.14074168271E+03  0.47000000000E+01 0.  1.
         -5    1    3    3    0  502  0.33390655443E+02  0.52604740631E+02  0.67249845214E+02  0.91797746645E+02  0.47000000000E+01 0.  1.
        -11    1    1    2    0    0 -0.22969935943E+02  0.27382697917E+02  0.20283247908E+02  0.41095501556E+02  0.00000000000E+00 0.  1.
         11    1    1    2    0    0  0.33182140854E+02 -0.41459719855E+02 -0.93780365241E+01  0.53925044378E+02  0.00000000000E+00 0. -1.
<mgrwt>
<rscale>  0 0.11736360E+03</rscale>
<asrwt>0</asrwt>
<pdfrwt beam="2">  1        2 0.93338723E-02 0.12620167E+03</pdfrwt>
<pdfrwt beam="1">  1       -2 0.41059969E-01 0.12620167E+03</pdfrwt>
<totfact> 0.37642886E+03</totfact>
</mgrwt>
</event>
<event>
 7    1  0.6387485E-006  0.1274767E+03  0.7546771E-02  0.1245734E+00
         -2   -1    0    0    0  501 -0.00000000000E+00  0.00000000000E+00  0.15436544935E+03  0.15436544935E+03  0.00000000000E+00 0.  1.
          2   -1    0    0  501    0  0.00000000000E+00 -0.00000000000E+00 -0.10971992689E+03  0.10971992689E+03  0.00000000000E+00 0. -1.
         23    2    1    2    0    0 -0.11713062592E+02 -0.22111005482E+02  0.92775332078E+02  0.15766283247E+03  0.12499685636E+03 0.  0.
          5    1    3    3  502    0  0.11897045665E+02 -0.62704592269E+02  0.89937921722E+02  0.11038263156E+03  0.47000000000E+01 0. -1.
         -5    1    3    3    0  502 -0.23610108256E+02  0.40593586787E+02  0.28374103566E+01  0.47280200905E+02  0.47000000000E+01 0. -1.
        -11    1    1    2    0    0  0.61741532524E+01 -0.12756058910E+02  0.22998692402E+02  0.27014386158E+02  0.00000000000E+00 0.  1.
         11    1    1    2    0    0  0.55389093391E+01  0.34867064392E+02 -0.71128502023E+02  0.79408157616E+02  0.00000000000E+00 0. -1.
<mgrwt>
<rscale>  0 0.11841571E+03</rscale>
<asrwt>0</asrwt>
<pdfrwt beam="2">  1        2 0.16879989E-01 0.12747669E+03</pdfrwt>
<pdfrwt beam="1">  1       -2 0.23748531E-01 0.12747669E+03</pdfrwt>
<totfact> 0.50042707E+03</totfact>
</mgrwt>
</event>
<event>
 6    1  0.6387485E-006  0.1861693E+03  0.7546771E-02  0.1171942E+00
         -1   -1    0    0    0  501 -0.00000000000E+00  0.00000000000E+00  0.58763219375E+02  0.58763219375E+02  0.00000000000E+00 0.  1.
          1   -1    0    0  501    0  0.00000000000E+00 -0.00000000000E+00 -0.49668691165E+03  0.49668691165E+03  0.00000000000E+00 0. -1.
          5    1    1    2  502    0 -0.32298410938E+02  0.13216776563E+02 -0.83466890591E+02  0.90590741010E+02  0.47000000000E+01 0. -1.
         -5    1    1    2    0  502  0.12948710973E+03  0.49518118156E+02 -0.10183407613E+03  0.17207912329E+03  0.47000000000E+01 0.  1.
        -11    1    1    2    0    0  0.42006204673E+01 -0.35423051891E+02 -0.29895304771E+02  0.46542099920E+02  0.00000000000E+00 0.  1.
         11    1    1    2    0    0 -0.10138931926E+03 -0.27311842828E+02 -0.22272742079E+03  0.24623816680E+03  0.00000000000E+00 0. -1.
<mgrwt>
<rscale>  0 0.17578897E+03</rscale>
<asrwt>0</asrwt>
<pdfrwt beam="2">  1        1 0.76413372E-01 0.18616930E+03</pdfrwt>
<pdfrwt beam="1">  1       -1 0.90404951E-02 0.18616930E+03</pdfrwt>
<totfact> 0.31977937E+03</totfact>
</mgrwt>
</event>
<event>
 7    1  0.6387485E-006  0.1421380E+03  0.7546771E-02  0.1221667E+00
         -2   -1    0    0    0  501 -0.00000000000E+00  0.00000000000E+00  0.43557317963E+02  0.43557317963E+02  0.00000000000E+00 0.  1.
          2   -1    0    0  501    0  0.00000000000E+00 -0.00000000000E+00 -0.38185458497E+03  0.38185458497E+03  0.00000000000E+00 0. -1.
         23    2    1    2    0    0  0.42315491397E+02 -0.52795440297E+02 -0.15339232644E+03  0.20912298824E+03  0.12500103628E+03 0.  0.
          5    1    3    3  502    0  0.46692098452E+02 -0.89562396285E+02 -0.13140684945E+03  0.16580538281E+03  0.47000000000E+01 0. -1.
         -5    1    3    3    0  502 -0.43766070551E+01  0.36766955988E+02 -0.21985476992E+02  0.43317605433E+02  0.47000000000E+01 0. -1.
        -11    1    1    2    0    0 -0.19065719867E+02 -0.21311937353E+02 -0.22924806901E+02  0.36650335868E+02  0.00000000000E+00 0. -1.
         11    1    1    2    0    0 -0.23249771529E+02  0.74107377651E+02 -0.16198013367E+03  0.17963857882E+03  0.00000000000E+00 0.  1.
<mgrwt>
<rscale>  0 0.13398016E+03</rscale>
<asrwt>0</asrwt>
<pdfrwt beam="2">  1        2 0.58746858E-01 0.14213803E+03</pdfrwt>
<pdfrwt beam="1">  1       -2 0.67011260E-02 0.14213803E+03</pdfrwt>
<totfact> 0.99745022E+03</totfact>
</mgrwt>
</event>
<event>
 7    1  0.6387485E-006  0.1270251E+03  0.7546771E-02  0.1246862E+00
          1   -1    0    0  501    0  0.00000000000E+00  0.00000000000E+00  0.47466281168E+02  0.47466281168E+02  0.00000000000E+00 0. -1.
         -1   -1    0    0    0  501 -0.00000000000E+00 -0.00000000000E+00 -0.28184748482E+03  0.28184748482E+03  0.00000000000E+00 0.  1.
         23    2    1    2    0    0  0.22619209548E+02  0.99623510035E+00 -0.18185186784E+03  0.22182308650E+03  0.12499103465E+03 0.  0.
          5    1    3    3  502    0  0.59293306935E+02 -0.32772480580E+02 -0.14347174160E+03  0.15873236081E+03  0.47000000000E+01 0. -1.
         -5    1    3    3    0  502 -0.36674097387E+02  0.33768715681E+02 -0.38380126242E+02  0.63090725691E+02  0.47000000000E+01 0. -1.
        -11    1    1    2    0    0 -0.42487777013E+02 -0.34458686767E+02 -0.33771347967E+02  0.64289316630E+02  0.00000000000E+00 0.  1.
         11    1    1    2    0    0  0.19868567465E+02  0.33462451666E+02 -0.18757987841E+02  0.43201362854E+02  0.00000000000E+00 0. -1.
<mgrwt>
<rscale>  0 0.11774600E+03</rscale>
<asrwt>0</asrwt>
<pdfrwt beam="1">  1        1 0.73025048E-02 0.12702512E+03</pdfrwt>
<pdfrwt beam="2">  1       -1 0.43361151E-01 0.12702512E+03</pdfrwt>
<totfact> 0.49947462E+03</totfact>
</mgrwt>
</event>
<event>
 7    1  0.6387485E-006  0.1815938E+03  0.7546771E-02  0.1171921E+00
         -2   -1    0    0    0  501 -0.00000000000E+00  0.00000000000E+00  0.27899967345E+02  0.27899967345E+02  0.00000000000E+00 0.  1.
          2   -1    0    0  501    0  0.00000000000E+00 -0.00000000000E+00 -0.10498652459E+04  0.10498652459E+04  0.00000000000E+00 0. -1.
         23    2    1    2    0    0 -0.10827115804E+03  0.75043629840E+02 -0.49959613903E+03  0.53157558164E+03  0.12498842678E+03 0.  0.
          5    1    3    3  502    0 -0.13135504031E+02  0.76366315788E+02 -0.14579751139E+03  0.16517675375E+03  0.47000000000E+01 0. -1.
         -5    1    3    3    0  502 -0.95135654008E+02 -0.13226859483E+01 -0.35379862764E+03  0.36639882789E+03  0.47000000000E+01 0. -1.
        -11    1    1    2    0    0  0.43317694638E+02  0.16687475544E+02 -0.17728851886E+03  0.18326514515E+03  0.00000000000E+00 0. -1.
         11    1    1    2    0    0  0.64953463401E+02 -0.91731105384E+02 -0.34508062070E+03  0.36292448647E+03  0.00000000000E+00 0.  1.
<mgrwt>
<rscale>  0 0.17581031E+03</rscale>
<asrwt>0</asrwt>
<pdfrwt beam="2">  1        2 0.16151771E+00 0.18159377E+03</pdfrwt>
<pdfrwt beam="1">  1       -2 0.42923031E-02 0.18159377E+03</pdfrwt>
<totfact> 0.59567734E+03</totfact>
</mgrwt>
</event>
<event>
 6    1  0.6387485E-006  0.2176873E+03  0.7546771E-02  0.1145383E+00
         -2   -1    0    0    0  501 -0.00000000000E+00  0.00000000000E+00  0.16507914267E+03  0.16507914267E+03  0.00000000000E+00 0.  1.
          2   -1    0    0  501    0  0.00000000000E+00 -0.00000000000E+00 -0.24816679427E+03  0.24816679427E+03  0.00000000000E+00 0. -1.
          5    1    1    2  502    0 -0.11316300123E+03 -0.42869032113E+02 -0.29781214874E+02  0.12471018211E+03  0.47000000000E+01 0. -1.
         -5    1    1    2    0  502 -0.27720091474E+02  0.79707911485E+02  0.39230931603E+02  0.93182136802E+02  0.47000000000E+01 0.  1.
        -11    1    1    2    0    0  0.51072428876E+02 -0.55795744290E+02 -0.64416401340E+02  0.99353061522E+02  0.00000000000E+00 0.  1.
         11    1    1    2    0    0  0.89810663830E+02  0.18956864918E+02 -0.28120966995E+02  0.96000556508E+02  0.00000000000E+00 0. -1.
<mgrwt>
<rscale>  0 0.20525137E+03</rscale>
<asrwt>0</asrwt>
<pdfrwt beam="2">  1        2 0.38179507E-01 0.21768731E+03</pdfrwt>
<pdfrwt beam="1">  1       -2 0.25396791E-01 0.21768731E+03</pdfrwt>
<totfact> 0.18435584E+03</totfact>
</mgrwt>
</event>
<event>
 7    1  0.6387485E-006  0.1596131E+03  0.7546771E-02  0.1197347E+00
         -2   -1    0    0    0  501 -0.00000000000E+00  0.00000000000E+00  0.51068984939E+02  0.51068984939E+02  0.00000000000E+00 0.  1.
          2   -1    0    0  501    0  0.00000000000E+00 -0.00000000000E+00 -0.59008766363E+03  0.59008766363E+03  0.00000000000E+00 0. -1.
         23    2    1    2    0    0  0.15819383573E+01 -0.99241092905E+02 -0.11509703817E+03  0.19678328037E+03  0.12500013675E+03 0.  0.
          5    1    3    3  502    0  0.56940358444E+02 -0.61268536736E+02 -0.94762733020E+02  0.12648360994E+03  0.47000000000E+01 0. -1.
         -5    1    3    3    0  502 -0.55358420087E+02 -0.37972556169E+02 -0.20334305149E+02  0.70299670429E+02  0.47000000000E+01 0. -1.
        -11    1    1    2    0    0 -0.42767085190E+02  0.64651429893E+02 -0.21179957461E+03  0.22553911139E+03  0.00000000000E+00 0.  1.
         11    1    1    2    0    0  0.41185146832E+02  0.34589663012E+02 -0.21212206591E+03  0.21883425681E+03  0.00000000000E+00 0. -1.
<mgrwt>
<rscale>  0 0.15257241E+03</rscale>
<asrwt>0</asrwt>
<pdfrwt beam="2">  1        2 0.90782718E-01 0.15961307E+03</pdfrwt>
<pdfrwt beam="1">  1       -2 0.78567668E-02 0.15961307E+03</pdfrwt>
<totfact> 0.48777868E+03</totfact>
</mgrwt>
</event>
<event>
 7    1  0.6387485E-006  0.1360538E+03  0.7546771E-02  0.1233570E+00
         -2   -1    0    0    0  501 -0.00000000000E+00  0.00000000000E+00  0.86354231204E+02  0.86354231204E+02  0.00000000000E+00 0.  1.
          2   -1    0    0  501    0  0.00000000000E+00 -0.00000000000E+00 -0.18320711336E+03  0.18320711336E+03  0.00000000000E+00 0. -1.
         23    2    1    2    0    0  0.14667198152E+02  0.51729336892E+02 -0.87882916197E+01  0.13633732056E+03  0.12497831777E+03 0.  0.
          5    1    3    3  502    0  0.43081701812E+02  0.79230938069E+02 -0.24427650795E+02  0.93554127123E+02  0.47000000000E+01 0.  1.
         -5    1    3    3    0  502 -0.28414503660E+02 -0.27501601177E+02  0.15639359175E+02  0.42783193440E+02  0.47000000000E+01 0.  1.
        -11    1    1    2    0    0 -0.20228083307E+02 -0.14282514480E+02 -0.91895465377E+02  0.95173221712E+02  0.00000000000E+00 0. -1.
         11    1    1    2    0    0  0.55608851549E+01 -0.37446822413E+02  0.38308748455E+01  0.38050802286E+02  0.00000000000E+00 0.  1.
<mgrwt>
<rscale>  0 0.12596399E+03</rscale>
<asrwt>0</asrwt>
<pdfrwt beam="2">  1        2 0.28185709E-01 0.13605378E+03</pdfrwt>
<pdfrwt beam="1">  1       -2 0.13285267E-01 0.13605378E+03</pdfrwt>
<totfact> 0.74599793E+03</totfact>
</mgrwt>
</event>
<event>
 7    1  0.6387485E-006  0.1401442E+03  0.7546771E-02  0.1222990E+00
         -2   -1    0    0    0  501 -0.00000000000E+00  0.00000000000E+00  0.16116405473E+04  0.16116405473E+04  0.00000000000E+00 0.  1.
          2   -1    0    0  501    0  0.00000000000E+00 -0.00000000000E+00 -0.10268121000E+02  0.10268121000E+02  0.00000000000E+00 0. -1.
         23    2    1    2    0    0 -0.39150494933E+02 -0.49830699907E+02  0.10095407524E+04  0.10192217221E+04  0.12499811266E+03 0.  0.
          5    1    3    3  502    0  0.97972534445E+01 -0.80764384951E+02  0.54389865946E+03  0.54996973900E+03  0.47000000000E+01 0. -1.
         -5    1    3    3    0  502 -0.48947748377E+02  0.30933685044E+02  0.46564209293E+03  0.46925198311E+03  0.47000000000E+01 0. -1.
        -11    1    1    2    0    0  0.69988300972E+02  0.42978652061E+02  0.44098032126E+03  0.44856345208E+03  0.00000000000E+00 0.  1.
         11    1    1    2    0    0 -0.30837806039E+02  0.68520478461E+01  0.15085135266E+03  0.15412349412E+03  0.00000000000E+00 0. -1.
<mgrwt>
<rscale>  0 0.13305631E+03</rscale>
<asrwt>0</asrwt>
<pdfrwt beam="2">  1        2 0.15797122E-02 0.14014417E+03</pdfrwt>
<pdfrwt beam="1">  1       -2 0.24794450E+00 0.14014417E+03</pdfrwt>
<totfact> 0.55005476E+02</totfact>
</mgrwt>
</event>
<event>
 7    1  0.6387485E-006  0.1257954E+03  0.7546771E-02  0.1248232E+00
         -1   -1    0    0    0  501 -0.00000000000E+00  0.00000000000E+00  0.25955071239E+02  0.25955071239E+02  0.00000000000E+00 0.  1.
          1   -1    0    0  501    0  0.00000000000E+00 -0.00000000000E+00 -0.46529789191E+03  0.46529789191E+03  0.00000000000E+00 0. -1.
         23    2    1    2    0    0 -0.10957612125E+02 -0.89403437284E+01 -0.25676485632E+03  0.28592422411E+03  0.12499788592E+03 0.  0.
          5    1    3    3  502    0 -0.25830394664E+02  0.15875273383E+02 -0.33990944594E+01  0.30868712909E+02  0.47000000000E+01 0. -1.
         -5    1    3    3    0  502  0.14872782539E+02 -0.24815617111E+02 -0.25336576186E+03  0.25505551120E+03  0.47000000000E+01 0. -1.
        -11    1    1    2    0    0  0.40210725185E+02 -0.23044957695E+02 -0.12459152088E+03  0.13293238721E+03  0.00000000000E+00 0.  1.
         11    1    1    2    0    0 -0.29253113060E+02  0.31985301424E+02 -0.57986443477E+02  0.72396351828E+02  0.00000000000E+00 0. -1.
<mgrwt>
<rscale>  0 0.11694021E+03</rscale>
<asrwt>0</asrwt>
<pdfrwt beam="2">  1        1 0.71584285E-01 0.12579535E+03</pdfrwt>
<pdfrwt beam="1">  1       -1 0.39930882E-02 0.12579535E+03</pdfrwt>
<totfact> 0.11559914E+04</totfact>
</mgrwt>
</event>
<event>
 7    1  0.6387485E-006  0.1255791E+03  0.7546771E-02  0.1248144E+00
          4   -1    0    0  501    0  0.00000000000E+00  0.00000000000E+00  0.25505714525E+02  0.25505714525E+02  0.00000000000E+00 0. -1.
         -4   -1    0    0    0  501 -0.00000000000E+00 -0.00000000000E+00 -0.49490309282E+03  0.49490309282E+03  0.00000000000E+00 0.  1.
         23    2    1    2    0    0  0.69823806478E+01  0.97852140692E+01 -0.31789088197E+03  0.34179630937E+03  0.12500240078E+03 0.  0.
          5    1    3    3  502    0 -0.19870400926E+02  0.56958303735E+02 -0.97323882928E+02  0.11459977917E+03  0.47000000000E+01 0.  1.
         -5    1    3    3    0  502  0.26852781573E+02 -0.47173089665E+02 -0.22056699904E+03  0.22719653020E+03  0.47000000000E+01 0.  1.
        -11    1    1    2    0    0  0.41087828140E+02  0.65431688883E+01 -0.87739377780E+02  0.97104176499E+02  0.00000000000E+00 0.  1.
         11    1    1    2    0    0 -0.48070208788E+02 -0.16328382958E+02 -0.63767118540E+02  0.81508321476E+02  0.00000000000E+00 0. -1.
<mgrwt>
<rscale>  0 0.11699167E+03</rscale>
<asrwt>0</asrwt>
<pdfrwt beam="1">  1        4 0.39239563E-02 0.12557908E+03</pdfrwt>
<pdfrwt beam="2">  1       -4 0.76138932E-01 0.12557908E+03</pdfrwt>
<totfact> 0.91000358E+02</totfact>
</mgrwt>
</event>
<event>
 7    1  0.6387485E-006  0.2229033E+03  0.7546771E-02  0.1134739E+00
          2   -1    0    0  501    0  0.00000000000E+00  0.00000000000E+00  0.13545001219E+03  0.13545001219E+03  0.00000000000E+00 0. -1.
         -2   -1    0    0    0  501 -0.00000000000E+00 -0.00000000000E+00 -0.38648055646E+03  0.38648055646E+03  0.00000000000E+00 0.  1.
         23    2    1    2    0    0  0.16841176677E+03 -0.75488601944E+02 -0.40451861436E+02  0.22654411199E+03  0.12499931749E+03 0.  0.
          5    1    3    3  502    0  0.14304208370E+03 -0.97173098862E+02  0.11610673911E+01  0.17299447080E+03  0.47000000000E+01 0. -1.
         -5    1    3    3    0  502  0.25369683074E+02  0.21684496918E+02 -0.41612928827E+02  0.53549641188E+02  0.47000000000E+01 0. -1.
        -11    1    1    2    0    0 -0.27583986532E+02  0.18373418187E+02  0.29791606639E+01  0.33276631548E+02  0.00000000000E+00 0. -1.
         11    1    1    2    0    0 -0.14082778024E+03  0.57115183756E+02 -0.21355784350E+03  0.26210982512E+03  0.00000000000E+00 0.  1.
<mgrwt>
<rscale>  0 0.21885522E+03</rscale>
<asrwt>0</asrwt>
<pdfrwt beam="1">  1        2 0.20838464E-01 0.22290330E+03</pdfrwt>
<pdfrwt beam="2">  1       -2 0.59458546E-01 0.22290330E+03</pdfrwt>
<totfact> 0.71247748E+02</totfact>
</mgrwt>
</event>
<event>
 7    1  0.6387485E-006  0.1404337E+03  0.7546771E-02  0.1217723E+00
          1   -1    0    0  501    0  0.00000000000E+00  0.00000000000E+00  0.18649706026E+03  0.18649706026E+03  0.00000000000E+00 0. -1.
         -1   -1    0    0    0  501 -0.00000000000E+00 -0.00000000000E+00 -0.10409648931E+03  0.10409648931E+03  0.00000000000E+00 0.  1.
         23    2    1    2    0    0 -0.14423912014E+02 -0.12095533343E+02 -0.26355637261E+01  0.12642056362E+03  0.12498344509E+03 0.  0.
          5    1    3    3  502    0  0.35687758864E+02  0.35244909904E+01 -0.45758361659E+02  0.58326287651E+02  0.47000000000E+01 0.  1.
         -5    1    3    3    0  502 -0.50111670878E+02 -0.15620024334E+02  0.43122797933E+02  0.68094275970E+02  0.47000000000E+01 0.  1.
        -11    1    1    2    0    0  0.16182236113E+02  0.68746225745E+02  0.11859803251E+02  0.71613987830E+02  0.00000000000E+00 0.  1.
         11    1    1    2    0    0 -0.17583240991E+01 -0.56650692401E+02  0.73176331421E+02  0.92558998122E+02  0.00000000000E+00 0. -1.
<mgrwt>
<rscale>  0 0.13678370E+03</rscale>
<asrwt>0</asrwt>
<pdfrwt beam="1">  1        1 0.28691855E-01 0.14043370E+03</pdfrwt>
<pdfrwt beam="2">  1       -1 0.16014845E-01 0.14043370E+03</pdfrwt>
<totfact> 0.44558494E+03</totfact>
</mgrwt>
</event>
<event>
 6    1  0.6387485E-006  0.1812485E+03  0.7546771E-02  0.1185747E+00
         -2   -1    0    0    0  501 -0.00000000000E+00  0.00000000000E+00  0.20740042427E+03  0.20740042427E+03  0.00000000000E+00 0.  1.
          2   -1    0    0  501    0  0.00000000000E+00 -0.00000000000E+00 -0.12628401522E+03  0.12628401522E+03  0.00000000000E+00 0. -1.
          5    1    1    2  502    0 -0.65162856384E+02 -0.65468260274E+02  0.10206104145E+02  0.93051305833E+02  0.47000000000E+01 0. -1.
         -5    1    1    2    0  502 -0.79673681232E+01  0.63581485264E+02  0.10065405834E+03  0.11941278693E+03  0.47000000000E+01 0.  1.
        -11    1    1    2    0    0  0.45448493438E+02 -0.42247807743E+02 -0.17463555280E+01  0.62076505801E+02  0.00000000000E+00 0.  1.
         11    1    1    2    0    0  0.27681731069E+02  0.44134582752E+02 -0.27997397907E+02  0.59143840924E+02  0.00000000000E+00 0. -1.
<mgrwt>
<rscale>  0 0.16264052E+03</rscale>
<asrwt>0</asrwt>
<pdfrwt beam="2">  1        2 0.19428310E-01 0.18124849E+03</pdfrwt>
<pdfrwt beam="1">  1       -2 0.31907758E-01 0.18124849E+03</pdfrwt>
<totfact> 0.25683941E+03</totfact>
</mgrwt>
</event>
<event>
 6    1  0.6387485E-006  0.1991791E+03  0.7546771E-02  0.1173490E+00
         -2   -1    0    0    0  501 -0.00000000000E+00  0.00000000000E+00  0.13734273334E+03  0.13734273334E+03  0.00000000000E+00 0.  1.
          2   -1    0    0  501    0  0.00000000000E+00 -0.00000000000E+00 -0.41736924119E+03  0.41736924119E+03  0.00000000000E+00 0. -1.
          5    1    1    2  502    0  0.64129433413E+02 -0.66097478548E+00  0.55169411954E+02  0.84727652705E+02  0.47000000000E+01 0. -1.
         -5    1    1    2    0  502 -0.10204274147E+03  0.63641591483E+02 -0.57483221903E+01  0.12049110532E+03  0.47000000000E+01 0.  1.
        -11    1    1    2    0    0  0.58877441417E+02 -0.11177844389E+02 -0.19141132113E+03  0.20057365522E+03  0.00000000000E+00 0. -1.
         11    1    1    2    0    0 -0.20964133356E+02 -0.51802772308E+02 -0.13803627649E+03  0.14891956128E+03  0.00000000000E+00 0.  1.
<mgrwt>
<rscale>  0 0.17424654E+03</rscale>
<asrwt>0</asrwt>
<pdfrwt beam="2">  1        2 0.64210652E-01 0.19917905E+03</pdfrwt>
<pdfrwt beam="1">  1       -2 0.21129652E-01 0.19917905E+03</pdfrwt>
<totfact> 0.14477568E+03</totfact>
</mgrwt>
</event>
<event>
 7    1  0.6387485E-006  0.1245115E+03  0.7546771E-02  0.1247658E+00
         -2   -1    0    0    0  501 -0.00000000000E+00  0.00000000000E+00  0.62798255963E+03  0.62798255963E+03  0.00000000000E+00 0.  1.
          2   -1    0    0  501    0  0.00000000000E+00 -0.00000000000E+00 -0.37547040743E+02  0.37547040743E+02  0.00000000000E+00 0. -1.
         23    2    1    2    0    0  0.19390765284E+02  0.20162684399E+02  0.54218091484E+03  0.55629421160E+03  0.12132835540E+03 0.  0.
          5    1    3    3  502    0 -0.63349151672E+01 -0.23476390125E+02  0.20531823744E+02  0.32170138790E+02  0.47000000000E+01 0. -1.
         -5    1    3    3    0  502  0.25725680451E+02  0.43639074524E+02  0.52164909109E+03  0.52412407281E+03  0.47000000000E+01 0.  1.
        -11    1    1    2    0    0  0.30639098919E+02 -0.33024742886E+02  0.31347541619E+02  0.54882204683E+02  0.00000000000E+00 0.  1.
         11    1    1    2    0    0 -0.50029864203E+02  0.12862058488E+02  0.16907062429E+02  0.54353184090E+02  0.00000000000E+00 0. -1.
<mgrwt>
<rscale>  0 0.11727698E+03</rscale>
<asrwt>0</asrwt>
<pdfrwt beam="2">  1        2 0.57764683E-02 0.12451147E+03</pdfrwt>
<pdfrwt beam="1">  1       -2 0.96612694E-01 0.12451147E+03</pdfrwt>
<totfact> 0.11645306E+03</totfact>
</mgrwt>
</event>
<event>
 7    1  0.6387485E-006  0.1328812E+03  0.7546771E-02  0.1236165E+00
         -1   -1    0    0    0  501 -0.00000000000E+00  0.00000000000E+00  0.13777997019E+03  0.13777997019E+03  0.00000000000E+00 0.  1.
          1   -1    0    0  501    0  0.00000000000E+00 -0.00000000000E+00 -0.10028575780E+03  0.10028575780E+03  0.00000000000E+00 0. -1.
         23    2    1    2    0    0 -0.30770449904E+02 -0.32951809448E+02  0.28663050427E+02  0.13593742669E+03  0.12499908473E+03 0.  0.
          5    1    3    3  502    0 -0.88917419883E+01  0.15167754938E+02  0.67670564658E+02  0.70075096765E+02  0.47000000000E+01 0. -1.
         -5    1    3    3    0  502 -0.21878707916E+02 -0.48119564386E+02 -0.39007514231E+02  0.65862329926E+02  0.47000000000E+01 0. -1.
        -11    1    1    2    0    0 -0.13058723798E+02 -0.12085600316E+02 -0.25055285205E+02  0.30730429853E+02  0.00000000000E+00 0. -1.
         11    1    1    2    0    0  0.43829173703E+02  0.45037409764E+02  0.33886447171E+02  0.71397871450E+02  0.00000000000E+00 0.  1.
<mgrwt>
<rscale>  0 0.12430161E+03</rscale>
<asrwt>0</asrwt>
<pdfrwt beam="2">  1        1 0.15428578E-01 0.13288120E+03</pdfrwt>
<pdfrwt beam="1">  1       -1 0.21196918E-01 0.13288120E+03</pdfrwt>
<totfact> 0.62380033E+03</totfact>
</mgrwt>
</event>
<event>
 7    1  0.6387485E-006  0.1881395E+03  0.7546771E-02  0.1165240E+00
         -1   -1    0    0    0  501 -0.00000000000E+00  0.00000000000E+00  0.84195301098E+02  0.84195301098E+02  0.00000000000E+00 0.  1.
          1   -1    0    0  501    0  0.00000000000E+00 -0.00000000000E+00 -0.49069704419E+03  0.49069704419E+03  0.00000000000E+00 0. -1.
         23    2    1    2    0    0 -0.12282861681E+03  0.68453920170E+02 -0.72972375978E+02  0.20179552653E+03  0.12499463419E+03 0.  0.
          5    1    3    3  502    0 -0.12351198713E+01 -0.80289342266E+00  0.28472169826E+02  0.28895062096E+02  0.47000000000E+01 0. -1.
         -5    1    3    3    0  502 -0.12159349694E+03  0.69256813592E+02 -0.10144454580E+03  0.17290046443E+03  0.47000000000E+01 0. -1.
        -11    1    1    2    0    0  0.10603841354E+03 -0.10229112331E+02 -0.21819128540E+03  0.24280901324E+03  0.00000000000E+00 0. -1.
         11    1    1    2    0    0  0.16790203277E+02 -0.58224807839E+02 -0.11533808171E+03  0.13028780552E+03  0.00000000000E+00 0.  1.
<mgrwt>
<rscale>  0 0.18267367E+03</rscale>
<asrwt>0</asrwt>
<pdfrwt beam="2">  1        1 0.75491855E-01 0.18813949E+03</pdfrwt>
<pdfrwt beam="1">  1       -1 0.12953123E-01 0.18813949E+03</pdfrwt>
<totfact> 0.18641732E+03</totfact>
</mgrwt>
</event>
<event>
 7    1  0.6387485E-006  0.1532188E+03  0.7546771E-02  0.1205707E+00
         -1   -1    0    0    0  501 -0.00000000000E+00  0.00000000000E+00  0.34529185025E+02  0.34529185025E+02  0.00000000000E+00 0.  1.
          1   -1    0    0  501    0  0.00000000000E+00 -0.00000000000E+00 -0.56325675442E+03  0.56325675442E+03  0.00000000000E+00 0. -1.
         23    2    1    2    0    0 -0.57063537636E+02 -0.67778589174E+02 -0.29190320813E+03  0.32967175879E+03  0.12500320456E+03 0.  0.
          5    1    3    3  502    0 -0.18888049982E+02 -0.72584967501E+02 -0.27880556924E+03  0.28875590276E+03  0.47000000000E+01 0.  1.
         -5    1    3    3    0  502 -0.38175487654E+02  0.48063783268E+01 -0.13097638889E+02  0.40915856031E+02  0.47000000000E+01 0.  1.
        -11    1    1    2    0    0  0.73900692499E+02  0.67613500426E+02 -0.22815855655E+03  0.24917709509E+03  0.00000000000E+00 0. -1.
         11    1    1    2    0    0 -0.16837154863E+02  0.16508874788E+00 -0.86658047138E+01  0.18937085560E+02  0.00000000000E+00 0.  1.
<mgrwt>
<rscale>  0 0.14581901E+03</rscale>
<asrwt>0</asrwt>
<pdfrwt beam="2">  1        1 0.86654881E-01 0.15321875E+03</pdfrwt>
<pdfrwt beam="1">  1       -1 0.53121825E-02 0.15321875E+03</pdfrwt>
<totfact> 0.59787918E+03</totfact>
</mgrwt>
</event>
<event>
 7    1  0.6387485E-006  0.1901178E+03  0.7546771E-02  0.1163133E+00
         -2   -1    0    0    0  501 -0.00000000000E+00  0.00000000000E+00  0.70774947396E+02  0.70774947396E+02  0.00000000000E+00 0.  1.
          2   -1    0    0  501    0  0.00000000000E+00 -0.00000000000E+00 -0.50192190984E+03  0.50192190984E+03  0.00000000000E+00 0. -1.
         23    2    1    2    0    0  0.83821798125E+02  0.11616199179E+03 -0.14231299521E+03  0.23748213186E+03  0.12500028866E+03 0.  0.
          5    1    3    3  502    0 -0.17467002746E+02  0.45243304574E+02  0.22827973140E+00  0.48725710927E+02  0.47000000000E+01 0.  1.
         -5    1    3    3    0  502  0.10128880087E+03  0.70918687220E+02 -0.14254127494E+03  0.18875642093E+03  0.47000000000E+01 0.  1.
        -11    1    1    2    0    0 -0.32760248705E+02 -0.26000618325E+02 -0.18059461850E+03  0.18537443805E+03  0.00000000000E+00 0. -1.
         11    1    1    2    0    0 -0.51061549420E+02 -0.90161373469E+02 -0.10823934873E+03  0.14984028733E+03  0.00000000000E+00 0.  1.
<mgrwt>
<rscale>  0 0.18491052E+03</rscale>
<asrwt>0</asrwt>
<pdfrwt beam="2">  1        2 0.77218754E-01 0.19011779E+03</pdfrwt>
<pdfrwt beam="1">  1       -2 0.10888454E-01 0.19011779E+03</pdfrwt>
<totfact> 0.35298317E+03</totfact>
</mgrwt>
</event>
<event>
 7    1  0.6387485E-006  0.1302240E+03  0.7546771E-02  0.1239459E+00
         -2   -1    0    0    0  501 -0.00000000000E+00  0.00000000000E+00  0.38613839882E+02  0.38613839882E+02  0.00000000000E+00 0.  1.
          2   -1    0    0  501    0  0.00000000000E+00 -0.00000000000E+00 -0.34658203625E+03  0.34658203625E+03  0.00000000000E+00 0. -1.
         23    2    1    2    0    0 -0.17755471833E+02  0.31914796103E+02 -0.17781902441E+03  0.22040391101E+03  0.12499787020E+03 0.  0.
          5    1    3    3  502    0 -0.58177992472E+02  0.52260838375E+02 -0.14320925668E+03  0.16323864504E+03  0.47000000000E+01 0. -1.
         -5    1    3    3    0  502  0.40422520638E+02 -0.20346042272E+02 -0.34609767728E+02  0.57165265967E+02  0.47000000000E+01 0. -1.
        -11    1    1    2    0    0  0.36079983926E+02  0.49321099516E+01 -0.11550924126E+03  0.12111348300E+03  0.00000000000E+00 0. -1.
         11    1    1    2    0    0 -0.18324512093E+02 -0.36846906054E+02 -0.14639930694E+02  0.43678482116E+02  0.00000000000E+00 0.  1.
<mgrwt>
<rscale>  0 0.12223250E+03</rscale>
<asrwt>0</asrwt>
<pdfrwt beam="2">  1        2 0.53320313E-01 0.13022396E+03</pdfrwt>
<pdfrwt beam="1">  1       -2 0.59405908E-02 0.13022396E+03</pdfrwt>
<totfact> 0.13193850E+04</totfact>
</mgrwt>
</event>
<event>
 7    1  0.6387485E-006  0.1268531E+03  0.7546771E-02  0.1247139E+00
         -1   -1    0    0    0  501 -0.00000000000E+00  0.00000000000E+00  0.13596722995E+03  0.13596722995E+03  0.00000000000E+00 0.  1.
          1   -1    0    0  501    0  0.00000000000E+00 -0.00000000000E+00 -0.89763414463E+02  0.89763414463E+02  0.00000000000E+00 0. -1.
         23    2    1    2    0    0 -0.21089437166E+02  0.44355126674E+01  0.33730535420E+02  0.13126105333E+03  0.12500910755E+03 0.  0.
          5    1    3    3  502    0 -0.68970581303E+02  0.16851263353E+02 -0.91317844781E-01  0.71154792536E+02  0.47000000000E+01 0.  1.
         -5    1    3    3    0  502  0.47881144137E+02 -0.12415750686E+02  0.33821853265E+02  0.60106260799E+02  0.47000000000E+01 0.  1.
        -11    1    1    2    0    0  0.34223653743E+02 -0.21041253788E+02  0.42010490978E+02  0.58128084337E+02  0.00000000000E+00 0.  1.
         11    1    1    2    0    0 -0.13134216577E+02  0.16605741121E+02 -0.29537210915E+02  0.36341506737E+02  0.00000000000E+00 0. -1.
<mgrwt>
<rscale>  0 0.11758289E+03</rscale>
<asrwt>0</asrwt>
<pdfrwt beam="2">  1        1 0.13809756E-01 0.12685312E+03</pdfrwt>
<pdfrwt beam="1">  1       -1 0.20918035E-01 0.12685312E+03</pdfrwt>
<totfact> 0.73307710E+03</totfact>
</mgrwt>
</event>
<event>
 7    1  0.6387485E-006  0.1412103E+03  0.7546771E-02  0.1219060E+00
         -1   -1    0    0    0  501 -0.00000000000E+00  0.00000000000E+00  0.24567560213E+03  0.24567560213E+03  0.00000000000E+00 0.  1.
          1   -1    0    0  501    0  0.00000000000E+00 -0.00000000000E+00 -0.10043640160E+03  0.10043640160E+03  0.00000000000E+00 0. -1.
         23    2    1    2    0    0 -0.77731601414E+02  0.62492055098E+01  0.17177138247E+03  0.22236401744E+03  0.11772465328E+03 0.  0.
          5    1    3    3  502    0  0.13971500352E+02  0.39446046190E+02  0.37799847217E+02  0.56587205548E+02  0.47000000000E+01 0. -1.
         -5    1    3    3    0  502 -0.91703101766E+02 -0.33196840680E+02  0.13397153525E+03  0.16577681190E+03  0.47000000000E+01 0.  1.
        -11    1    1    2    0    0  0.53309464849E+02 -0.22600959676E+01 -0.61174826589E+02  0.81174912901E+02  0.00000000000E+00 0. -1.
         11    1    1    2    0    0  0.24422136565E+02 -0.39891095422E+01  0.34642644645E+02  0.42573073383E+02  0.00000000000E+00 0.  1.
<mgrwt>
<rscale>  0 0.13582496E+03</rscale>
<asrwt>0</asrwt>
<pdfrwt beam="2">  1        1 0.15451754E-01 0.14121030E+03</pdfrwt>
<pdfrwt beam="1">  1       -1 0.37796246E-01 0.14121030E+03</pdfrwt>
<totfact> 0.23775779E+03</totfact>
</mgrwt>
</event>
<event>
 7    1  0.6387485E-006  0.1483563E+03  0.7546771E-02  0.1211989E+00
          2   -1    0    0  501    0  0.00000000000E+00  0.00000000000E+00  0.48816256674E+03  0.48816256674E+03  0.00000000000E+00 0. -1.
         -2   -1    0    0    0  501 -0.00000000000E+00 -0.00000000000E+00 -0.41000875017E+02  0.41000875017E+02  0.00000000000E+00 0.  1.
         23    2    1    2    0    0 -0.69674617032E+02 -0.39099756191E+02  0.16362479006E+03  0.22086798423E+03  0.12500500526E+03 0.  0.
          5    1    3    3  502    0 -0.86389438103E+02 -0.60505437579E+02  0.16186164170E+03  0.19324938305E+03  0.47000000000E+01 0.  1.
         -5    1    3    3    0  502  0.16714821071E+02  0.21405681388E+02  0.17631483608E+01  0.27618601182E+02  0.47000000000E+01 0.  1.
        -11    1    1    2    0    0  0.30977598979E+02 -0.17350332290E+02  0.32630991782E+02  0.48222684431E+02  0.00000000000E+00 0.  1.
         11    1    1    2    0    0  0.38697018053E+02  0.56450088482E+02  0.25090590988E+03  0.26007277310E+03  0.00000000000E+00 0. -1.
<mgrwt>
<rscale>  0 0.14100029E+03</rscale>
<asrwt>0</asrwt>
<pdfrwt beam="1">  1        2 0.75101929E-01 0.14835631E+03</pdfrwt>
<pdfrwt beam="2">  1       -2 0.63078273E-02 0.14835631E+03</pdfrwt>
<totfact> 0.84139826E+03</totfact>
</mgrwt>
</event>
<event>
 7    1  0.6387485E-006  0.2689944E+03  0.7546771E-02  0.1103925E+00
         -2   -1    0    0    0  501 -0.00000000000E+00  0.00000000000E+00  0.75321618396E+02  0.75321618396E+02  0.00000000000E+00 0.  1.
          2   -1    0    0  501    0  0.00000000000E+00 -0.00000000000E+00 -0.93130967545E+03  0.93130967545E+03  0.00000000000E+00 0. -1.
         23    2    1    2    0    0  0.19328104085E+03 -0.13908708624E+03 -0.36555721283E+03  0.45386129159E+03  0.12512081297E+03 0.  0.
          5    1    3    3  502    0  0.89513257422E+02 -0.32561195779E+02 -0.24318127107E+03  0.26121270131E+03  0.47000000000E+01 0. -1.
         -5    1    3    3    0  502  0.10376778343E+03 -0.10652589046E+03 -0.12237594176E+03  0.19264859028E+03  0.47000000000E+01 0. -1.
        -11    1    1    2    0    0 -0.10903633225E+03  0.27003494710E+02 -0.18051801962E+03  0.21261435954E+03  0.00000000000E+00 0.  1.
         11    1    1    2    0    0 -0.84244708602E+02  0.11208359153E+03 -0.30991282460E+03  0.34015564271E+03  0.00000000000E+00 0. -1.
<mgrwt>
<rscale>  0 0.26542911E+03</rscale>
<asrwt>0</asrwt>
<pdfrwt beam="2">  1        2 0.14327840E+00 0.26899442E+03</pdfrwt>
<pdfrwt beam="1">  1       -2 0.11587942E-01 0.26899442E+03</pdfrwt>
<totfact> 0.15175512E+03</totfact>
</mgrwt>
</event>
<event>
 7    1  0.6387485E-006  0.1464981E+03  0.7546771E-02  0.1215111E+00
          2   -1    0    0  501    0  0.00000000000E+00  0.00000000000E+00  0.70560463227E+03  0.70560463227E+03  0.00000000000E+00 0. -1.
         -2   -1    0    0    0  501 -0.00000000000E+00 -0.00000000000E+00 -0.28904609598E+02  0.28904609598E+02  0.00000000000E+00 0.  1.
         23    2    1    2    0    0  0.34402854040E+02  0.68224346365E+02  0.23096430936E+03  0.27350724896E+03  0.12499434079E+03 0.  0.
          5    1    3    3  502    0  0.81012953704E+02  0.48224814293E+02  0.16589949675E+03  0.19087552070E+03  0.47000000000E+01 0.  1.
         -5    1    3    3    0  502 -0.46610099664E+02  0.19999532072E+02  0.65064812615E+02  0.82631728254E+02  0.47000000000E+01 0.  1.
        -11    1    1    2    0    0 -0.45863134393E+02 -0.75884899567E+02  0.43379652246E+03  0.44276559033E+03  0.00000000000E+00 0. -1.
         11    1    1    2    0    0  0.11460280353E+02  0.76605532027E+01  0.11939190849E+02  0.18236402586E+02  0.00000000000E+00 0.  1.
<mgrwt>
<rscale>  0 0.13868386E+03</rscale>
<asrwt>0</asrwt>
<pdfrwt beam="1">  1        2 0.10855455E+00 0.14649813E+03</pdfrwt>
<pdfrwt beam="2">  1       -2 0.44468636E-02 0.14649813E+03</pdfrwt>
<totfact> 0.93661528E+03</totfact>
</mgrwt>
</event>
<event>
 7    1  0.6387485E-006  0.1358606E+03  0.7546771E-02  0.1231488E+00
         -2   -1    0    0    0  501 -0.00000000000E+00  0.00000000000E+00  0.40435574260E+03  0.40435574260E+03  0.00000000000E+00 0.  1.
          2   -1    0    0  501    0  0.00000000000E+00 -0.00000000000E+00 -0.11775584088E+03  0.11775584088E+03  0.00000000000E+00 0. -1.
         23    2    1    2    0    0  0.40802957756E+02  0.34154647369E+02  0.36615461985E+03  0.39054744503E+03  0.12500671937E+03 0.  0.
          5    1    3    3  502    0 -0.14882885691E+02 -0.34116801137E+02  0.51234862688E+02  0.63502421694E+02  0.47000000000E+01 0.  1.
         -5    1    3    3    0  502  0.55685843447E+02  0.68271448506E+02  0.31491975716E+03  0.32704502334E+03  0.47000000000E+01 0.  1.
        -11    1    1    2    0    0 -0.35885870943E+02  0.25191987292E+02 -0.23333661141E+02  0.49667813514E+02  0.00000000000E+00 0.  1.
         11    1    1    2    0    0 -0.49170868135E+01 -0.59346634661E+02 -0.56221056989E+02  0.81896324931E+02  0.00000000000E+00 0. -1.
<mgrwt>
<rscale>  0 0.12731989E+03</rscale>
<asrwt>0</asrwt>
<pdfrwt beam="2">  1        2 0.18116283E-01 0.13586059E+03</pdfrwt>
<pdfrwt beam="1">  1       -2 0.62208575E-01 0.13586059E+03</pdfrwt>
<totfact> 0.75349233E+02</totfact>
</mgrwt>
</event>
<event>
 7    1  0.6387485E-006  0.1487929E+03  0.7546771E-02  0.1211263E+00
         -2   -1    0    0    0  501 -0.00000000000E+00  0.00000000000E+00  0.49380800575E+02  0.49380800575E+02  0.00000000000E+00 0. -1.
          2   -1    0    0  501    0  0.00000000000E+00 -0.00000000000E+00 -0.49880749589E+03  0.49880749589E+03  0.00000000000E+00 0.  1.
         23    2    1    2    0    0  0.62058041796E+02 -0.51616407777E+02 -0.10302840201E+03  0.18098113719E+03  0.12499546509E+03 0.  0.
          5    1    3    3  502    0 -0.22676358037E+02 -0.59150203905E+02 -0.41220590936E+02  0.75724440923E+02  0.47000000000E+01 0.  1.
         -5    1    3    3    0  502  0.84734399833E+02  0.75337961279E+01 -0.61807811075E+02  0.10525669627E+03  0.47000000000E+01 0.  1.
        -11    1    1    2    0    0  0.15375195146E+02  0.40596889588E+02 -0.13471612396E+03  0.14153776219E+03  0.00000000000E+00 0.  1.
         11    1    1    2    0    0 -0.77433236942E+02  0.11019518189E+02 -0.21168216934E+03  0.22566939709E+03  0.00000000000E+00 0. -1.
<mgrwt>
<rscale>  0 0.14154676E+03</rscale>
<asrwt>0</asrwt>
<pdfrwt beam="2">  1        2 0.76739609E-01 0.14879288E+03</pdfrwt>
<pdfrwt beam="1">  1       -2 0.75970468E-02 0.14879288E+03</pdfrwt>
<totfact> 0.61796188E+03</totfact>
</mgrwt>
</event>
<event>
 7    1  0.6387485E-006  0.1327780E+03  0.7546771E-02  0.1234320E+00
         -1   -1    0    0    0  501 -0.00000000000E+00  0.00000000000E+00  0.78234979811E+02  0.78234979811E+02  0.00000000000E+00 0.  1.
          1   -1    0    0  501    0  0.00000000000E+00 -0.00000000000E+00 -0.23754222188E+03  0.23754222188E+03  0.00000000000E+00 0. -1.
         23    2    1    2    0    0  0.49076715960E+02  0.25302239452E+02 -0.10585879121E+02  0.13319933863E+03  0.12075295277E+03 0.  0.
          5    1    3    3  502    0 -0.34884161162E+01  0.65920769158E+02 -0.49338675735E+01  0.66363769502E+02  0.47000000000E+01 0. -1.
         -5    1    3    3    0  502  0.52565132076E+02 -0.40618529706E+02 -0.56520115470E+01  0.66835569124E+02  0.47000000000E+01 0.  1.
        -11    1    1    2    0    0  0.23674344388E+02  0.91664224268E+01 -0.34224136258E+02  0.42612080270E+02  0.00000000000E+00 0. -1.
         11    1    1    2    0    0 -0.72751060348E+02 -0.34468661879E+02 -0.11449722669E+03  0.13996578280E+03  0.00000000000E+00 0.  1.
<mgrwt>
<rscale>  0 0.12548085E+03</rscale>
<asrwt>0</asrwt>
<pdfrwt beam="2">  1        1 0.36544958E-01 0.13277802E+03</pdfrwt>
<pdfrwt beam="1">  1       -1 0.12036151E-01 0.13277802E+03</pdfrwt>
<totfact> 0.51339936E+03</totfact>
</mgrwt>
</event>
<event>
 7    1  0.6387485E-006  0.1321979E+03  0.7546771E-02  0.1237008E+00
          2   -1    0    0  501    0  0.00000000000E+00  0.00000000000E+00  0.29975930838E+03  0.29975930838E+03  0.00000000000E+00 0. -1.
         -2   -1    0    0    0  501 -0.00000000000E+00 -0.00000000000E+00 -0.48025154637E+02  0.48025154637E+02  0.00000000000E+00 0.  1.
         23    2    1    2    0    0  0.39291126252E+02  0.17526804676E+02  0.10256343209E+03  0.16731864647E+03  0.12500116147E+03 0.  0.
          5    1    3    3  502    0 -0.41512692108E+02  0.23517580614E+02  0.21281401461E+02  0.52453486558E+02  0.47000000000E+01 0.  1.
         -5    1    3    3    0  502  0.80803818360E+02 -0.59907759375E+01  0.81282030627E+02  0.11486515991E+03  0.47000000000E+01 0.  1.
        -11    1    1    2    0    0 -0.29041769823E+02  0.29996626119E+02  0.29004788893E+02  0.50837975488E+02  0.00000000000E+00 0.  1.
         11    1    1    2    0    0 -0.10249356429E+02 -0.47523430795E+02  0.12016593276E+03  0.12962784106E+03  0.00000000000E+00 0. -1.
<mgrwt>
<rscale>  0 0.12376768E+03</rscale>
<asrwt>0</asrwt>
<pdfrwt beam="1">  1        2 0.46116815E-01 0.13219785E+03</pdfrwt>
<pdfrwt beam="2">  1       -2 0.73884855E-02 0.13219785E+03</pdfrwt>
<totfact> 0.11047972E+04</totfact>
</mgrwt>
</event>
<event>
 7    1  0.6387485E-006  0.1625827E+03  0.7546771E-02  0.1193911E+00
         -2   -1    0    0    0  501 -0.00000000000E+00  0.00000000000E+00  0.25218108798E+03  0.25218108798E+03  0.00000000000E+00 0.  1.
          2   -1    0    0  501    0  0.00000000000E+00 -0.00000000000E+00 -0.11234189244E+03  0.11234189244E+03  0.00000000000E+00 0. -1.
         23    2    1    2    0    0 -0.10388283009E+03  0.41573293094E+01  0.15880311358E+03  0.22726981424E+03  0.12499685520E+03 0.  0.
          5    1    3    3  502    0 -0.11021478820E+03 -0.83139398470E+01  0.17393445055E+03  0.20613516008E+03  0.47000000000E+01 0.  1.
         -5    1    3    3    0  502  0.63319581094E+01  0.12471269156E+02 -0.15131336973E+02  0.21134654160E+02  0.47000000000E+01 0.  1.
        -11    1    1    2    0    0  0.44026873323E+02 -0.25513928382E+02 -0.45616432954E+02  0.68338752341E+02  0.00000000000E+00 0. -1.
         11    1    1    2    0    0  0.59855956766E+02  0.21356599073E+02  0.26652514911E+02  0.68914413844E+02  0.00000000000E+00 0.  1.
<mgrwt>
<rscale>  0 0.15546764E+03</rscale>
<asrwt>0</asrwt>
<pdfrwt beam="2">  1        2 0.17283368E-01 0.16258272E+03</pdfrwt>
<pdfrwt beam="1">  1       -2 0.38797090E-01 0.16258272E+03</pdfrwt>
<totfact> 0.20342260E+03</totfact>
</mgrwt>
</event>
<event>
 7    1  0.6387485E-006  0.1294800E+03  0.7546771E-02  0.1234963E+00
         -1   -1    0    0    0  501 -0.00000000000E+00  0.00000000000E+00  0.22782697249E+03  0.22782697249E+03  0.00000000000E+00 0.  1.
          1   -1    0    0  501    0  0.00000000000E+00 -0.00000000000E+00 -0.99038184418E+02  0.99038184418E+02  0.00000000000E+00 0. -1.
         23    2    1    2    0    0  0.52320507254E+02  0.41401263240E+02  0.16383981796E+03  0.20882663402E+03  0.11096655824E+03 0.  0.
          5    1    3    3  502    0  0.80389342157E+02  0.55194632784E+02  0.12892374027E+03  0.16171677286E+03  0.47000000000E+01 0. -1.
         -5    1    3    3    0  502 -0.28068834903E+02 -0.13793369544E+02  0.34916077697E+02  0.47109861154E+02  0.47000000000E+01 0.  1.
        -11    1    1    2    0    0  0.26044752184E+02 -0.60169845254E+01 -0.83700591184E+01  0.28010553525E+02  0.00000000000E+00 0.  1.
         11    1    1    2    0    0 -0.78365259439E+02 -0.35384278715E+02 -0.26680970773E+02  0.90027969367E+02  0.00000000000E+00 0. -1.
<mgrwt>
<rscale>  0 0.12506819E+03</rscale>
<asrwt>0</asrwt>
<pdfrwt beam="2">  1        1 0.15236644E-01 0.12948003E+03</pdfrwt>
<pdfrwt beam="1">  1       -1 0.35050303E-01 0.12948003E+03</pdfrwt>
<totfact> 0.27465809E+03</totfact>
</mgrwt>
</event>
<event>
 7    1  0.6387485E-006  0.1541276E+03  0.7546771E-02  0.1204146E+00
         -2   -1    0    0    0  501 -0.00000000000E+00  0.00000000000E+00  0.22080463063E+03  0.22080463063E+03  0.00000000000E+00 0. -1.
          2   -1    0    0  501    0  0.00000000000E+00 -0.00000000000E+00 -0.96917924449E+02  0.96917924449E+02  0.00000000000E+00 0.  1.
         23    2    1    2    0    0  0.75722013574E+02 -0.48945909321E+02  0.10980474453E+03  0.18924164560E+03  0.12500317249E+03 0.  0.
          5    1    3    3  502    0  0.42925580540E+01 -0.71291187266E+02  0.83013156210E+02  0.10960900301E+03  0.47000000000E+01 0. -1.
         -5    1    3    3    0  502  0.71429455520E+02  0.22345277945E+02  0.26791588317E+02  0.79632642596E+02  0.47000000000E+01 0. -1.
        -11    1    1    2    0    0 -0.94606792209E+02  0.48017296530E+02  0.21371863610E+01  0.10611632044E+03  0.00000000000E+00 0.  1.
         11    1    1    2    0    0  0.18884778635E+02  0.92861279138E+00  0.11944775288E+02  0.22364589030E+02  0.00000000000E+00 0. -1.
<mgrwt>
<rscale>  0 0.14704961E+03</rscale>
<asrwt>0</asrwt>
<pdfrwt beam="2">  1        2 0.14910450E-01 0.15412760E+03</pdfrwt>
<pdfrwt beam="1">  1       -2 0.33969943E-01 0.15412760E+03</pdfrwt>
<totfact> 0.30879593E+03</totfact>
</mgrwt>
</event>
<event>
 7    1  0.6387485E-006  0.1271394E+03  0.7546771E-02  0.1243355E+00
         -2   -1    0    0    0  501 -0.00000000000E+00  0.00000000000E+00  0.31098206914E+03  0.31098206914E+03  0.00000000000E+00 0.  1.
          2   -1    0    0  501    0  0.00000000000E+00 -0.00000000000E+00 -0.46482673950E+02  0.46482673950E+02  0.00000000000E+00 0. -1.
         23    2    1    2    0    0 -0.23041739091E+02  0.28847749589E+01  0.20367369508E+03  0.24009874821E+03  0.12500076463E+03 0.  0.
          5    1    3    3  502    0 -0.38414964579E+02  0.41280584996E+02  0.18680196010E+03  0.19518416559E+03  0.47000000000E+01 0. -1.
         -5    1    3    3    0  502  0.15373225488E+02 -0.38395810037E+02  0.16871734978E+02  0.44914582615E+02  0.47000000000E+01 0. -1.
        -11    1    1    2    0    0 -0.23550790439E+02 -0.44170090091E+01  0.66234553808E+02  0.70435543705E+02  0.00000000000E+00 0.  1.
         11    1    1    2    0    0  0.46592529530E+02  0.15322340501E+01 -0.54088536984E+01  0.46930451175E+02  0.00000000000E+00 0. -1.
<mgrwt>
<rscale>  0 0.11984389E+03</rscale>
<asrwt>0</asrwt>
<pdfrwt beam="2">  1        2 0.71511808E-02 0.12713943E+03</pdfrwt>
<pdfrwt beam="1">  1       -2 0.47843394E-01 0.12713943E+03</pdfrwt>
<totfact> 0.39128575E+03</totfact>
</mgrwt>
</event>
<event>
 7    1  0.6387485E-006  0.1351843E+03  0.7546771E-02  0.1253797E+00
         -1   -1    0    0    0  501 -0.00000000000E+00  0.00000000000E+00  0.21581851271E+03  0.21581851271E+03  0.00000000000E+00 0.  1.
          1   -1    0    0  501    0  0.00000000000E+00 -0.00000000000E+00 -0.50296748946E+02  0.50296748946E+02  0.00000000000E+00 0. -1.
         23    2    1    2    0    0  0.23805761328E+02 -0.45827625276E+02  0.13744170958E+03  0.19278228133E+03  0.12493157707E+03 0.  0.
          5    1    3    3  502    0  0.29052939800E+02 -0.30115742290E+02  0.15940562244E+03  0.16487350821E+03  0.47000000000E+01 0. -1.
         -5    1    3    3    0  502 -0.52471784712E+01 -0.15711882986E+02 -0.21963912857E+02  0.27908773116E+02  0.47000000000E+01 0. -1.
        -11    1    1    2    0    0  0.63147357145E+01  0.25919571003E+02  0.25868613005E+02  0.37160263547E+02  0.00000000000E+00 0.  1.
         11    1    1    2    0    0 -0.30120497043E+02  0.19908054274E+02  0.22114411736E+01  0.36172716778E+02  0.00000000000E+00 0. -1.
<mgrwt>
<rscale>  0 0.11373972E+03</rscale>
<asrwt>0</asrwt>
<pdfrwt beam="2">  1        1 0.77379615E-02 0.13518426E+03</pdfrwt>
<pdfrwt beam="1">  1       -1 0.33202848E-01 0.13518426E+03</pdfrwt>
<totfact> 0.73798752E+03</totfact>
</mgrwt>
</event>
<event>
 7    1  0.6387485E-006  0.1694604E+03  0.7546771E-02  0.1184600E+00
          1   -1    0    0  501    0  0.00000000000E+00  0.00000000000E+00  0.34386655298E+03  0.34386655298E+03  0.00000000000E+00 0.  1.
         -1   -1    0    0    0  501 -0.00000000000E+00 -0.00000000000E+00 -0.73590592423E+02  0.73590592423E+02  0.00000000000E+00 0. -1.
         23    2    1    2    0    0  0.69564963881E+02 -0.90847352006E+02  0.12647171923E+03  0.21145197736E+03  0.12499726956E+03 0.  0.
          5    1    3    3  502    0 -0.92415922431E+01  0.25482633556E+02  0.31336611808E+02  0.41699458986E+02  0.47000000000E+01 0.  1.
         -5    1    3    3    0  502  0.78806556124E+02 -0.11632998556E+03  0.95135107419E+02  0.16975251837E+03  0.47000000000E+01 0.  1.
        -11    1    1    2    0    0 -0.65170240521E+02  0.29014886405E+02  0.32041823879E+02  0.78202956211E+02  0.00000000000E+00 0. -1.
         11    1    1    2    0    0 -0.43947233594E+01  0.61832465601E+02  0.11176241746E+03  0.12780221184E+03  0.00000000000E+00 0.  1.
<mgrwt>
<rscale>  0 0.16368346E+03</rscale>
<asrwt>0</asrwt>
<pdfrwt beam="1">  1        1 0.52902546E-01 0.16946045E+03</pdfrwt>
<pdfrwt beam="2">  1       -1 0.11321630E-01 0.16946045E+03</pdfrwt>
<totfact> 0.36091337E+03</totfact>
</mgrwt>
</event>
<event>
 7    1  0.6387485E-006  0.1634355E+03  0.7546771E-02  0.1191796E+00
         -2   -1    0    0    0  501 -0.00000000000E+00  0.00000000000E+00  0.55715004464E+02  0.55715004464E+02  0.00000000000E+00 0.  1.
          2   -1    0    0  501    0  0.00000000000E+00 -0.00000000000E+00 -0.62411873593E+03  0.62411873593E+03  0.00000000000E+00 0. -1.
         23    2    1    2    0    0 -0.86068869216E+02  0.60689383177E+02 -0.10161885090E+03  0.19245141251E+03  0.12498041383E+03 0.  0.
          5    1    3    3  502    0  0.11009743678E+02  0.30409905381E+02  0.16423440770E+02  0.36575896542E+02  0.47000000000E+01 0.  1.
         -5    1    3    3    0  502 -0.97078612893E+02  0.30279477795E+02 -0.11804229167E+03  0.15587551597E+03  0.47000000000E+01 0.  1.
        -11    1    1    2    0    0  0.29590108700E+02 -0.59347241110E+02 -0.13047652636E+03  0.14636185805E+03  0.00000000000E+00 0.  1.
         11    1    1    2    0    0  0.56478760516E+02 -0.13421420663E+01 -0.33630835421E+03  0.34102046983E+03  0.00000000000E+00 0. -1.
<mgrwt>
<rscale>  0 0.15728579E+03</rscale>
<asrwt>0</asrwt>
<pdfrwt beam="2">  1        2 0.96018262E-01 0.16343548E+03</pdfrwt>
<pdfrwt beam="1">  1       -2 0.85715396E-02 0.16343548E+03</pdfrwt>
<totfact> 0.39986488E+03</totfact>
</mgrwt>
</event>
<event>
 7    1  0.6387485E-006  0.1543732E+03  0.7546771E-02  0.1198720E+00
         -4   -1    0    0    0  501 -0.00000000000E+00  0.00000000000E+00  0.20110653790E+03  0.20110653790E+03  0.00000000000E+00 0.  1.
          4   -1    0    0  501    0  0.00000000000E+00 -0.00000000000E+00 -0.11649528265E+03  0.11649528265E+03  0.00000000000E+00 0. -1.
         23    2    1    2    0    0  0.81979132744E+02  0.38479333059E+02  0.81607816837E+02  0.17461650427E+03  0.12501940056E+03 0.  0.
          5    1    3    3  502    0  0.16803549293E+02  0.17846535262E+02 -0.32824461350E+02  0.41235826081E+02  0.47000000000E+01 0. -1.
         -5    1    3    3    0  502  0.65175583451E+02  0.20632797797E+02  0.11443227819E+03  0.13338067819E+03  0.47000000000E+01 0. -1.
        -11    1    1    2    0    0 -0.15533365151E+02 -0.67056573579E+02  0.12743744330E+02  0.70001946491E+02  0.00000000000E+00 0. -1.
         11    1    1    2    0    0 -0.66445767593E+02  0.28577240520E+02 -0.97403059127E+01  0.72983369791E+02  0.00000000000E+00 0.  1.
<mgrwt>
<rscale>  0 0.15143555E+03</rscale>
<asrwt>0</asrwt>
<pdfrwt beam="2">  1        4 0.17922351E-01 0.15437321E+03</pdfrwt>
<pdfrwt beam="1">  1       -4 0.30939467E-01 0.15437321E+03</pdfrwt>
<totfact> 0.46861399E+02</totfact>
</mgrwt>
</event>
<event>
 7    1  0.6387485E-006  0.1382767E+03  0.7546771E-02  0.1227303E+00
          2   -1    0    0  501    0  0.00000000000E+00  0.00000000000E+00  0.68732118342E+02  0.68732118342E+02  0.00000000000E+00 0. -1.
         -2   -1    0    0    0  501 -0.00000000000E+00 -0.00000000000E+00 -0.22796729803E+03  0.22796729803E+03  0.00000000000E+00 0.  1.
         23    2    1    2    0    0  0.58930836250E+02  0.60540670220E+01 -0.11422734685E+03  0.17935529655E+03  0.12494374911E+03 0.  0.
          5    1    3    3  502    0  0.50593766821E+02  0.62592246434E+02 -0.72660418996E+02  0.10853176974E+03  0.47000000000E+01 0.  1.
         -5    1    3    3    0  502  0.83370694288E+01 -0.56538179412E+02 -0.41566927854E+02  0.70823526805E+02  0.47000000000E+01 0.  1.
        -11    1    1    2    0    0 -0.49581970229E+02 -0.44828157964E+02 -0.18163228182E+02  0.69266430370E+02  0.00000000000E+00 0.  1.
         11    1    1    2    0    0 -0.93488660211E+01  0.38774090942E+02 -0.26844604655E+02  0.48077689455E+02  0.00000000000E+00 0. -1.
<mgrwt>
<rscale>  0 0.13010332E+03</rscale>
<asrwt>0</asrwt>
<pdfrwt beam="1">  1        2 0.10574172E-01 0.13827666E+03</pdfrwt>
<pdfrwt beam="2">  1       -2 0.35071893E-01 0.13827666E+03</pdfrwt>
<totfact> 0.43660239E+03</totfact>
</mgrwt>
</event>
<event>
 7    1  0.6387485E-006  0.1282720E+03  0.7546771E-02  0.1239726E+00
          1   -1    0    0  501    0  0.00000000000E+00  0.00000000000E+00  0.33461433677E+02  0.33461433677E+02  0.00000000000E+00 0. -1.
         -1   -1    0    0    0  501 -0.00000000000E+00 -0.00000000000E+00 -0.40807429234E+03  0.40807429234E+03  0.00000000000E+00 0.  1.
         23    2    1    2    0    0 -0.28108970932E+02  0.65456458638E+01 -0.21574470396E+03  0.25099699993E+03  0.12498302671E+03 0.  0.
          5    1    3    3  502    0  0.42628768521E+02  0.23929337392E+02 -0.50980970621E+02  0.70788236728E+02  0.47000000000E+01 0. -1.
         -5    1    3    3    0  502 -0.70737739452E+02 -0.17383691528E+02 -0.16476373333E+03  0.18020876321E+03  0.47000000000E+01 0. -1.
        -11    1    1    2    0    0  0.25283771809E+02 -0.47946768052E+02 -0.48904418611E+02  0.73005505567E+02  0.00000000000E+00 0. -1.
         11    1    1    2    0    0  0.28251991225E+01  0.41401122188E+02 -0.10996373610E+03  0.11753322052E+03  0.00000000000E+00 0.  1.
<mgrwt>
<rscale>  0 0.12206676E+03</rscale>
<asrwt>0</asrwt>
<pdfrwt beam="1">  1        1 0.51479127E-02 0.12827204E+03</pdfrwt>
<pdfrwt beam="2">  1       -1 0.62780662E-01 0.12827204E+03</pdfrwt>
<totfact> 0.40599798E+03</totfact>
</mgrwt>
</event>
<event>
 7    1  0.6387485E-006  0.1307019E+03  0.7546771E-02  0.1239601E+00
         -1   -1    0    0    0  501 -0.00000000000E+00  0.00000000000E+00  0.65181697641E+02  0.65181697641E+02  0.00000000000E+00 0.  1.
          1   -1    0    0  501    0  0.00000000000E+00 -0.00000000000E+00 -0.21602438954E+03  0.21602438954E+03  0.00000000000E+00 0. -1.
         23    2    1    2    0    0  0.37640631994E+02 -0.63582815945E+01 -0.51535845808E+02  0.14049534622E+03  0.12500301590E+03 0.  0.
          5    1    3    3  502    0 -0.34221860091E+02 -0.51450486755E+01  0.18936466537E+02  0.39727660375E+02  0.47000000000E+01 0. -1.
         -5    1    3    3    0  502  0.71862492086E+02 -0.12132329190E+01 -0.70472312345E+02  0.10076768584E+03  0.47000000000E+01 0. -1.
        -11    1    1    2    0    0 -0.51680925541E+02 -0.22989638786E+02 -0.90977783153E+02  0.10712795426E+03  0.00000000000E+00 0. -1.
         11    1    1    2    0    0  0.14040293546E+02  0.29347920380E+02 -0.83290629395E+01  0.33582786706E+02  0.00000000000E+00 0.  1.
<mgrwt>
<rscale>  0 0.12214398E+03</rscale>
<asrwt>0</asrwt>
<pdfrwt beam="2">  1        1 0.33234521E-01 0.13070195E+03</pdfrwt>
<pdfrwt beam="1">  1       -1 0.10027953E-01 0.13070195E+03</pdfrwt>
<totfact> 0.76310093E+03</totfact>
</mgrwt>
</event>
<event>
 6    1  0.6387485E-006  0.1837396E+03  0.7546771E-02  0.1194699E+00
         -1   -1    0    0    0  501 -0.00000000000E+00  0.00000000000E+00  0.58631602259E+02  0.58631602259E+02  0.00000000000E+00 0.  1.
          1   -1    0    0  501    0  0.00000000000E+00 -0.00000000000E+00 -0.44141006888E+03  0.44141006888E+03  0.00000000000E+00 0. -1.
          5    1    1    2  502    0 -0.77649626937E+02 -0.46853428954E+02 -0.57701483511E+02  0.10759302750E+03  0.47000000000E+01 0. -1.
         -5    1    1    2    0  502  0.84022018689E+02  0.39405944221E+02 -0.57407157254E+02  0.10922545385E+03  0.47000000000E+01 0.  1.
        -11    1    1    2    0    0  0.34980505323E+01  0.40890946706E+02 -0.60293358549E+02  0.72935553505E+02  0.00000000000E+00 0.  1.
         11    1    1    2    0    0 -0.98704422844E+01 -0.33443461973E+02 -0.20737646730E+03  0.21028763628E+03  0.00000000000E+00 0. -1.
<mgrwt>
<rscale>  0 0.15479738E+03</rscale>
<asrwt>0</asrwt>
<pdfrwt beam="2">  1        1 0.67909239E-01 0.18373964E+03</pdfrwt>
<pdfrwt beam="1">  1       -1 0.90202468E-02 0.18373964E+03</pdfrwt>
<totfact> 0.37400135E+03</totfact>
</mgrwt>
</event>
<event>
 6    1  0.6387485E-006  0.1471250E+03  0.7546771E-02  0.1218873E+00
         -2   -1    0    0    0  501 -0.00000000000E+00  0.00000000000E+00  0.26390694605E+02  0.26390694605E+02  0.00000000000E+00 0.  1.
          2   -1    0    0  501    0  0.00000000000E+00 -0.00000000000E+00 -0.63102422070E+03  0.63102422070E+03  0.00000000000E+00 0. -1.
          5    1    1    2  502    0 -0.49711940735E+01  0.48593391796E+02 -0.95802620194E+02  0.10763950266E+03  0.47000000000E+01 0. -1.
         -5    1    1    2    0  502 -0.28826341991E+02 -0.93586236337E+02 -0.19788283933E+03  0.22083715658E+03  0.47000000000E+01 0.  1.
        -11    1    1    2    0    0  0.20451328326E+02 -0.22110527119E+02 -0.43716007627E+02  0.53086924592E+02  0.00000000000E+00 0. -1.
         11    1    1    2    0    0  0.13346207739E+02  0.67103371661E+02 -0.26723205894E+03  0.27585133147E+03  0.00000000000E+00 0.  1.
<mgrwt>
<rscale>  0 0.13595876E+03</rscale>
<asrwt>0</asrwt>
<pdfrwt beam="2">  1        2 0.97080658E-01 0.14712500E+03</pdfrwt>
<pdfrwt beam="1">  1       -2 0.40601065E-02 0.14712500E+03</pdfrwt>
<totfact> 0.12236287E+04</totfact>
</mgrwt>
</event>
<event>
 6    1  0.6387485E-006  0.1591956E+03  0.7546771E-02  0.1200911E+00
          2   -1    0    0  501    0  0.00000000000E+00  0.00000000000E+00  0.40961447052E+03  0.40961447052E+03  0.00000000000E+00 0. -1.
         -2   -1    0    0    0  501 -0.00000000000E+00 -0.00000000000E+00 -0.57262987742E+02  0.57262987742E+02  0.00000000000E+00 0.  1.
          5    1    1    2  502    0  0.22803941826E+02  0.28114882564E+02  0.13198769291E+03  0.13694271599E+03  0.47000000000E+01 0. -1.
         -5    1    1    2    0  502  0.78124175564E+01  0.47902608187E+02 -0.25064848221E+02  0.54827277477E+02  0.47000000000E+01 0.  1.
        -11    1    1    2    0    0 -0.15085595458E+02 -0.96894001886E+02  0.18716829257E+03  0.21130071589E+03  0.00000000000E+00 0.  1.
         11    1    1    2    0    0 -0.15530763925E+02  0.20876511135E+02  0.58260345523E+02  0.63806748904E+02  0.00000000000E+00 0. -1.
<mgrwt>
<rscale>  0 0.14964440E+03</rscale>
<asrwt>0</asrwt>
<pdfrwt beam="1">  1        2 0.63017609E-01 0.15919559E+03</pdfrwt>
<pdfrwt beam="2">  1       -2 0.88096907E-02 0.15919559E+03</pdfrwt>
<totfact> 0.61080204E+03</totfact>
</mgrwt>
</event>
<event>
 7    1  0.6387485E-006  0.1859309E+03  0.7546771E-02  0.1167194E+00
          1   -1    0    0  501    0  0.00000000000E+00  0.00000000000E+00  0.13552744396E+03  0.13552744396E+03  0.00000000000E+00 0. -1.
         -1   -1    0    0    0  501 -0.00000000000E+00 -0.00000000000E+00 -0.44519701514E+03  0.44519701514E+03  0.00000000000E+00 0.  1.
         23    2    1    2    0    0  0.13763667795E+03  0.12942813571E+01 -0.36206576611E+03  0.40701585927E+03  0.12499904171E+03 0.  0.
          5    1    3    3  502    0  0.13093539165E+02 -0.26135305335E+02 -0.80215862376E+01  0.30674595329E+02  0.47000000000E+01 0.  1.
         -5    1    3    3    0  502  0.12454313878E+03  0.27429586692E+02 -0.35404417987E+03  0.37634126394E+03  0.47000000000E+01 0.  1.
        -11    1    1    2    0    0 -0.55747068228E+02 -0.32366512648E+02 -0.11254219861E+02  0.65436872035E+02  0.00000000000E+00 0.  1.
         11    1    1    2    0    0 -0.81889609717E+02  0.31072231291E+02  0.63650414793E+02  0.10827172780E+03  0.00000000000E+00 0. -1.
<mgrwt>
<rscale>  0 0.18063026E+03</rscale>
<asrwt>0</asrwt>
<pdfrwt beam="1">  1        1 0.20850376E-01 0.18593088E+03</pdfrwt>
<pdfrwt beam="2">  1       -1 0.68491849E-01 0.18593088E+03</pdfrwt>
<totfact> 0.54311969E+02</totfact>
</mgrwt>
</event>
<event>
 6    1  0.6387485E-006  0.1480916E+03  0.7546771E-02  0.1217083E+00
          1   -1    0    0  501    0  0.00000000000E+00  0.00000000000E+00  0.76354695929E+03  0.76354695929E+03  0.00000000000E+00 0. -1.
         -1   -1    0    0    0  501 -0.00000000000E+00 -0.00000000000E+00 -0.22103986925E+02  0.22103986925E+02  0.00000000000E+00 0.  1.
          5    1    1    2  502    0 -0.49015387624E+02 -0.63528974402E+00  0.89466678527E+02  0.10212388743E+03  0.47000000000E+01 0. -1.
         -5    1    1    2    0  502  0.79643634087E+02  0.52673655678E+02  0.28254218090E+03  0.29827805223E+03  0.47000000000E+01 0.  1.
        -11    1    1    2    0    0  0.24419824721E+02 -0.31389576291E+02  0.73881767293E+02  0.83905595031E+02  0.00000000000E+00 0.  1.
         11    1    1    2    0    0 -0.55048071184E+02 -0.20648789644E+02  0.29555234564E+03  0.30134341152E+03  0.00000000000E+00 0. -1.
<mgrwt>
<rscale>  0 0.13724663E+03</rscale>
<asrwt>0</asrwt>
<pdfrwt beam="1">  1        1 0.11746874E+00 0.14809160E+03</pdfrwt>
<pdfrwt beam="2">  1       -1 0.34006139E-02 0.14809160E+03</pdfrwt>
<totfact> 0.75117202E+03</totfact>
</mgrwt>
</event>
<event>
 7    1  0.6387485E-006  0.2106580E+03  0.7546771E-02  0.1144778E+00
          1   -1    0    0  501    0  0.00000000000E+00  0.00000000000E+00  0.26239152845E+03  0.26239152845E+03  0.00000000000E+00 0. -1.
         -1   -1    0    0    0  501 -0.00000000000E+00 -0.00000000000E+00 -0.17937260912E+03  0.17937260912E+03  0.00000000000E+00 0.  1.
         23    2    1    2    0    0  0.60177799119E+01 -0.16945860839E+03 -0.38326235303E+02  0.21411608382E+03  0.12499745360E+03 0.  0.
          5    1    3    3  502    0  0.30503452494E+02 -0.36493662540E+02  0.35930157068E+02  0.59793931185E+02  0.47000000000E+01 0. -1.
         -5    1    3    3    0  502 -0.24485672582E+02 -0.13296494585E+03 -0.74256392371E+02  0.15432215264E+03  0.47000000000E+01 0. -1.
        -11    1    1    2    0    0 -0.27460406424E+02  0.57290291745E+02  0.36213831443E+01  0.63634627877E+02  0.00000000000E+00 0.  1.
         11    1    1    2    0    0  0.21442626512E+02  0.11216831664E+03  0.11772377149E+03  0.16401342587E+03  0.00000000000E+00 0. -1.
<mgrwt>
<rscale>  0 0.20599361E+03</rscale>
<asrwt>0</asrwt>
<pdfrwt beam="1">  1        1 0.40367928E-01 0.21065801E+03</pdfrwt>
<pdfrwt beam="2">  1       -1 0.27595786E-01 0.21065801E+03</pdfrwt>
<totfact> 0.12196796E+03</totfact>
</mgrwt>
</event>
<event>
 7    1  0.6387485E-006  0.1600155E+03  0.7546771E-02  0.1196901E+00
          1   -1    0    0  501    0  0.00000000000E+00  0.00000000000E+00  0.30670479714E+03  0.30670479714E+03  0.00000000000E+00 0. -1.
         -1   -1    0    0    0  501 -0.00000000000E+00 -0.00000000000E+00 -0.70298120649E+02  0.70298120649E+02  0.00000000000E+00 0.  1.
         23    2    1    2    0    0 -0.99197167875E+02  0.11673103478E+02  0.12383306231E+03  0.20233536355E+03  0.12501452941E+03 0.  0.
          5    1    3    3  502    0 -0.49584170377E+02 -0.18524579876E+02 -0.12046809548E+02  0.54488215532E+02  0.47000000000E+01 0.  1.
         -5    1    3    3    0  502 -0.49612997498E+02  0.30197683354E+02  0.13587987186E+03  0.14784714802E+03  0.47000000000E+01 0.  1.
        -11    1    1    2    0    0  0.11419886031E+03 -0.12638818819E+00  0.91453396978E+02  0.14630488539E+03  0.00000000000E+00 0. -1.
         11    1    1    2    0    0 -0.15001692432E+02 -0.11546715289E+02  0.21120217205E+02  0.28362668855E+02  0.00000000000E+00 0.  1.
<mgrwt>
<rscale>  0 0.15294441E+03</rscale>
<asrwt>0</asrwt>
<pdfrwt beam="1">  1        1 0.47185353E-01 0.16001554E+03</pdfrwt>
<pdfrwt beam="2">  1       -1 0.10815096E-01 0.16001554E+03</pdfrwt>
<totfact> 0.44565448E+03</totfact>
</mgrwt>
</event>
<event>
 7    1  0.6387485E-006  0.1339877E+03  0.7546771E-02  0.1234673E+00
          2   -1    0    0  501    0  0.00000000000E+00  0.00000000000E+00  0.20395750032E+02  0.20395750032E+02  0.00000000000E+00 0. -1.
         -2   -1    0    0    0  501 -0.00000000000E+00 -0.00000000000E+00 -0.68452760820E+03  0.68452760820E+03  0.00000000000E+00 0.  1.
         23    2    1    2    0    0  0.15348597701E+02  0.45760929505E+02 -0.37378646429E+03  0.39707559340E+03  0.12499225522E+03 0.  0.
          5    1    3    3  502    0 -0.19152099270E+02  0.43847902042E+02 -0.35345426835E+03  0.35670919701E+03  0.47000000000E+01 0. -1.
         -5    1    3    3    0  502  0.34500696970E+02  0.19130274632E+01 -0.20332195946E+02  0.40366396390E+02  0.47000000000E+01 0. -1.
        -11    1    1    2    0    0  0.19562119943E+02 -0.44210041189E+02 -0.24928730241E+03  0.25393180860E+03  0.00000000000E+00 0.  1.
         11    1    1    2    0    0 -0.34910717644E+02 -0.15508883165E+01 -0.41058091469E+02  0.53915956229E+02  0.00000000000E+00 0. -1.
<mgrwt>
<rscale>  0 0.12525383E+03</rscale>
<asrwt>0</asrwt>
<pdfrwt beam="1">  1        2 0.31378077E-02 0.13398771E+03</pdfrwt>
<pdfrwt beam="2">  1       -2 0.10531194E+00 0.13398771E+03</pdfrwt>
<totfact> 0.21411184E+03</totfact>
</mgrwt>
</event>
<event>
 7    1  0.6387485E-006  0.2088942E+03  0.7546771E-02  0.1146192E+00
         -2   -1    0    0    0  501 -0.00000000000E+00  0.00000000000E+00  0.98664223549E+02  0.98664223549E+02  0.00000000000E+00 0.  1.
          2   -1    0    0  501    0  0.00000000000E+00 -0.00000000000E+00 -0.43084010288E+03  0.43084010288E+03  0.00000000000E+00 0. -1.
         23    2    1    2    0    0 -0.12055432486E+03  0.11609671381E+03 -0.10849251814E+03  0.23538775883E+03  0.12499991326E+03 0.  0.
          5    1    3    3  502    0  0.23073987803E+02  0.49356263159E+01 -0.27302687967E+02  0.36390879222E+02  0.47000000000E+01 0.  1.
         -5    1    3    3    0  502 -0.14362831266E+03  0.11116108750E+03 -0.81189830173E+02  0.19899687961E+03  0.47000000000E+01 0.  1.
        -11    1    1    2    0    0  0.42321142167E+02 -0.11685742697E+01 -0.97778101206E+02  0.10655046558E+03  0.00000000000E+00 0.  1.
         11    1    1    2    0    0  0.78233182690E+02 -0.11492813954E+03 -0.12590525999E+03  0.18756610202E+03  0.00000000000E+00 0. -1.
<mgrwt>
<rscale>  0 0.20426180E+03</rscale>
<asrwt>0</asrwt>
<pdfrwt beam="2">  1        2 0.66283093E-01 0.20889416E+03</pdfrwt>
<pdfrwt beam="1">  1       -2 0.15179111E-01 0.20889416E+03</pdfrwt>
<totfact> 0.24436995E+03</totfact>
</mgrwt>
</event>
<event>
 7    1  0.6387485E-006  0.2215388E+03  0.7546771E-02  0.1135532E+00
         -1   -1    0    0    0  501 -0.00000000000E+00  0.00000000000E+00  0.10683837290E+03  0.10683837290E+03  0.00000000000E+00 0.  1.
          1   -1    0    0  501    0  0.00000000000E+00 -0.00000000000E+00 -0.46669690896E+03  0.46669690896E+03  0.00000000000E+00 0. -1.
         23    2    1    2    0    0 -0.10420721044E+03 -0.15031603823E+03 -0.10482129840E+03  0.24508560685E+03  0.12500158411E+03 0.  0.
          5    1    3    3  502    0 -0.10166849998E+03 -0.55536399916E+02 -0.19747603103E+02  0.11761306659E+03  0.47000000000E+01 0. -1.
         -5    1    3    3    0  502 -0.25387104629E+01 -0.94779638318E+02 -0.85073695296E+02  0.12747254027E+03  0.47000000000E+01 0. -1.
        -11    1    1    2    0    0  0.61916190501E+02  0.89973533920E+02 -0.71155685175E+02  0.13035330063E+03  0.00000000000E+00 0.  1.
         11    1    1    2    0    0  0.42291019940E+02  0.60342504314E+02 -0.18388155249E+03  0.19809637438E+03  0.00000000000E+00 0. -1.
<mgrwt>
<rscale>  0 0.21780231E+03</rscale>
<asrwt>0</asrwt>
<pdfrwt beam="2">  1        1 0.71799524E-01 0.22153882E+03</pdfrwt>
<pdfrwt beam="1">  1       -1 0.16436673E-01 0.22153882E+03</pdfrwt>
<totfact> 0.13703794E+03</totfact>
</mgrwt>
</event>
<event>
 7    1  0.6387485E-006  0.2020223E+03  0.7546771E-02  0.1152379E+00
         -2   -1    0    0    0  501 -0.00000000000E+00  0.00000000000E+00  0.23765656061E+03  0.23765656061E+03  0.00000000000E+00 0.  1.
          2   -1    0    0  501    0  0.00000000000E+00 -0.00000000000E+00 -0.17813925197E+03  0.17813925197E+03  0.00000000000E+00 0. -1.
         23    2    1    2    0    0 -0.15678276154E+03  0.24585868356E+02  0.10531354895E+03  0.22782442818E+03  0.12501090850E+03 0.  0.
          5    1    3    3  502    0 -0.59588553169E+02  0.49359793543E+02  0.10100044247E+03  0.12731992879E+03  0.47000000000E+01 0.  1.
         -5    1    3    3    0  502 -0.97194208376E+02 -0.24773925187E+02  0.43131064787E+01  0.10050449939E+03  0.47000000000E+01 0.  1.
        -11    1    1    2    0    0  0.76486157161E+02 -0.41711114790E+02 -0.58433572800E+02  0.10490201030E+03  0.00000000000E+00 0. -1.
         11    1    1    2    0    0  0.80296604384E+02  0.17125246434E+02  0.12637332484E+02  0.83069374100E+02  0.00000000000E+00 0.  1.
<mgrwt>
<rscale>  0 0.19690219E+03</rscale>
<asrwt>0</asrwt>
<pdfrwt beam="2">  1        2 0.27406039E-01 0.20202234E+03</pdfrwt>
<pdfrwt beam="1">  1       -2 0.36562548E-01 0.20202234E+03</pdfrwt>
<totfact> 0.13611661E+03</totfact>
</mgrwt>
</event>
<event>
 7    1  0.6387485E-006  0.1387949E+03  0.7546771E-02  0.1226383E+00
          3   -1    0    0  501    0  0.00000000000E+00  0.00000000000E+00  0.14033739132E+03  0.14033739132E+03  0.00000000000E+00 0. -1.
         -3   -1    0    0    0  501 -0.00000000000E+00 -0.00000000000E+00 -0.11009792208E+03  0.11009792208E+03  0.00000000000E+00 0.  1.
         23    2    1    2    0    0  0.21636800400E+02 -0.56303783933E+02  0.84115068931E+01  0.13904959247E+03  0.12500307397E+03 0.  0.
          5    1    3    3  502    0  0.42247508736E+02  0.28252166960E+02  0.93304957033E+01  0.51886270654E+02  0.47000000000E+01 0.  1.
         -5    1    3    3    0  502 -0.20610708336E+02 -0.84555950893E+02 -0.91898881023E+00  0.87163321816E+02  0.47000000000E+01 0.  1.
        -11    1    1    2    0    0  0.18288943117E+02  0.28532037726E+02 -0.26349411869E+02  0.42928476831E+02  0.00000000000E+00 0.  1.
         11    1    1    2    0    0 -0.39925743517E+02  0.27771746207E+02  0.48177374217E+02  0.68457244096E+02  0.00000000000E+00 0. -1.
<mgrwt>
<rscale>  0 0.13072593E+03</rscale>
<asrwt>0</asrwt>
<pdfrwt beam="1">  1        3 0.21590368E-01 0.13879494E+03</pdfrwt>
<pdfrwt beam="2">  1       -3 0.16938142E-01 0.13879494E+03</pdfrwt>
<totfact> 0.13587855E+03</totfact>
</mgrwt>
</event>
<event>
 7    1  0.6387485E-006  0.1693662E+03  0.7546771E-02  0.1185426E+00
         -2   -1    0    0    0  501 -0.00000000000E+00  0.00000000000E+00  0.24953799433E+03  0.24953799433E+03  0.00000000000E+00 0.  1.
          2   -1    0    0  501    0  0.00000000000E+00 -0.00000000000E+00 -0.10841583350E+03  0.10841583350E+03  0.00000000000E+00 0. -1.
         23    2    1    2    0    0 -0.10957135709E+03 -0.32475866423E+02  0.12801587356E+03  0.21230400492E+03  0.12499744967E+03 0.  0.
          5    1    3    3  502    0 -0.58236114110E+02 -0.60012160025E+02  0.15024073317E+02  0.85092403401E+02  0.47000000000E+01 0. -1.
         -5    1    3    3    0  502 -0.51335242977E+02  0.27536293603E+02  0.11299180025E+03  0.12721160151E+03  0.47000000000E+01 0. -1.
        -11    1    1    2    0    0  0.10834369135E+03 -0.90459821526E+00 -0.33793184918E+01  0.10840015474E+03  0.00000000000E+00 0. -1.
         11    1    1    2    0    0  0.12276657371E+01  0.33380464638E+02  0.16485605752E+02  0.37249668181E+02  0.00000000000E+00 0.  1.
<mgrwt>
<rscale>  0 0.16293196E+03</rscale>
<asrwt>0</asrwt>
<pdfrwt beam="2">  1        2 0.16679359E-01 0.16936625E+03</pdfrwt>
<pdfrwt beam="1">  1       -2 0.38390460E-01 0.16936625E+03</pdfrwt>
<totfact> 0.21662140E+03</totfact>
</mgrwt>
</event>
<event>
 7    1  0.9362267E-006  0.3734564E+03  0.7546771E-02  0.1054367E+00
         -1   -1    0    0    0  501 -0.00000000000E+00  0.00000000000E+00  0.25028767747E+03  0.25028767747E+03  0.00000000000E+00 0.  1.
          1   -1    0    0  501    0  0.00000000000E+00 -0.00000000000E+00 -0.68883295098E+03  0.68883295098E+03  0.00000000000E+00 0. -1.
         23    2    1    2    0    0  0.28423274066E+02 -0.35076667985E+03 -0.48913818821E+01  0.37348847348E+03  0.12499827201E+03 0.  0.
          5    1    3    3  502    0  0.43013283234E+02 -0.72660063443E+02  0.36116456146E+02  0.91957140879E+02  0.47000000000E+01 0. -1.
         -5    1    3    3    0  502 -0.14590009169E+02 -0.27810661641E+03 -0.41007838028E+02  0.28153133260E+03  0.47000000000E+01 0. -1.
        -11    1    1    2    0    0 -0.29786689291E+02  0.25252531535E+03 -0.24591402331E+03  0.35373717449E+03  0.00000000000E+00 0.  1.
         11    1    1    2    0    0  0.13634152257E+01  0.98241364502E+02 -0.18773986831E+03  0.21189498049E+03  0.00000000000E+00 0. -1.
<mgrwt>
<rscale>  0 0.37085488E+03</rscale>
<asrwt>0</asrwt>
<pdfrwt beam="2">  1        1 0.10597430E+00 0.37345644E+03</pdfrwt>
<pdfrwt beam="1">  1       -1 0.38505797E-01 0.37345644E+03</pdfrwt>
<totfact> 0.19026550E+02</totfact>
</mgrwt>
</event>
<event>
 7    1  0.6387485E-006  0.1327996E+03  0.7546771E-02  0.1236644E+00
         -2   -1    0    0    0  501 -0.00000000000E+00  0.00000000000E+00  0.22829202580E+02  0.22829202580E+02  0.00000000000E+00 0.  1.
          2   -1    0    0  501    0  0.00000000000E+00 -0.00000000000E+00 -0.75747725627E+03  0.75747725627E+03  0.00000000000E+00 0. -1.
         23    2    1    2    0    0 -0.27956397980E+02  0.35063960425E+02 -0.22933362429E+03  0.26500874907E+03  0.12499873736E+03 0.  0.
          5    1    3    3  502    0 -0.45835115062E+02  0.53804591863E+02 -0.22788958931E+03  0.23864523208E+03  0.47000000000E+01 0. -1.
         -5    1    3    3    0  502  0.17878717081E+02 -0.18740631438E+02 -0.14440349868E+01  0.26363516993E+02  0.47000000000E+01 0. -1.
        -11    1    1    2    0    0 -0.28534436326E+02 -0.32893161001E+02 -0.18708296665E+03  0.19208386321E+03  0.00000000000E+00 0. -1.
         11    1    1    2    0    0  0.56490834307E+02 -0.21707994235E+01 -0.31823146275E+03  0.32321384657E+03  0.00000000000E+00 0.  1.
<mgrwt>
<rscale>  0 0.12399788E+03</rscale>
<asrwt>0</asrwt>
<pdfrwt beam="2">  1        2 0.11653497E+00 0.13279957E+03</pdfrwt>
<pdfrwt beam="1">  1       -2 0.35121849E-02 0.13279957E+03</pdfrwt>
<totfact> 0.12135760E+04</totfact>
</mgrwt>
</event>
<event>
 6    1  0.6387485E-006  0.2032587E+03  0.7546771E-02  0.1168499E+00
          2   -1    0    0  501    0  0.00000000000E+00  0.00000000000E+00  0.10547967306E+04  0.10547967306E+04  0.00000000000E+00 0. -1.
         -2   -1    0    0    0  501 -0.00000000000E+00 -0.00000000000E+00 -0.30601796572E+02  0.30601796572E+02  0.00000000000E+00 0.  1.
          5    1    1    2  502    0 -0.10339515121E+02  0.84069383102E+02  0.17911142045E+03  0.19818566468E+03  0.47000000000E+01 0. -1.
         -5    1    1    2    0  502  0.95727878592E+02 -0.68844678958E+02  0.21524362836E+03  0.24546960323E+03  0.47000000000E+01 0.  1.
        -11    1    1    2    0    0 -0.56980952086E+02  0.33309700841E+02  0.30357986707E+03  0.31067201477E+03  0.00000000000E+00 0. -1.
         11    1    1    2    0    0 -0.28407411385E+02 -0.48534404985E+02  0.32626001812E+03  0.33107124447E+03  0.00000000000E+00 0.  1.
<mgrwt>
<rscale>  0 0.17928282E+03</rscale>
<asrwt>0</asrwt>
<pdfrwt beam="1">  1        2 0.16227639E+00 0.20325868E+03</pdfrwt>
<pdfrwt beam="2">  1       -2 0.47079695E-02 0.20325868E+03</pdfrwt>
<totfact> 0.51663064E+03</totfact>
</mgrwt>
</event>
<event>
 7    1  0.6387485E-006  0.1994057E+03  0.7546771E-02  0.1154456E+00
          1   -1    0    0  501    0  0.00000000000E+00  0.00000000000E+00  0.23798428068E+03  0.23798428068E+03  0.00000000000E+00 0. -1.
         -1   -1    0    0    0  501 -0.00000000000E+00 -0.00000000000E+00 -0.26920223154E+03  0.26920223154E+03  0.00000000000E+00 0.  1.
         23    2    1    2    0    0  0.11999907549E+03  0.98665048706E+02 -0.18351353145E+03  0.27099791288E+03  0.12501232981E+03 0.  0.
          5    1    3    3  502    0  0.35451803731E+02  0.13307397896E+01  0.11132552919E+02  0.37478326946E+02  0.47000000000E+01 0.  1.
         -5    1    3    3    0  502  0.84547271760E+02  0.97334308916E+02 -0.19464608437E+03  0.23351958593E+03  0.47000000000E+01 0.  1.
        -11    1    1    2    0    0 -0.10313621248E+03 -0.48550993064E+02  0.57570347706E+02  0.12770521597E+03  0.00000000000E+00 0.  1.
         11    1    1    2    0    0 -0.16862863015E+02 -0.50114055642E+02  0.94725232882E+02  0.10848338337E+03  0.00000000000E+00 0. -1.
<mgrwt>
<rscale>  0 0.19450943E+03</rscale>
<asrwt>0</asrwt>
<pdfrwt beam="1">  1        1 0.36612966E-01 0.19940575E+03</pdfrwt>
<pdfrwt beam="2">  1       -1 0.41415728E-01 0.19940575E+03</pdfrwt>
<totfact> 0.68344866E+02</totfact>
</mgrwt>
</event>
<event>
 7    1  0.6387485E-006  0.1285215E+03  0.7546771E-02  0.1243086E+00
          1   -1    0    0  501    0  0.00000000000E+00  0.00000000000E+00  0.19346102064E+03  0.19346102064E+03  0.00000000000E+00 0. -1.
         -1   -1    0    0    0  501 -0.00000000000E+00 -0.00000000000E+00 -0.82181552380E+02  0.82181552380E+02  0.00000000000E+00 0.  1.
         23    2    1    2    0    0  0.29344790377E+02 -0.56763523550E+01  0.12911460521E+01  0.12852801959E+03  0.12499778823E+03 0.  0.
          5    1    3    3  502    0 -0.38477583975E+02  0.17618196447E+02  0.28988002163E+02  0.51510383264E+02  0.47000000000E+01 0. -1.
         -5    1    3    3    0  502  0.67822374352E+02 -0.23294548802E+02 -0.27696856111E+02  0.77017636325E+02  0.47000000000E+01 0. -1.
        -11    1    1    2    0    0 -0.16535528057E+02  0.36183953401E+02  0.89240491719E+01  0.40771814106E+02  0.00000000000E+00 0. -1.
         11    1    1    2    0    0 -0.12809262320E+02 -0.30507601046E+02  0.10106427303E+03  0.10634273932E+03  0.00000000000E+00 0.  1.
<mgrwt>
<rscale>  0 0.12000667E+03</rscale>
<asrwt>0</asrwt>
<pdfrwt beam="1">  1        1 0.29763234E-01 0.12852153E+03</pdfrwt>
<pdfrwt beam="2">  1       -1 0.12643316E-01 0.12852153E+03</pdfrwt>
<totfact> 0.61230890E+03</totfact>
</mgrwt>
</event>
<event>
 7    1  0.6387485E-006  0.1377053E+03  0.7546771E-02  0.1228239E+00
          2   -1    0    0  501    0  0.00000000000E+00  0.00000000000E+00  0.70252785113E+03  0.70252785113E+03  0.00000000000E+00 0. -1.
         -2   -1    0    0    0  501 -0.00000000000E+00 -0.00000000000E+00 -0.28999583366E+02  0.28999583366E+02  0.00000000000E+00 0.  1.
         23    2    1    2    0    0  0.22871730842E+02 -0.53052176179E+02  0.18126964415E+03  0.22764320285E+03  0.12500037778E+03 0.  0.
          5    1    3    3  502    0 -0.47755223010E+01 -0.59601584072E+02  0.18861610251E+03  0.19792240541E+03  0.47000000000E+01 0.  1.
         -5    1    3    3    0  502  0.27647253143E+02  0.65494078930E+01 -0.73464583578E+01  0.29720797441E+02  0.47000000000E+01 0.  1.
        -11    1    1    2    0    0 -0.13176490050E+02  0.77000434958E+02  0.41857061970E+03  0.42579813357E+03  0.00000000000E+00 0.  1.
         11    1    1    2    0    0 -0.96952407925E+01 -0.23948258778E+02  0.73688003907E+02  0.78086098074E+02  0.00000000000E+00 0. -1.
<mgrwt>
<rscale>  0 0.12947327E+03</rscale>
<asrwt>0</asrwt>
<pdfrwt beam="1">  1        2 0.10808120E+00 0.13770528E+03</pdfrwt>
<pdfrwt beam="2">  1       -2 0.44614749E-02 0.13770528E+03</pdfrwt>
<totfact> 0.93342773E+03</totfact>
</mgrwt>
</event>
<event>
 7    1  0.6387485E-006  0.1576918E+03  0.7546771E-02  0.1199349E+00
          1   -1    0    0  501    0  0.00000000000E+00  0.00000000000E+00  0.52367584236E+03  0.52367584236E+03  0.00000000000E+00 0. -1.
         -1   -1    0    0    0  501 -0.00000000000E+00 -0.00000000000E+00 -0.40156129597E+02  0.40156129597E+02  0.00000000000E+00 0.  1.
         23    2    1    2    0    0  0.95791142130E+02  0.79967580667E+01  0.25823282297E+03  0.30257378576E+03  0.12500725546E+03 0.  0.
          5    1    3    3  502    0  0.68904538853E+02 -0.35851642071E+02  0.23188253079E+03  0.24459103377E+03  0.47000000000E+01 0.  1.
         -5    1    3    3    0  502  0.26886603277E+02  0.43848400138E+02  0.26350292182E+02  0.57982751991E+02  0.47000000000E+01 0.  1.
        -11    1    1    2    0    0 -0.58141539641E+02 -0.47840466503E+02  0.10644725649E+03  0.13038468960E+03  0.00000000000E+00 0.  1.
         11    1    1    2    0    0 -0.37649602489E+02  0.39843708436E+02  0.11883963330E+03  0.13087349660E+03  0.00000000000E+00 0. -1.
<mgrwt>
<rscale>  0 0.15091824E+03</rscale>
<asrwt>0</asrwt>
<pdfrwt beam="1">  1        1 0.80565509E-01 0.15769180E+03</pdfrwt>
<pdfrwt beam="2">  1       -1 0.61778665E-02 0.15769180E+03</pdfrwt>
<totfact> 0.52680535E+03</totfact>
</mgrwt>
</event>
<event>
 7    1  0.6387485E-006  0.2542102E+03  0.7546771E-02  0.1113003E+00
         -2   -1    0    0    0  501 -0.00000000000E+00  0.00000000000E+00  0.40325172569E+02  0.40325172569E+02  0.00000000000E+00 0.  1.
          2   -1    0    0  501    0  0.00000000000E+00 -0.00000000000E+00 -0.15502344029E+04  0.15502344029E+04  0.00000000000E+00 0. -1.
         23    2    1    2    0    0  0.16115612392E+03  0.15174348335E+03 -0.65159881846E+03  0.69943107702E+03  0.12500172108E+03 0.  0.
          5    1    3    3  502    0  0.16409543084E+03  0.10452327812E+03 -0.59213769904E+03  0.62329894170E+03  0.47000000000E+01 0. -1.
         -5    1    3    3    0  502 -0.29393069147E+01  0.47220205234E+02 -0.59461119411E+02  0.76132135324E+02  0.47000000000E+01 0. -1.
        -11    1    1    2    0    0 -0.84781413449E+02 -0.33851199596E+02 -0.23324062501E+03  0.25046952097E+03  0.00000000000E+00 0.  1.
         11    1    1    2    0    0 -0.76374710472E+02 -0.11789228376E+03 -0.62506978682E+03  0.64065897743E+03  0.00000000000E+00 0. -1.
<mgrwt>
<rscale>  0 0.25047893E+03</rscale>
<asrwt>0</asrwt>
<pdfrwt beam="2">  1        2 0.23849758E+00 0.25421017E+03</pdfrwt>
<pdfrwt beam="1">  1       -2 0.62038731E-02 0.25421017E+03</pdfrwt>
<totfact> 0.18043656E+03</totfact>
</mgrwt>
</event>
<event>
 7    1  0.6387485E-006  0.1749214E+03  0.7546771E-02  0.1179057E+00
          4   -1    0    0  501    0  0.00000000000E+00  0.00000000000E+00  0.26726569722E+03  0.26726569722E+03  0.00000000000E+00 0. -1.
         -4   -1    0    0    0  501 -0.00000000000E+00 -0.00000000000E+00 -0.10078091809E+03  0.10078091809E+03  0.00000000000E+00 0.  1.
         23    2    1    2    0    0  0.10534946327E+03 -0.62241453604E+02  0.71765534550E+02  0.18907084891E+03  0.12499994399E+03 0.  0.
          5    1    3    3  502    0  0.27806433195E+02  0.37348059342E+02  0.76380721411E+01  0.47418407920E+02  0.47000000000E+01 0.  1.
         -5    1    3    3    0  502  0.77543030074E+02 -0.99589512947E+02  0.64127462409E+02  0.14165244099E+03  0.47000000000E+01 0.  1.
        -11    1    1    2    0    0 -0.93407341386E+01  0.12924408813E+02 -0.17224320571E+02  0.23472683625E+02  0.00000000000E+00 0.  1.
         11    1    1    2    0    0 -0.96008729131E+02  0.49317044792E+02  0.11194356515E+03  0.15550308278E+03  0.00000000000E+00 0. -1.
<mgrwt>
<rscale>  0 0.16884609E+03</rscale>
<asrwt>0</asrwt>
<pdfrwt beam="1">  1        4 0.41117799E-01 0.17492139E+03</pdfrwt>
<pdfrwt beam="2">  1       -4 0.15504757E-01 0.17492139E+03</pdfrwt>
<totfact> 0.35626677E+02</totfact>
</mgrwt>
</event>
<event>
 6    1  0.6387485E-006  0.2007601E+03  0.7546771E-02  0.1164454E+00
         -1   -1    0    0    0  501 -0.00000000000E+00  0.00000000000E+00  0.46880549513E+02  0.46880549513E+02  0.00000000000E+00 0.  1.
          1   -1    0    0  501    0  0.00000000000E+00 -0.00000000000E+00 -0.69737565026E+03  0.69737565026E+03  0.00000000000E+00 0. -1.
          5    1    1    2  502    0  0.16082655574E+02  0.11871893664E+03 -0.12602153363E+03  0.17394353873E+03  0.47000000000E+01 0. -1.
         -5    1    1    2    0  502 -0.71903632965E+02 -0.29489899954E+02 -0.12820070672E+03  0.14999099252E+03  0.47000000000E+01 0.  1.
        -11    1    1    2    0    0  0.23934887547E+02  0.16182201862E+02 -0.62624703690E+02  0.68968079655E+02  0.00000000000E+00 0. -1.
         11    1    1    2    0    0  0.31886089844E+02 -0.10541123855E+03 -0.33364815671E+03  0.35135358887E+03  0.00000000000E+00 0.  1.
<mgrwt>
<rscale>  0 0.18350403E+03</rscale>
<asrwt>0</asrwt>
<pdfrwt beam="2">  1        1 0.10728856E+00 0.20076014E+03</pdfrwt>
<pdfrwt beam="1">  1       -1 0.72123923E-02 0.20076014E+03</pdfrwt>
<totfact> 0.28349815E+03</totfact>
</mgrwt>
</event>
<event>
 7    1  0.6387485E-006  0.1267364E+03  0.7546771E-02  0.1240451E+00
          2   -1    0    0  501    0  0.00000000000E+00  0.00000000000E+00  0.42932570603E+03  0.42932570603E+03  0.00000000000E+00 0. -1.
         -2   -1    0    0    0  501 -0.00000000000E+00 -0.00000000000E+00 -0.32542014541E+02  0.32542014541E+02  0.00000000000E+00 0.  1.
         23    2    1    2    0    0 -0.20840551159E+02  0.90021271101E+00  0.18314884316E+03  0.22272315512E+03  0.12500786423E+03 0.  0.
          5    1    3    3  502    0 -0.12615829308E+02  0.56335914106E+01 -0.16936991277E+02  0.22357284603E+02  0.47000000000E+01 0. -1.
         -5    1    3    3    0  502 -0.82247218503E+01 -0.47333786996E+01  0.20008583444E+03  0.20036587052E+03  0.47000000000E+01 0. -1.
        -11    1    1    2    0    0 -0.28470555137E+02  0.34882099871E+02  0.71416529565E+02  0.84425435126E+02  0.00000000000E+00 0. -1.
         11    1    1    2    0    0  0.49311106296E+02 -0.35782312582E+02  0.14221831876E+03  0.15471913032E+03  0.00000000000E+00 0.  1.
<mgrwt>
<rscale>  0 0.12161859E+03</rscale>
<asrwt>0</asrwt>
<pdfrwt beam="1">  1        2 0.66050104E-01 0.12673636E+03</pdfrwt>
<pdfrwt beam="2">  1       -2 0.50064641E-02 0.12673636E+03</pdfrwt>
<totfact> 0.13560245E+04</totfact>
</mgrwt>
</event>
<event>
 7    1  0.6387485E-006  0.1530130E+03  0.7546771E-02  0.1204885E+00
          1   -1    0    0  501    0  0.00000000000E+00  0.00000000000E+00  0.12828108913E+04  0.12828108913E+04  0.00000000000E+00 0. -1.
         -1   -1    0    0    0  501 -0.00000000000E+00 -0.00000000000E+00 -0.15440169366E+02  0.15440169366E+02  0.00000000000E+00 0.  1.
         23    2    1    2    0    0 -0.30606504103E+02 -0.82780076407E+02  0.69312870665E+03  0.70981714142E+03  0.12499468436E+03 0.  0.
          5    1    3    3  502    0 -0.26364048510E+02 -0.83685575489E+02  0.69688321329E+03  0.70240062754E+03  0.47000000000E+01 0.  1.
         -5    1    3    3    0  502 -0.42424555929E+01  0.90549908149E+00 -0.37545066366E+01  0.74165138798E+01  0.47000000000E+01 0.  1.
        -11    1    1    2    0    0  0.17998819765E+02  0.10295562035E+03  0.45642107135E+03  0.46823499618E+03  0.00000000000E+00 0. -1.
         11    1    1    2    0    0  0.12607684338E+02 -0.20175543947E+02  0.11782094389E+03  0.12019892302E+03  0.00000000000E+00 0.  1.
<mgrwt>
<rscale>  0 0.14646492E+03</rscale>
<asrwt>0</asrwt>
<pdfrwt beam="1">  1        1 0.19735544E+00 0.15301297E+03</pdfrwt>
<pdfrwt beam="2">  1       -1 0.23754117E-02 0.15301297E+03</pdfrwt>
<totfact> 0.52541867E+03</totfact>
</mgrwt>
</event>
<event>
 7    1  0.6387485E-006  0.2302975E+03  0.7546771E-02  0.1129576E+00
         -2   -1    0    0    0  501 -0.00000000000E+00  0.00000000000E+00  0.43519458341E+03  0.43519458341E+03  0.00000000000E+00 0.  1.
          2   -1    0    0  501    0  0.00000000000E+00 -0.00000000000E+00 -0.11965141157E+03  0.11965141157E+03  0.00000000000E+00 0. -1.
         23    2    1    2    0    0 -0.10417277842E+03  0.16297279219E+03  0.97926868872E+02  0.25025313018E+03  0.12499943503E+03 0.  0.
          5    1    3    3  502    0 -0.39648391580E+02  0.11007506380E+03 -0.55759461896E+01  0.11722497943E+03  0.47000000000E+01 0.  1.
         -5    1    3    3    0  502 -0.64524386843E+02  0.52897728387E+02  0.10350281506E+03  0.13302815075E+03  0.47000000000E+01 0.  1.
        -11    1    1    2    0    0  0.18201898818E+02 -0.54747405348E+02  0.12652833396E+03  0.13906116211E+03  0.00000000000E+00 0. -1.
         11    1    1    2    0    0  0.85970879605E+02 -0.10822538684E+03  0.91087969009E+02  0.16553170269E+03  0.00000000000E+00 0.  1.
<mgrwt>
<rscale>  0 0.22587742E+03</rscale>
<asrwt>0</asrwt>
<pdfrwt beam="2">  1        2 0.18407910E-01 0.23029754E+03</pdfrwt>
<pdfrwt beam="1">  1       -2 0.66953012E-01 0.23029754E+03</pdfrwt>
<totfact> 0.64109606E+02</totfact>
</mgrwt>
</event>
<event>
 7    1  0.6387485E-006  0.1342152E+03  0.7546771E-02  0.1236785E+00
          4   -1    0    0  501    0  0.00000000000E+00  0.00000000000E+00  0.10051442491E+03  0.10051442491E+03  0.00000000000E+00 0. -1.
         -4   -1    0    0    0  501 -0.00000000000E+00 -0.00000000000E+00 -0.13637327766E+03  0.13637327766E+03  0.00000000000E+00 0.  1.
         23    2    1    2    0    0 -0.32904517859E+02 -0.36364140546E+02 -0.37570240143E+02  0.13937449686E+03  0.12493466060E+03 0.  0.
          5    1    3    3  502    0  0.85619506132E+00 -0.76438409788E+02 -0.34429764297E+01  0.76664904927E+02  0.47000000000E+01 0.  1.
         -5    1    3    3    0  502 -0.33760712920E+02  0.40074269242E+02 -0.34127263714E+02  0.62709591936E+02  0.47000000000E+01 0.  1.
        -11    1    1    2    0    0  0.12116971704E+02  0.32103423313E+01  0.40511537533E+02  0.42406508633E+02  0.00000000000E+00 0. -1.
         11    1    1    2    0    0  0.20787546155E+02  0.33153798214E+02 -0.38800150143E+02  0.55106697073E+02  0.00000000000E+00 0.  1.
<mgrwt>
<rscale>  0 0.12390832E+03</rscale>
<asrwt>0</asrwt>
<pdfrwt beam="1">  1        4 0.15463758E-01 0.13421523E+03</pdfrwt>
<pdfrwt beam="2">  1       -4 0.20980504E-01 0.13421523E+03</pdfrwt>
<totfact> 0.12152619E+03</totfact>
</mgrwt>
</event>
<event>
 7    1  0.6387485E-006  0.1288788E+03  0.7546771E-02  0.1245072E+00
         -1   -1    0    0    0  501 -0.00000000000E+00  0.00000000000E+00  0.16355103120E+02  0.16355103120E+02  0.00000000000E+00 0.  1.
          1   -1    0    0  501    0  0.00000000000E+00 -0.00000000000E+00 -0.76396409552E+03  0.76396409552E+03  0.00000000000E+00 0. -1.
         23    2    1    2    0    0 -0.29801823934E+02  0.98169041685E+01 -0.38729026274E+03  0.40817089548E+03  0.12500084795E+03 0.  0.
          5    1    3    3  502    0 -0.57235169960E+02 -0.33470653855E+02 -0.29602369796E+03  0.30339457659E+03  0.47000000000E+01 0.  1.
         -5    1    3    3    0  502  0.27433346026E+02  0.43287558024E+02 -0.91266564776E+02  0.10477631889E+03  0.47000000000E+01 0.  1.
        -11    1    1    2    0    0 -0.25259786020E+02 -0.25434817195E+02 -0.14051217847E+03  0.14501261674E+03  0.00000000000E+00 0. -1.
         11    1    1    2    0    0  0.55061609953E+02  0.15617913027E+02 -0.21980655120E+03  0.22713568642E+03  0.00000000000E+00 0.  1.
<mgrwt>
<rscale>  0 0.11881072E+03</rscale>
<asrwt>0</asrwt>
<pdfrwt beam="2">  1        1 0.11753294E+00 0.12887875E+03</pdfrwt>
<pdfrwt beam="1">  1       -1 0.25161697E-02 0.12887875E+03</pdfrwt>
<totfact> 0.11539288E+04</totfact>
</mgrwt>
</event>
<event>
 7    1  0.6387485E-006  0.1341542E+03  0.7546771E-02  0.1234500E+00
          2   -1    0    0  501    0  0.00000000000E+00  0.00000000000E+00  0.10630889771E+03  0.10630889771E+03  0.00000000000E+00 0. -1.
         -2   -1    0    0    0  501 -0.00000000000E+00 -0.00000000000E+00 -0.13210600046E+03  0.13210600046E+03  0.00000000000E+00 0.  1.
         23    2    1    2    0    0 -0.32152947626E+02  0.36596331872E+02 -0.22716593016E+02  0.13606390922E+03  0.12499696095E+03 0.  0.
          5    1    3    3  502    0 -0.62803819114E+02  0.45204182265E+02 -0.51350529781E+02  0.92987658849E+02  0.47000000000E+01 0. -1.
         -5    1    3    3    0  502  0.30650871487E+02 -0.86078503923E+01  0.28633936766E+02  0.43076250371E+02  0.47000000000E+01 0. -1.
        -11    1    1    2    0    0  0.51460964248E+02  0.94793140287E+01 -0.55809149578E+00  0.52329721018E+02  0.00000000000E+00 0.  1.
         11    1    1    2    0    0 -0.19308016621E+02 -0.46075645901E+02 -0.25224182410E+01  0.50021267925E+02  0.00000000000E+00 0. -1.
<mgrwt>
<rscale>  0 0.12536519E+03</rscale>
<asrwt>0</asrwt>
<pdfrwt beam="1">  1        2 0.16355215E-01 0.13415418E+03</pdfrwt>
<pdfrwt beam="2">  1       -2 0.20324000E-01 0.13415418E+03</pdfrwt>
<totfact> 0.68011479E+03</totfact>
</mgrwt>
</event>
<event>
 7    1  0.6387485E-006  0.1485600E+03  0.7546771E-02  0.1211070E+00
          2   -1    0    0  501    0  0.00000000000E+00  0.00000000000E+00  0.90551522127E+03  0.90551522127E+03  0.00000000000E+00 0. -1.
         -2   -1    0    0    0  501 -0.00000000000E+00 -0.00000000000E+00 -0.22987593384E+02  0.22987593384E+02  0.00000000000E+00 0.  1.
         23    2    1    2    0    0 -0.77828248150E+01  0.80021084003E+02  0.32150822690E+03  0.35417171778E+03  0.12492445501E+03 0.  0.
          5    1    3    3  502    0 -0.57911804224E+02  0.21353257342E+02  0.83638968504E+02  0.10405434023E+03  0.47000000000E+01 0.  1.
         -5    1    3    3    0  502  0.50128979409E+02  0.58667826661E+02  0.23786925840E+03  0.25011737755E+03  0.47000000000E+01 0.  1.
        -11    1    1    2    0    0  0.27902905499E+02  0.36264024846E+01  0.63881612144E+02  0.69803891728E+02  0.00000000000E+00 0.  1.
         11    1    1    2    0    0 -0.20120080684E+02 -0.83647486488E+02  0.49713778884E+03  0.50452720515E+03  0.00000000000E+00 0. -1.
<mgrwt>
<rscale>  0 0.14169247E+03</rscale>
<asrwt>0</asrwt>
<pdfrwt beam="1">  1        2 0.13931001E+00 0.14855997E+03</pdfrwt>
<pdfrwt beam="2">  1       -2 0.35365535E-02 0.14855997E+03</pdfrwt>
<totfact> 0.96511653E+03</totfact>
</mgrwt>
</event>
<event>
 7    1  0.6387485E-006  0.1388866E+03  0.7546771E-02  0.1226006E+00
          1   -1    0    0  501    0  0.00000000000E+00  0.00000000000E+00  0.16614746686E+03  0.16614746686E+03  0.00000000000E+00 0. -1.
         -1   -1    0    0    0  501 -0.00000000000E+00 -0.00000000000E+00 -0.93107994781E+02  0.93107994781E+02  0.00000000000E+00 0.  1.
         23    2    1    2    0    0  0.15450569538E+02 -0.58538643023E+02  0.41029137541E+02  0.14482019524E+03  0.12499602393E+03 0.  0.
          5    1    3    3  502    0 -0.14428997876E+02 -0.38087461934E+02 -0.39168617586E+02  0.56702039997E+02  0.47000000000E+01 0.  1.
         -5    1    3    3    0  502  0.29879567414E+02 -0.20451181089E+02  0.80197755126E+02  0.88118155247E+02  0.47000000000E+01 0.  1.
        -11    1    1    2    0    0  0.62435410308E+01  0.62102822228E+02 -0.13530359901E+02  0.63865585196E+02  0.00000000000E+00 0.  1.
         11    1    1    2    0    0 -0.21694110569E+02 -0.35641792053E+01  0.45540694440E+02  0.50569681202E+02  0.00000000000E+00 0. -1.
<mgrwt>
<rscale>  0 0.13098218E+03</rscale>
<asrwt>0</asrwt>
<pdfrwt beam="1">  1        1 0.25561149E-01 0.13888664E+03</pdfrwt>
<pdfrwt beam="2">  1       -1 0.14324307E-01 0.13888664E+03</pdfrwt>
<totfact> 0.61296956E+03</totfact>
</mgrwt>
</event>
<event>
 7    1  0.6387485E-006  0.1536219E+03  0.7546771E-02  0.1204813E+00
         -2   -1    0    0    0  501 -0.00000000000E+00  0.00000000000E+00  0.45213242612E+03  0.45213242612E+03  0.00000000000E+00 0.  1.
          2   -1    0    0  501    0  0.00000000000E+00 -0.00000000000E+00 -0.14386180022E+03  0.14386180022E+03  0.00000000000E+00 0. -1.
         23    2    1    2    0    0  0.15797225560E+02  0.87930696888E+02  0.40700119334E+03  0.43502835060E+03  0.12497333578E+03 0.  0.
          5    1    3    3  502    0  0.83304606727E+01 -0.10458426504E+02  0.24413231184E+03  0.24454335187E+03  0.47000000000E+01 0.  1.
         -5    1    3    3    0  502  0.74667648875E+01  0.98389123393E+02  0.16286888151E+03  0.19048499873E+03  0.47000000000E+01 0.  1.
        -11    1    1    2    0    0  0.57930511649E+01  0.13357684460E+02 -0.38499843851E+02  0.41160966370E+02  0.00000000000E+00 0. -1.
         11    1    1    2    0    0 -0.21590276725E+02 -0.10128838135E+03 -0.60230723591E+02  0.11980490937E+03  0.00000000000E+00 0.  1.
<mgrwt>
<rscale>  0 0.14652197E+03</rscale>
<asrwt>0</asrwt>
<pdfrwt beam="2">  1        2 0.22132585E-01 0.15362192E+03</pdfrwt>
<pdfrwt beam="1">  1       -2 0.69558834E-01 0.15362192E+03</pdfrwt>
<totfact> 0.47633128E+02</totfact>
</mgrwt>
</event>
<event>
 7    1  0.6387485E-006  0.1674865E+03  0.7546771E-02  0.1187288E+00
         -1   -1    0    0    0  501 -0.00000000000E+00  0.00000000000E+00  0.31478164282E+02  0.31478164282E+02  0.00000000000E+00 0.  1.
          1   -1    0    0  501    0  0.00000000000E+00 -0.00000000000E+00 -0.82727372023E+03  0.82727372023E+03  0.00000000000E+00 0. -1.
         23    2    1    2    0    0 -0.10405439571E+03 -0.40013517482E+02 -0.31340032968E+03  0.35534701365E+03  0.12499333829E+03 0.  0.
          5    1    3    3  502    0 -0.73325183371E+02 -0.11233737737E+02 -0.30264599800E+03  0.31163996773E+03  0.47000000000E+01 0. -1.
         -5    1    3    3    0  502 -0.30729212341E+02 -0.28779779746E+02 -0.10754331682E+02  0.43707045922E+02  0.47000000000E+01 0. -1.
        -11    1    1    2    0    0  0.68084780332E+02 -0.93778328194E+01 -0.36117997670E+03  0.36766079017E+03  0.00000000000E+00 0. -1.
         11    1    1    2    0    0  0.35969615380E+02  0.49391350302E+02 -0.12121524957E+03  0.13574408069E+03  0.00000000000E+00 0.  1.
<mgrwt>
<rscale>  0 0.16125413E+03</rscale>
<asrwt>0</asrwt>
<pdfrwt beam="2">  1        1 0.12727287E+00 0.16748652E+03</pdfrwt>
<pdfrwt beam="1">  1       -1 0.48427950E-02 0.16748652E+03</pdfrwt>
<totfact> 0.39722859E+03</totfact>
</mgrwt>
</event>
<event>
 7    1  0.6387485E-006  0.1552703E+03  0.7546771E-02  0.1202011E+00
          2   -1    0    0  501    0  0.00000000000E+00  0.00000000000E+00  0.71602829758E+02  0.71602829758E+02  0.00000000000E+00 0. -1.
         -2   -1    0    0    0  501 -0.00000000000E+00 -0.00000000000E+00 -0.36018003525E+03  0.36018003525E+03  0.00000000000E+00 0.  1.
         23    2    1    2    0    0  0.95320982284E+01 -0.91613851349E+02 -0.25194058884E+03  0.29594410760E+03  0.12499958345E+03 0.  0.
          5    1    3    3  502    0  0.24485911913E+02  0.17736799909E+02 -0.14078522712E+02  0.33681578867E+02  0.47000000000E+01 0. -1.
         -5    1    3    3    0  502 -0.14953813685E+02 -0.10935065126E+03 -0.23786206613E+03  0.26226252873E+03  0.47000000000E+01 0. -1.
        -11    1    1    2    0    0 -0.47453058073E+02  0.74946039863E+02 -0.18472016591E+02  0.90608592355E+02  0.00000000000E+00 0.  1.
         11    1    1    2    0    0  0.37920959844E+02  0.16667811486E+02 -0.18164600060E+02  0.45230165052E+02  0.00000000000E+00 0. -1.
<mgrwt>
<rscale>  0 0.14875523E+03</rscale>
<asrwt>0</asrwt>
<pdfrwt beam="1">  1        2 0.11015820E-01 0.15527026E+03</pdfrwt>
<pdfrwt beam="2">  1       -2 0.55412314E-01 0.15527026E+03</pdfrwt>
<totfact> 0.17268877E+03</totfact>
</mgrwt>
</event>
<event>
 7    1  0.6387485E-006  0.2402511E+03  0.7546771E-02  0.1122414E+00
          2   -1    0    0  501    0  0.00000000000E+00  0.00000000000E+00  0.55609626533E+03  0.55609626533E+03  0.00000000000E+00 0. -1.
         -2   -1    0    0    0  501 -0.00000000000E+00 -0.00000000000E+00 -0.10306079531E+03  0.10306079531E+03  0.00000000000E+00 0.  1.
         23    2    1    2    0    0 -0.19303351120E+03 -0.69523196656E+02  0.15361563621E+03  0.28516373410E+03  0.12500072096E+03 0.  0.
          5    1    3    3  502    0 -0.20304610243E+03 -0.56457417267E+02  0.16222994211E+03  0.26599963119E+03  0.47000000000E+01 0. -1.
         -5    1    3    3    0  502  0.10012591232E+02 -0.13065779389E+02 -0.86143059030E+01  0.19164102912E+02  0.47000000000E+01 0. -1.
        -11    1    1    2    0    0  0.12015552514E+03  0.34306612349E+02  0.10435183037E+03  0.16279925790E+03  0.00000000000E+00 0.  1.
         11    1    1    2    0    0  0.72877986058E+02  0.35216584307E+02  0.19506800345E+03  0.21119406864E+03  0.00000000000E+00 0. -1.
<mgrwt>
<rscale>  0 0.23610615E+03</rscale>
<asrwt>0</asrwt>
<pdfrwt beam="1">  1        2 0.85553270E-01 0.24025110E+03</pdfrwt>
<pdfrwt beam="2">  1       -2 0.15855507E-01 0.24025110E+03</pdfrwt>
<totfact> 0.17154007E+03</totfact>
</mgrwt>
</event>
<event>
 7    1  0.6387485E-006  0.1263134E+03  0.7546771E-02  0.1252843E+00
         -1   -1    0    0    0  501 -0.00000000000E+00  0.00000000000E+00  0.21195712342E+03  0.21195712342E+03  0.00000000000E+00 0.  1.
          1   -1    0    0  501    0  0.00000000000E+00 -0.00000000000E+00 -0.52855750056E+02  0.52855750056E+02  0.00000000000E+00 0. -1.
         23    2    1    2    0    0 -0.42097757879E-01  0.18142702519E+02  0.10604209779E+03  0.16492423883E+03  0.12500367443E+03 0.  0.
          5    1    3    3  502    0  0.52117656857E+02  0.34773187286E+02  0.26364300239E+02  0.68136561679E+02  0.47000000000E+01 0.  1.
         -5    1    3    3    0  502 -0.52159754615E+02 -0.16630484767E+02  0.79677797552E+02  0.96787677148E+02  0.47000000000E+01 0.  1.
        -11    1    1    2    0    0  0.36521240643E+02  0.46449407387E+01  0.41240938459E+02  0.55282831852E+02  0.00000000000E+00 0.  1.
         11    1    1    2    0    0 -0.36479142886E+02 -0.22787643257E+02  0.11818337112E+02  0.44605802795E+02  0.00000000000E+00 0. -1.
<mgrwt>
<rscale>  0 0.11427989E+03</rscale>
<asrwt>0</asrwt>
<pdfrwt beam="2">  1        1 0.81316540E-02 0.12631341E+03</pdfrwt>
<pdfrwt beam="1">  1       -1 0.32608788E-01 0.12631341E+03</pdfrwt>
<totfact> 0.70826499E+03</totfact>
</mgrwt>
</event>
<event>
 7    1  0.6387485E-006  0.1399919E+03  0.7546771E-02  0.1224709E+00
         -1   -1    0    0    0  501 -0.00000000000E+00  0.00000000000E+00  0.11759698627E+03  0.11759698627E+03  0.00000000000E+00 0.  1.
          1   -1    0    0  501    0  0.00000000000E+00 -0.00000000000E+00 -0.14429695238E+03  0.14429695238E+03  0.00000000000E+00 0. -1.
         23    2    1    2    0    0 -0.58329445921E+01 -0.62807194511E+02  0.21431413117E+02  0.14162285343E+03  0.12497583854E+03 0.  0.
          5    1    3    3  502    0 -0.89240024372E+01 -0.66554958009E+02  0.67342325669E+02  0.95217010463E+02  0.47000000000E+01 0. -1.
         -5    1    3    3    0  502  0.30910578450E+01  0.37477634977E+01 -0.45910912551E+02  0.46405842963E+02  0.47000000000E+01 0. -1.
        -11    1    1    2    0    0 -0.35076153247E+02  0.94675927411E+01 -0.37502319520E+02  0.52214900251E+02  0.00000000000E+00 0.  1.
         11    1    1    2    0    0  0.40909097839E+02  0.53339601770E+02 -0.10629059703E+02  0.68056184974E+02  0.00000000000E+00 0. -1.
<mgrwt>
<rscale>  0 0.13186893E+03</rscale>
<asrwt>0</asrwt>
<pdfrwt beam="2">  1        1 0.22199531E-01 0.13999188E+03</pdfrwt>
<pdfrwt beam="1">  1       -1 0.18091844E-01 0.13999188E+03</pdfrwt>
<totfact> 0.50683586E+03</totfact>
</mgrwt>
</event>
<event>
 7    1  0.6387485E-006  0.1288550E+03  0.7546771E-02  0.1238305E+00
         -2   -1    0    0    0  501 -0.00000000000E+00  0.00000000000E+00  0.66951855572E+02  0.66951855572E+02  0.00000000000E+00 0.  1.
          2   -1    0    0  501    0  0.00000000000E+00 -0.00000000000E+00 -0.29020986009E+03  0.29020986009E+03  0.00000000000E+00 0. -1.
         23    2    1    2    0    0  0.27156802010E+02 -0.15508294656E+02 -0.23989679038E+02  0.13106910744E+03  0.12500242848E+03 0.  0.
          5    1    3    3  502    0  0.69148671734E+02 -0.35753720454E+02  0.94675604712E+00  0.77992651423E+02  0.47000000000E+01 0.  1.
         -5    1    3    3    0  502 -0.41991869724E+02  0.20245425798E+02 -0.24936435085E+02  0.53076456018E+02  0.47000000000E+01 0.  1.
        -11    1    1    2    0    0  0.24308012070E+02 -0.26909353741E+02 -0.43401403156E+02  0.56556825985E+02  0.00000000000E+00 0.  1.
         11    1    1    2    0    0 -0.51464814080E+02  0.42417648397E+02 -0.15586692232E+03  0.16953578223E+03  0.00000000000E+00 0. -1.
<mgrwt>
<rscale>  0 0.12295229E+03</rscale>
<asrwt>0</asrwt>
<pdfrwt beam="2">  1        2 0.44647672E-01 0.12885498E+03</pdfrwt>
<pdfrwt beam="1">  1       -2 0.10300285E-01 0.12885498E+03</pdfrwt>
<totfact> 0.68113653E+03</totfact>
</mgrwt>
</event>
<event>
 7    1  0.6387485E-006  0.1292654E+03  0.7546771E-02  0.1279392E+00
          2   -1    0    0  501    0  0.00000000000E+00  0.00000000000E+00  0.23410189141E+02  0.23410189141E+02  0.00000000000E+00 0. -1.
         -2   -1    0    0    0  501 -0.00000000000E+00 -0.00000000000E+00 -0.36094155423E+03  0.36094155423E+03  0.00000000000E+00 0.  1.
         23    2    1    2    0    0 -0.15681310534E+02  0.22606713204E+02 -0.28965929170E+03  0.31719400600E+03  0.12630346470E+03 0.  0.
          5    1    3    3  502    0 -0.70938992882E+02  0.62313899850E+01 -0.16532845671E+03  0.18007431669E+03  0.47000000000E+01 0. -1.
         -5    1    3    3    0  502  0.55257682348E+02  0.16375323219E+02 -0.12433083498E+03  0.13711968931E+03  0.47000000000E+01 0.  1.
        -11    1    1    2    0    0  0.28318264036E+02 -0.17696725770E+02 -0.31557483889E+02  0.45945325882E+02  0.00000000000E+00 0.  1.
         11    1    1    2    0    0 -0.12636953502E+02 -0.49099874340E+01 -0.16314589501E+02  0.21212411485E+02  0.00000000000E+00 0. -1.
<mgrwt>
<rscale>  0 0.10043087E+03</rscale>
<asrwt>0</asrwt>
<pdfrwt beam="1">  1        2 0.36015677E-02 0.12926536E+03</pdfrwt>
<pdfrwt beam="2">  1       -2 0.55529468E-01 0.12926536E+03</pdfrwt>
<totfact> 0.71103261E+03</totfact>
</mgrwt>
</event>
<event>
 7    1  0.6387485E-006  0.1787549E+03  0.7546771E-02  0.1174918E+00
         -1   -1    0    0    0  501 -0.00000000000E+00  0.00000000000E+00  0.30158362981E+02  0.30158362981E+02  0.00000000000E+00 0.  1.
          1   -1    0    0  501    0  0.00000000000E+00 -0.00000000000E+00 -0.93035668506E+03  0.93035668506E+03  0.00000000000E+00 0. -1.
         23    2    1    2    0    0  0.10151365787E+03  0.77603076136E+02 -0.47634030954E+03  0.50877639459E+03  0.12500427609E+03 0.  0.
          5    1    3    3  502    0  0.97569635442E+02  0.63380754899E+02 -0.19579733264E+03  0.22780614416E+03  0.47000000000E+01 0.  1.
         -5    1    3    3    0  502  0.39440224252E+01  0.14222321237E+02 -0.28054297691E+03  0.28097025043E+03  0.47000000000E+01 0.  1.
        -11    1    1    2    0    0 -0.35026301318E+02  0.59857608186E+01 -0.20674446549E+03  0.20977594030E+03  0.00000000000E+00 0.  1.
         11    1    1    2    0    0 -0.66487356550E+02 -0.83588836955E+02 -0.21711354705E+03  0.24196271315E+03  0.00000000000E+00 0. -1.
<mgrwt>
<rscale>  0 0.17284006E+03</rscale>
<asrwt>0</asrwt>
<pdfrwt beam="2">  1        1 0.14313180E+00 0.17875494E+03</pdfrwt>
<pdfrwt beam="1">  1       -1 0.46397480E-02 0.17875494E+03</pdfrwt>
<totfact> 0.35201974E+03</totfact>
</mgrwt>
</event>
<event>
 7    1  0.6387485E-006  0.1498737E+03  0.7546771E-02  0.1209381E+00
         -1   -1    0    0    0  501 -0.00000000000E+00  0.00000000000E+00  0.54354821426E+03  0.54354821426E+03  0.00000000000E+00 0.  1.
          1   -1    0    0  501    0  0.00000000000E+00 -0.00000000000E+00 -0.37574186316E+02  0.37574186316E+02  0.00000000000E+00 0. -1.
         23    2    1    2    0    0 -0.73898735255E+02 -0.37090448443E+02  0.35719602312E+03  0.38736432623E+03  0.12500159143E+03 0.  0.
          5    1    3    3  502    0 -0.52097746689E+02 -0.76501896871E+02  0.15878981668E+03  0.18385595262E+03  0.47000000000E+01 0.  1.
         -5    1    3    3    0  502 -0.21800988566E+02  0.39411448428E+02  0.19840620645E+03  0.20350837360E+03  0.47000000000E+01 0.  1.
        -11    1    1    2    0    0  0.17572308690E+02  0.49617314425E+02  0.11602785919E+03  0.12740929335E+03  0.00000000000E+00 0.  1.
         11    1    1    2    0    0  0.56326426565E+02 -0.12526865983E+02  0.32750145623E+02  0.66348780994E+02  0.00000000000E+00 0. -1.
<mgrwt>
<rscale>  0 0.14297492E+03</rscale>
<asrwt>0</asrwt>
<pdfrwt beam="2">  1        1 0.57806444E-02 0.14987369E+03</pdfrwt>
<pdfrwt beam="1">  1       -1 0.83622796E-01 0.14987369E+03</pdfrwt>
<totfact> 0.19737553E+03</totfact>
</mgrwt>
</event>
<event>
 7    1  0.6387485E-006  0.1242025E+03  0.7546771E-02  0.1244644E+00
         -1   -1    0    0    0  501 -0.00000000000E+00  0.00000000000E+00  0.70083626151E+02  0.70083626151E+02  0.00000000000E+00 0.  1.
          1   -1    0    0  501    0  0.00000000000E+00 -0.00000000000E+00 -0.19016727409E+03  0.19016727409E+03  0.00000000000E+00 0. -1.
         23    2    1    2    0    0 -0.32660582035E+02  0.43394884724E+02 -0.48912923574E+02  0.13348682251E+03  0.11169793217E+03 0.  0.
          5    1    3    3  502    0  0.11567935254E+00 -0.34510006192E+02  0.16820913556E+01  0.34869375394E+02  0.47000000000E+01 0. -1.
         -5    1    3    3    0  502 -0.32776261388E+02  0.77904890915E+02 -0.50595014930E+02  0.98617447112E+02  0.47000000000E+01 0.  1.
        -11    1    1    2    0    0 -0.22461214895E+02  0.10570427622E+02 -0.54310005722E+01  0.25411333729E+02  0.00000000000E+00 0.  1.
         11    1    1    2    0    0  0.55121796930E+02 -0.53965312346E+02 -0.65739723797E+02  0.10135274401E+03  0.00000000000E+00 0. -1.
<mgrwt>
<rscale>  0 0.11906685E+03</rscale>
<asrwt>0</asrwt>
<pdfrwt beam="2">  1        1 0.29256503E-01 0.12420249E+03</pdfrwt>
<pdfrwt beam="1">  1       -1 0.10782097E-01 0.12420249E+03</pdfrwt>
<totfact> 0.79705183E+03</totfact>
</mgrwt>
</event>
<event>
 6    1  0.6387485E-006  0.2839594E+03  0.7546771E-02  0.1138068E+00
          1   -1    0    0  501    0  0.00000000000E+00  0.00000000000E+00  0.36306247180E+03  0.36306247180E+03  0.00000000000E+00 0. -1.
         -1   -1    0    0    0  501 -0.00000000000E+00 -0.00000000000E+00 -0.18775953924E+03  0.18775953924E+03  0.00000000000E+00 0.  1.
          5    1    1    2  502    0 -0.85196589422E+02 -0.41758668231E+02  0.71531790331E+02  0.11891649276E+03  0.47000000000E+01 0. -1.
         -5    1    1    2    0  502  0.92041255961E+02  0.47264494528E+02 -0.13830428503E+03  0.17278799292E+03  0.47000000000E+01 0.  1.
        -11    1    1    2    0    0 -0.11922106914E+02  0.41253102023E+02  0.86247978245E+02  0.96346607679E+02  0.00000000000E+00 0.  1.
         11    1    1    2    0    0  0.50774403750E+01 -0.46758928319E+02  0.15582744901E+03  0.16277091769E+03  0.00000000000E+00 0. -1.
<mgrwt>
<rscale>  0 0.21447822E+03</rscale>
<asrwt>0</asrwt>
<pdfrwt beam="1">  1        1 0.55855765E-01 0.28395940E+03</pdfrwt>
<pdfrwt beam="2">  1       -1 0.28886083E-01 0.28395940E+03</pdfrwt>
<totfact> 0.75078811E+02</totfact>
</mgrwt>
</event>
<event>
 7    1  0.6387485E-006  0.1609393E+03  0.7546771E-02  0.1195144E+00
          1   -1    0    0  501    0  0.00000000000E+00  0.00000000000E+00  0.69922227374E+02  0.69922227374E+02  0.00000000000E+00 0. -1.
         -1   -1    0    0    0  501 -0.00000000000E+00 -0.00000000000E+00 -0.32764849285E+03  0.32764849285E+03  0.00000000000E+00 0.  1.
         23    2    1    2    0    0 -0.69153509370E+02 -0.74169233826E+02 -0.17629276395E+03  0.23870609060E+03  0.12497270088E+03 0.  0.
          5    1    3    3  502    0 -0.91028623903E+02 -0.32932906263E+02 -0.16351974786E+03  0.19008309926E+03  0.47000000000E+01 0.  1.
         -5    1    3    3    0  502  0.21875114533E+02 -0.41236327562E+02 -0.12773016089E+02  0.48622991338E+02  0.47000000000E+01 0.  1.
        -11    1    1    2    0    0 -0.81624469393E+01  0.17402678721E+02 -0.56613571132E+02  0.59787751279E+02  0.00000000000E+00 0.  1.
         11    1    1    2    0    0  0.77315956309E+02  0.56766555105E+02 -0.24819930400E+02  0.99076878350E+02  0.00000000000E+00 0. -1.
<mgrwt>
<rscale>  0 0.15442046E+03</rscale>
<asrwt>0</asrwt>
<pdfrwt beam="1">  1        1 0.10757266E-01 0.16093930E+03</pdfrwt>
<pdfrwt beam="2">  1       -1 0.50407460E-01 0.16093930E+03</pdfrwt>
<totfact> 0.22986201E+03</totfact>
</mgrwt>
</event>
<event>
 7    1  0.6387485E-006  0.1316704E+03  0.7546771E-02  0.1239036E+00
         -1   -1    0    0    0  501 -0.00000000000E+00  0.00000000000E+00  0.33735161435E+02  0.33735161435E+02  0.00000000000E+00 0.  1.
          1   -1    0    0  501    0  0.00000000000E+00 -0.00000000000E+00 -0.41720979382E+03  0.41720979382E+03  0.00000000000E+00 0. -1.
         23    2    1    2    0    0  0.39842027791E+02  0.11155341149E+02 -0.16392642003E+03  0.21025930320E+03  0.12500109833E+03 0.  0.
          5    1    3    3  502    0  0.67062955871E+01  0.44155379585E+02 -0.57829007557E+01  0.45279177200E+02  0.47000000000E+01 0.  1.
         -5    1    3    3    0  502  0.33135732204E+02 -0.33000038436E+02 -0.15814351928E+03  0.16498012600E+03  0.47000000000E+01 0.  1.
        -11    1    1    2    0    0  0.23113914994E+02  0.14568492973E+02 -0.94130214599E+02  0.98015260824E+02  0.00000000000E+00 0. -1.
         11    1    1    2    0    0 -0.62955942785E+02 -0.25723834122E+02 -0.12541799775E+03  0.14267039123E+03  0.00000000000E+00 0.  1.
<mgrwt>
<rscale>  0 0.12249548E+03</rscale>
<asrwt>0</asrwt>
<pdfrwt beam="2">  1        1 0.64186121E-01 0.13167043E+03</pdfrwt>
<pdfrwt beam="1">  1       -1 0.51900249E-02 0.13167043E+03</pdfrwt>
<totfact> 0.90602111E+03</totfact>
</mgrwt>
</event>
<event>
 7    1  0.6387485E-006  0.1273439E+03  0.7546771E-02  0.1248520E+00
         -2   -1    0    0    0  501 -0.00000000000E+00  0.00000000000E+00  0.51865036525E+02  0.51865036525E+02  0.00000000000E+00 0. -1.
          2   -1    0    0  501    0  0.00000000000E+00 -0.00000000000E+00 -0.22780281037E+03  0.22780281037E+03  0.00000000000E+00 0.  1.
         23    2    1    2    0    0 -0.11535379007E+02 -0.21392687560E+02 -0.10148719678E+03  0.16283771725E+03  0.12500303597E+03 0.  0.
          5    1    3    3  502    0  0.23969833760E+02 -0.52845876305E+02 -0.99317211286E+02  0.11512270858E+03  0.47000000000E+01 0.  1.
         -5    1    3    3    0  502 -0.35505212767E+02  0.31453188745E+02 -0.21699854918E+01  0.47715008675E+02  0.47000000000E+01 0.  1.
        -11    1    1    2    0    0 -0.15513143020E+02  0.21243731021E+02 -0.84095091074E+02  0.88113211591E+02  0.00000000000E+00 0.  1.
         11    1    1    2    0    0  0.27048522027E+02  0.14895653903E+00  0.96445140063E+01  0.28716918050E+02  0.00000000000E+00 0. -1.
<mgrwt>
<rscale>  0 0.11677156E+03</rscale>
<asrwt>0</asrwt>
<pdfrwt beam="2">  1        2 0.35046585E-01 0.12734391E+03</pdfrwt>
<pdfrwt beam="1">  1       -2 0.79792366E-02 0.12734391E+03</pdfrwt>
<totfact> 0.13096682E+04</totfact>
</mgrwt>
</event>
<event>
 7    1  0.6387485E-006  0.1257102E+03  0.7546771E-02  0.1249387E+00
          1   -1    0    0  501    0  0.00000000000E+00  0.00000000000E+00  0.60529097943E+02  0.60529097943E+02  0.00000000000E+00 0. -1.
         -1   -1    0    0    0  501 -0.00000000000E+00 -0.00000000000E+00 -0.19725035610E+03  0.19725035610E+03  0.00000000000E+00 0.  1.
         23    2    1    2    0    0 -0.89506353689E+01  0.98495535154E+01 -0.90048337682E+02  0.15463427195E+03  0.12500370940E+03 0.  0.
          5    1    3    3  502    0 -0.11335376390E+01  0.29753290024E+02  0.23982841280E+02  0.38520252474E+02  0.47000000000E+01 0. -1.
         -5    1    3    3    0  502 -0.78170977299E+01 -0.19903736508E+02 -0.11403117896E+03  0.11611401948E+03  0.47000000000E+01 0. -1.
        -11    1    1    2    0    0  0.33949135750E+02  0.21613192849E+02 -0.48371490514E+02  0.62924359495E+02  0.00000000000E+00 0.  1.
         11    1    1    2    0    0 -0.24998500381E+02 -0.31462746364E+02  0.16985700395E+01  0.40220822595E+02  0.00000000000E+00 0. -1.
<mgrwt>
<rscale>  0 0.11626603E+03</rscale>
<asrwt>0</asrwt>
<pdfrwt beam="1">  1        1 0.93121689E-02 0.12571020E+03</pdfrwt>
<pdfrwt beam="2">  1       -1 0.30346209E-01 0.12571020E+03</pdfrwt>
<totfact> 0.66723161E+03</totfact>
</mgrwt>
</event>
<event>
 7    1  0.6387485E-006  0.1470425E+03  0.7546771E-02  0.1213175E+00
          2   -1    0    0  501    0  0.00000000000E+00  0.00000000000E+00  0.72571697260E+03  0.72571697260E+03  0.00000000000E+00 0. -1.
         -2   -1    0    0    0  501 -0.00000000000E+00 -0.00000000000E+00 -0.28273787330E+02  0.28273787330E+02  0.00000000000E+00 0.  1.
         23    2    1    2    0    0  0.76127743895E+02  0.14158738908E+02  0.24639622191E+03  0.28693655290E+03  0.12500233574E+03 0.  0.
          5    1    3    3  502    0  0.35097194853E+02 -0.49559708981E+02  0.16371480332E+03  0.17467857529E+03  0.47000000000E+01 0.  1.
         -5    1    3    3    0  502  0.41030549041E+02  0.63718447889E+02  0.82681418592E+02  0.11225797761E+03  0.47000000000E+01 0.  1.
        -11    1    1    2    0    0 -0.38241546405E+02  0.38557343327E+02  0.16397645771E+03  0.17273495095E+03  0.00000000000E+00 0. -1.
         11    1    1    2    0    0 -0.37886197489E+02 -0.52716082235E+02  0.28707050565E+03  0.29431925608E+03  0.00000000000E+00 0.  1.
<mgrwt>
<rscale>  0 0.14011447E+03</rscale>
<asrwt>0</asrwt>
<pdfrwt beam="1">  1        2 0.11164875E+00 0.14704247E+03</pdfrwt>
<pdfrwt beam="2">  1       -2 0.43498140E-02 0.14704247E+03</pdfrwt>
<totfact> 0.93615414E+03</totfact>
</mgrwt>
</event>
<event>
 7    1  0.6387485E-006  0.1264197E+03  0.7546771E-02  0.1247767E+00
          1   -1    0    0  501    0  0.00000000000E+00  0.00000000000E+00  0.33117027386E+02  0.33117027386E+02  0.00000000000E+00 0. -1.
         -1   -1    0    0    0  501 -0.00000000000E+00 -0.00000000000E+00 -0.38654461412E+03  0.38654461412E+03  0.00000000000E+00 0.  1.
         23    2    1    2    0    0 -0.18563376657E+02 -0.34387113528E+01 -0.25092625582E+03  0.28097317188E+03  0.12500205506E+03 0.  0.
          5    1    3    3  502    0  0.45080160917E+02 -0.20369418380E+02 -0.16672614249E+03  0.17397364945E+03  0.47000000000E+01 0.  1.
         -5    1    3    3    0  502 -0.63643537574E+02  0.16930707027E+02 -0.84200113323E+02  0.10699952242E+03  0.47000000000E+01 0.  1.
        -11    1    1    2    0    0  0.51599058007E+02 -0.12753550450E+02 -0.41428217265E+02  0.67390006841E+02  0.00000000000E+00 0. -1.
         11    1    1    2    0    0 -0.33035681350E+02  0.16192261803E+02 -0.61073113651E+02  0.71298462785E+02  0.00000000000E+00 0.  1.
<mgrwt>
<rscale>  0 0.11721284E+03</rscale>
<asrwt>0</asrwt>
<pdfrwt beam="1">  1        1 0.50949272E-02 0.12641969E+03</pdfrwt>
<pdfrwt beam="2">  1       -1 0.59468404E-01 0.12641969E+03</pdfrwt>
<totfact> 0.45609918E+03</totfact>
</mgrwt>
</event>
<event>
 7    1  0.6387485E-006  0.1715217E+03  0.7546771E-02  0.1182800E+00
         -4   -1    0    0    0  501 -0.00000000000E+00  0.00000000000E+00  0.13889503437E+04  0.13889503437E+04  0.00000000000E+00 0.  1.
          4   -1    0    0  501    0  0.00000000000E+00 -0.00000000000E+00 -0.30262624861E+02  0.30262624861E+02  0.00000000000E+00 0. -1.
         23    2    1    2    0    0 -0.94949734918E+02  0.69079322107E+02  0.11534121657E+04  0.11660957656E+04  0.12502921918E+03 0.  0.
          5    1    3    3  502    0 -0.10268441655E+03  0.42881263486E+02  0.50699740928E+03  0.51908704008E+03  0.47000000000E+01 0. -1.
         -5    1    3    3    0  502  0.77346816353E+01  0.26198058621E+02  0.64641475641E+03  0.64700872551E+03  0.47000000000E+01 0. -1.
        -11    1    1    2    0    0  0.36986022364E+02  0.84760110279E+01  0.11363651105E+03  0.11980427896E+03  0.00000000000E+00 0.  1.
         11    1    1    2    0    0  0.57963712554E+02 -0.77555333135E+02  0.91639042068E+02  0.13331292399E+03  0.00000000000E+00 0. -1.
<mgrwt>
<rscale>  0 0.16533694E+03</rscale>
<asrwt>0</asrwt>
<pdfrwt beam="2">  1        4 0.46557895E-02 0.17152175E+03</pdfrwt>
<pdfrwt beam="1">  1       -4 0.21368462E+00 0.17152175E+03</pdfrwt>
<totfact> 0.55985103E+01</totfact>
</mgrwt>
</event>
<event>
 7    1  0.6387485E-006  0.1423684E+03  0.7546771E-02  0.1228835E+00
         -2   -1    0    0    0  501 -0.00000000000E+00  0.00000000000E+00  0.51500470538E+02  0.51500470538E+02  0.00000000000E+00 0.  1.
          2   -1    0    0  501    0  0.00000000000E+00 -0.00000000000E+00 -0.38965577190E+03  0.38965577190E+03  0.00000000000E+00 0. -1.
         23    2    1    2    0    0  0.15904824718E+02 -0.87176296618E+02 -0.74879536754E+02  0.16085927633E+03  0.11142751732E+03 0.  0.
          5    1    3    3  502    0 -0.24676184261E+02 -0.71626046229E+02 -0.87040479764E+02  0.11548740055E+03  0.47000000000E+01 0. -1.
         -5    1    3    3    0  502  0.40581008978E+02 -0.15550250389E+02  0.12160943011E+02  0.45371875780E+02  0.47000000000E+01 0.  1.
        -11    1    1    2    0    0 -0.25384793663E+02  0.38877675543E+02 -0.14262785286E+03  0.14999521932E+03  0.00000000000E+00 0. -1.
         11    1    1    2    0    0  0.94799689451E+01  0.48298621075E+02 -0.12064791174E+03  0.13030174679E+03  0.00000000000E+00 0.  1.
<mgrwt>
<rscale>  0 0.12907472E+03</rscale>
<asrwt>0</asrwt>
<pdfrwt beam="2">  1        2 0.59947040E-01 0.14236840E+03</pdfrwt>
<pdfrwt beam="1">  1       -2 0.79231495E-02 0.14236840E+03</pdfrwt>
<totfact> 0.75472330E+03</totfact>
</mgrwt>
</event>
<event>
 7    1  0.6387485E-006  0.1510077E+03  0.7546771E-02  0.1209850E+00
         -1   -1    0    0    0  501 -0.00000000000E+00  0.00000000000E+00  0.18024053787E+03  0.18024053787E+03  0.00000000000E+00 0.  1.
          1   -1    0    0  501    0  0.00000000000E+00 -0.00000000000E+00 -0.10416155894E+03  0.10416155894E+03  0.00000000000E+00 0. -1.
         23    2    1    2    0    0 -0.47202944299E+02 -0.70359148377E+02  0.62737809436E+02  0.16352176489E+03  0.12499922860E+03 0.  0.
          5    1    3    3  502    0 -0.17056581800E+02 -0.18031395117E+02  0.92602770208E+02  0.95986568033E+02  0.47000000000E+01 0. -1.
         -5    1    3    3    0  502 -0.30146362500E+02 -0.52327753260E+02 -0.29864960772E+02  0.67535196862E+02  0.47000000000E+01 0. -1.
        -11    1    1    2    0    0  0.20508546310E+02 -0.34319423116E+01  0.33892393331E+02  0.39762708981E+02  0.00000000000E+00 0.  1.
         11    1    1    2    0    0  0.26694397989E+02  0.73791090689E+02 -0.20551223838E+02  0.81117622933E+02  0.00000000000E+00 0. -1.
<mgrwt>
<rscale>  0 0.14261755E+03</rscale>
<asrwt>0</asrwt>
<pdfrwt beam="2">  1        1 0.16024855E-01 0.15100773E+03</pdfrwt>
<pdfrwt beam="1">  1       -1 0.27729314E-01 0.15100773E+03</pdfrwt>
<totfact> 0.38540787E+03</totfact>
</mgrwt>
</event>
<event>
 7    1  0.6387485E-006  0.2534756E+03  0.7546771E-02  0.1113430E+00
         -1   -1    0    0    0  501 -0.00000000000E+00  0.00000000000E+00  0.11360417518E+03  0.11360417518E+03  0.00000000000E+00 0.  1.
          1   -1    0    0  501    0  0.00000000000E+00 -0.00000000000E+00 -0.59303298338E+03  0.59303298338E+03  0.00000000000E+00 0. -1.
         23    2    1    2    0    0 -0.11857611782E+03  0.18591947098E+03 -0.13452412726E+03  0.28696099651E+03  0.12499410905E+03 0.  0.
          5    1    3    3  502    0 -0.73739013117E+02  0.19068323526E+03 -0.90025894384E+02  0.22343744074E+03  0.47000000000E+01 0.  1.
         -5    1    3    3    0  502 -0.44837104702E+02 -0.47637642837E+01 -0.44498232880E+02  0.63523555770E+02  0.47000000000E+01 0.  1.
        -11    1    1    2    0    0  0.91722425958E+02 -0.17164007349E+03 -0.23234609178E+03  0.30308088791E+03  0.00000000000E+00 0.  1.
         11    1    1    2    0    0  0.26853691861E+02 -0.14279397486E+02 -0.11255858916E+03  0.11659527414E+03  0.00000000000E+00 0. -1.
<mgrwt>
<rscale>  0 0.24980264E+03</rscale>
<asrwt>0</asrwt>
<pdfrwt beam="2">  1        1 0.91235845E-01 0.25347559E+03</pdfrwt>
<pdfrwt beam="1">  1       -1 0.17477565E-01 0.25347559E+03</pdfrwt>
<totfact> 0.90043340E+02</totfact>
</mgrwt>
</event>
<event>
 7    1  0.6387485E-006  0.1396580E+03  0.7546771E-02  0.1219391E+00
         -1   -1    0    0    0  501 -0.00000000000E+00  0.00000000000E+00  0.52571761311E+03  0.52571761311E+03  0.00000000000E+00 0.  1.
          1   -1    0    0  501    0  0.00000000000E+00 -0.00000000000E+00 -0.76697456332E+02  0.76697456332E+02  0.00000000000E+00 0. -1.
         23    2    1    2    0    0  0.77258141901E+02  0.49222079336E+01  0.45721332592E+03  0.47806734986E+03  0.11623819070E+03 0.  0.
          5    1    3    3  502    0 -0.15149458894E+02  0.20282762997E+02  0.25339135439E+02  0.36125591543E+02  0.47000000000E+01 0. -1.
         -5    1    3    3    0  502  0.92407600795E+02 -0.15360555063E+02  0.43187419048E+03  0.44194175831E+03  0.47000000000E+01 0.  1.
        -11    1    1    2    0    0 -0.34731796236E+02 -0.37632818881E+02  0.29200481704E+02  0.58950783358E+02  0.00000000000E+00 0.  1.
         11    1    1    2    0    0 -0.42526345665E+02  0.32710610948E+02 -0.37393650847E+02  0.65396936227E+02  0.00000000000E+00 0. -1.
<mgrwt>
<rscale>  0 0.13558845E+03</rscale>
<asrwt>0</asrwt>
<pdfrwt beam="2">  1        1 0.11799609E-01 0.13965803E+03</pdfrwt>
<pdfrwt beam="1">  1       -1 0.80879631E-01 0.13965803E+03</pdfrwt>
<totfact> 0.81065574E+02</totfact>
</mgrwt>
</event>
<event>
 7    1  0.6387485E-006  0.1952127E+03  0.7546771E-02  0.1156597E+00
          2   -1    0    0  501    0  0.00000000000E+00  0.00000000000E+00  0.24512665513E+03  0.24512665513E+03  0.00000000000E+00 0. -1.
         -2   -1    0    0    0  501 -0.00000000000E+00 -0.00000000000E+00 -0.14597945198E+03  0.14597945198E+03  0.00000000000E+00 0.  1.
         23    2    1    2    0    0  0.17596406735E+02 -0.14890343256E+03  0.56314157130E+02  0.20317302466E+03  0.12500451150E+03 0.  0.
          5    1    3    3  502    0  0.32489666270E+02 -0.78442140224E+02  0.89747061676E+02  0.12363402791E+03  0.47000000000E+01 0. -1.
         -5    1    3    3    0  502 -0.14893259535E+02 -0.70461292337E+02 -0.33432904546E+02  0.79538996748E+02  0.47000000000E+01 0. -1.
        -11    1    1    2    0    0 -0.52046482444E+02  0.71952571456E+02 -0.85255528210E+01  0.89211512289E+02  0.00000000000E+00 0.  1.
         11    1    1    2    0    0  0.34450075709E+02  0.76950861104E+02  0.51358598836E+02  0.98721570163E+02  0.00000000000E+00 0. -1.
<mgrwt>
<rscale>  0 0.19208170E+03</rscale>
<asrwt>0</asrwt>
<pdfrwt beam="1">  1        2 0.37711793E-01 0.19521269E+03</pdfrwt>
<pdfrwt beam="2">  1       -2 0.22458377E-01 0.19521269E+03</pdfrwt>
<totfact> 0.23090268E+03</totfact>
</mgrwt>
</event>
<event>
 7    1  0.6387485E-006  0.1304529E+03  0.7546771E-02  0.1256168E+00
          1   -1    0    0  501    0  0.00000000000E+00  0.00000000000E+00  0.37664655071E+03  0.37664655071E+03  0.00000000000E+00 0. -1.
         -1   -1    0    0    0  501 -0.00000000000E+00 -0.00000000000E+00 -0.28227609601E+02  0.28227609601E+02  0.00000000000E+00 0.  1.
         23    2    1    2    0    0  0.24251151826E+02 -0.18552444637E+02  0.18543098850E+03  0.22672144709E+03  0.12682922182E+03 0.  0.
          5    1    3    3  502    0 -0.23355681922E+02 -0.53778578629E+02  0.44423326338E+02  0.73709872611E+02  0.47000000000E+01 0. -1.
         -5    1    3    3    0  502  0.47606833747E+02  0.35226133993E+02  0.14100766216E+03  0.15301157448E+03  0.47000000000E+01 0.  1.
        -11    1    1    2    0    0 -0.25973817036E+02  0.39577837600E+02  0.84264560305E+02  0.96651748685E+02  0.00000000000E+00 0. -1.
         11    1    1    2    0    0  0.17226652105E+01 -0.21025392963E+02  0.78723392306E+02  0.81500964540E+02  0.00000000000E+00 0.  1.
<mgrwt>
<rscale>  0 0.11241169E+03</rscale>
<asrwt>0</asrwt>
<pdfrwt beam="1">  1        1 0.57945620E-01 0.13045292E+03</pdfrwt>
<pdfrwt beam="2">  1       -1 0.43427094E-02 0.13045292E+03</pdfrwt>
<totfact> 0.13394212E+04</totfact>
</mgrwt>
</event>
<event>
 7    1  0.6387485E-006  0.2890069E+03  0.7546771E-02  0.1092836E+00
         -2   -1    0    0    0  501 -0.00000000000E+00  0.00000000000E+00  0.14657864478E+03  0.14657864478E+03  0.00000000000E+00 0.  1.
          2   -1    0    0  501    0  0.00000000000E+00 -0.00000000000E+00 -0.66234959636E+03  0.66234959636E+03  0.00000000000E+00 0. -1.
         23    2    1    2    0    0 -0.22770918771E+03 -0.12668250966E+03 -0.90566801437E+02  0.30286521932E+03  0.12500025254E+03 0.  0.
          5    1    3    3  502    0 -0.15558426065E+03 -0.12528614212E+03 -0.10988815752E+03  0.22803634959E+03  0.47000000000E+01 0. -1.
         -5    1    3    3    0  502 -0.72124927055E+02 -0.13963675366E+01  0.19321356085E+02  0.74828869736E+02  0.47000000000E+01 0. -1.
        -11    1    1    2    0    0  0.21577068250E+03  0.11877720193E+03 -0.42560778730E+03  0.49173875151E+03  0.00000000000E+00 0. -1.
         11    1    1    2    0    0  0.11938505210E+02  0.79053077279E+01  0.40363716718E+00  0.14324270309E+02  0.00000000000E+00 0.  1.
<mgrwt>
<rscale>  0 0.28528663E+03</rscale>
<asrwt>0</asrwt>
<pdfrwt beam="2">  1        2 0.10189994E+00 0.28900691E+03</pdfrwt>
<pdfrwt beam="1">  1       -2 0.22550561E-01 0.28900691E+03</pdfrwt>
<totfact> 0.76740194E+02</totfact>
</mgrwt>
</event>
<event>
 7    1  0.6387485E-006  0.1358039E+03  0.7546771E-02  0.1231115E+00
         -4   -1    0    0    0  501 -0.00000000000E+00  0.00000000000E+00  0.14761422291E+03  0.14761422291E+03  0.00000000000E+00 0.  1.
          4   -1    0    0  501    0  0.00000000000E+00 -0.00000000000E+00 -0.12102653656E+03  0.12102653656E+03  0.00000000000E+00 0. -1.
         23    2    1    2    0    0  0.12776961700E+02 -0.51540069552E+02  0.71841923481E+02  0.15363582416E+03  0.12499229967E+03 0.  0.
          5    1    3    3  502    0  0.31862832336E+02  0.33177247572E+02  0.39616944422E+02  0.60889753869E+02  0.47000000000E+01 0. -1.
         -5    1    3    3    0  502 -0.19085870636E+02 -0.84717317125E+02  0.32224979059E+02  0.92746070289E+02  0.47000000000E+01 0. -1.
        -11    1    1    2    0    0 -0.31107567722E+02 -0.16112999252E+02 -0.93878811624E+01  0.36269020212E+02  0.00000000000E+00 0.  1.
         11    1    1    2    0    0  0.18330606022E+02  0.67653068804E+02 -0.35866355970E+02  0.78735915098E+02  0.00000000000E+00 0. -1.
<mgrwt>
<rscale>  0 0.12756474E+03</rscale>
<asrwt>0</asrwt>
<pdfrwt beam="2">  1        4 0.18619467E-01 0.13580392E+03</pdfrwt>
<pdfrwt beam="1">  1       -4 0.22709880E-01 0.13580392E+03</pdfrwt>
<totfact> 0.75977251E+02</totfact>
</mgrwt>
</event>
<event>
 7    1  0.6387485E-006  0.1989236E+03  0.7546771E-02  0.1154978E+00
          1   -1    0    0  501    0  0.00000000000E+00  0.00000000000E+00  0.54372003946E+03  0.54372003946E+03  0.00000000000E+00 0. -1.
         -1   -1    0    0    0  501 -0.00000000000E+00 -0.00000000000E+00 -0.65968212357E+02  0.65968212357E+02  0.00000000000E+00 0.  1.
         23    2    1    2    0    0  0.82034503044E+02  0.13121091434E+03  0.24051086399E+03  0.31211551293E+03  0.12499861591E+03 0.  0.
          5    1    3    3  502    0 -0.22536002213E+02  0.35205411127E+02  0.13216434184E+02  0.44091456099E+02  0.47000000000E+01 0.  1.
         -5    1    3    3    0  502  0.10457050526E+03  0.96005503210E+02  0.22729442981E+03  0.26802405683E+03  0.47000000000E+01 0.  1.
        -11    1    1    2    0    0 -0.20537940503E+02 -0.94601645637E+02  0.18556426296E+03  0.20929733406E+03  0.00000000000E+00 0.  1.
         11    1    1    2    0    0 -0.61496562542E+02 -0.36609268700E+02  0.51676700150E+02  0.88275404828E+02  0.00000000000E+00 0. -1.
<mgrwt>
<rscale>  0 0.19391365E+03</rscale>
<asrwt>0</asrwt>
<pdfrwt beam="1">  1        1 0.83649234E-01 0.19892365E+03</pdfrwt>
<pdfrwt beam="2">  1       -1 0.10148956E-01 0.19892365E+03</pdfrwt>
<totfact> 0.23783646E+03</totfact>
</mgrwt>
</event>
<event>
 7    1  0.6387485E-006  0.1590584E+03  0.7546771E-02  0.1198903E+00
         -2   -1    0    0    0  501 -0.00000000000E+00  0.00000000000E+00  0.63428001197E+03  0.63428001197E+03  0.00000000000E+00 0.  1.
          2   -1    0    0  501    0  0.00000000000E+00 -0.00000000000E+00 -0.33007470670E+02  0.33007470670E+02  0.00000000000E+00 0. -1.
         23    2    1    2    0    0  0.97862685592E+02 -0.99718695174E+01  0.34159164632E+03  0.37680819425E+03  0.12499207578E+03 0.  0.
          5    1    3    3  502    0 -0.13781890083E+02 -0.33162458294E+02  0.14535030560E+03  0.14979482792E+03  0.47000000000E+01 0.  1.
         -5    1    3    3    0  502  0.11164457567E+03  0.23190588777E+02  0.19624134072E+03  0.22701336633E+03  0.47000000000E+01 0.  1.
        -11    1    1    2    0    0 -0.30156631388E+02  0.21497513622E+02  0.22004075257E+02  0.43078356938E+02  0.00000000000E+00 0. -1.
         11    1    1    2    0    0 -0.67706054204E+02 -0.11525644104E+02  0.23767681972E+03  0.24740093145E+03  0.00000000000E+00 0.  1.
<mgrwt>
<rscale>  0 0.15128453E+03</rscale>
<asrwt>0</asrwt>
<pdfrwt beam="2">  1        2 0.50780729E-02 0.15905836E+03</pdfrwt>
<pdfrwt beam="1">  1       -2 0.97581532E-01 0.15905836E+03</pdfrwt>
<totfact> 0.13628058E+03</totfact>
</mgrwt>
</event>
<event>
 7    1  0.6387485E-006  0.1349769E+03  0.7546771E-02  0.1232286E+00
         -2   -1    0    0    0  501 -0.00000000000E+00  0.00000000000E+00  0.17995264612E+02  0.17995264612E+02  0.00000000000E+00 0.  1.
          2   -1    0    0  501    0  0.00000000000E+00 -0.00000000000E+00 -0.81812945806E+03  0.81812945806E+03  0.00000000000E+00 0. -1.
         23    2    1    2    0    0  0.64449046149E+01  0.50510662546E+02 -0.38844302855E+03  0.41122591352E+03  0.12500360674E+03 0.  0.
          5    1    3    3  502    0  0.16037467723E+02  0.88075647708E+02 -0.20618790823E+03  0.22483341297E+03  0.47000000000E+01 0. -1.
         -5    1    3    3    0  502 -0.95925631078E+01 -0.37564985162E+02 -0.18225512032E+03  0.18639250055E+03  0.47000000000E+01 0. -1.
        -11    1    1    2    0    0 -0.34299802429E+02  0.12010925306E+02 -0.12720119402E+03  0.13229090118E+03  0.00000000000E+00 0.  1.
         11    1    1    2    0    0  0.27854897814E+02 -0.62521587852E+02 -0.28448997087E+03  0.29260790797E+03  0.00000000000E+00 0. -1.
<mgrwt>
<rscale>  0 0.12679784E+03</rscale>
<asrwt>0</asrwt>
<pdfrwt beam="2">  1        2 0.12586610E+00 0.13497691E+03</pdfrwt>
<pdfrwt beam="1">  1       -2 0.27685017E-02 0.13497691E+03</pdfrwt>
<totfact> 0.15676491E+04</totfact>
</mgrwt>
</event>
<event>
 6    1  0.6387485E-006  0.4989562E+03  0.7546771E-02  0.1052897E+00
          2   -1    0    0  501    0  0.00000000000E+00  0.00000000000E+00  0.10835166808E+04  0.10835166808E+04  0.00000000000E+00 0. -1.
         -2   -1    0    0    0  501 -0.00000000000E+00 -0.00000000000E+00 -0.10179232467E+03  0.10179232467E+03  0.00000000000E+00 0.  1.
          5    1    1    2  502    0 -0.23930149333E+03  0.55012183262E+02  0.63048183932E+03  0.67662470006E+03  0.47000000000E+01 0. -1.
         -5    1    1    2    0  502  0.11733350626E+03 -0.98141643312E+02  0.38267645374E+02  0.15775118550E+03  0.47000000000E+01 0.  1.
        -11    1    1    2    0    0  0.22463227627E+02  0.23345946791E+02  0.14144883437E+02  0.35351203013E+02  0.00000000000E+00 0. -1.
         11    1    1    2    0    0  0.99504759446E+02  0.19783513259E+02  0.29882998801E+03  0.31558191691E+03  0.00000000000E+00 0.  1.
<mgrwt>
<rscale>  0 0.37473439E+03</rscale>
<asrwt>0</asrwt>
<pdfrwt beam="1">  1        2 0.16669487E+00 0.49895616E+03</pdfrwt>
<pdfrwt beam="2">  1       -2 0.15660358E-01 0.49895616E+03</pdfrwt>
<totfact> 0.73750631E+02</totfact>
</mgrwt>
</event>
<event>
 7    1  0.6387485E-006  0.1485508E+03  0.7546771E-02  0.1212048E+00
         -2   -1    0    0    0  501 -0.00000000000E+00  0.00000000000E+00  0.14236657172E+03  0.14236657172E+03  0.00000000000E+00 0.  1.
          2   -1    0    0  501    0  0.00000000000E+00 -0.00000000000E+00 -0.13150758796E+03  0.13150758796E+03  0.00000000000E+00 0. -1.
         23    2    1    2    0    0  0.62256212181E+01 -0.80018699639E+02 -0.19117681855E+02  0.14977590109E+03  0.12500233653E+03 0.  0.
          5    1    3    3  502    0  0.42007546864E+02  0.58612928443E+01 -0.35106588675E+02  0.55258947834E+02  0.47000000000E+01 0.  1.
         -5    1    3    3    0  502 -0.35781925646E+02 -0.85879992483E+02  0.15988906821E+02  0.94516953258E+02  0.47000000000E+01 0.  1.
        -11    1    1    2    0    0  0.76351123865E+01  0.87816034035E+02 -0.22338488034E+01  0.88175625063E+02  0.00000000000E+00 0. -1.
         11    1    1    2    0    0 -0.13860733605E+02 -0.77973343957E+01  0.32210514421E+02  0.35922633520E+02  0.00000000000E+00 0.  1.
<mgrwt>
<rscale>  0 0.14095610E+03</rscale>
<asrwt>0</asrwt>
<pdfrwt beam="2">  1        2 0.20231937E-01 0.14855078E+03</pdfrwt>
<pdfrwt beam="1">  1       -2 0.21902549E-01 0.14855078E+03</pdfrwt>
<totfact> 0.47240072E+03</totfact>
</mgrwt>
</event>
<event>
 7    1  0.6387485E-006  0.1131952E+03  0.7546771E-02  0.1263159E+00
          1   -1    0    0  501    0  0.00000000000E+00  0.00000000000E+00  0.68883283726E+02  0.68883283726E+02  0.00000000000E+00 0. -1.
         -1   -1    0    0    0  501 -0.00000000000E+00 -0.00000000000E+00 -0.18424560448E+03  0.18424560448E+03  0.00000000000E+00 0.  1.
         23    2    1    2    0    0  0.77951125285E+01 -0.23380815846E+02 -0.10871662590E+03  0.15694730284E+03  0.11047952205E+03 0.  0.
          5    1    3    3  502    0 -0.49171264252E+02 -0.22579049287E+02 -0.66625618507E+02  0.85957487959E+02  0.47000000000E+01 0. -1.
         -5    1    3    3    0  502  0.56966376780E+02 -0.80176655894E+00 -0.42091007395E+02  0.70989814879E+02  0.47000000000E+01 0.  1.
        -11    1    1    2    0    0  0.22410682683E+01 -0.17192353556E+02 -0.39422344163E+02  0.43066467549E+02  0.00000000000E+00 0. -1.
         11    1    1    2    0    0 -0.10036180797E+02  0.40573169402E+02  0.32776649314E+02  0.53115117816E+02  0.00000000000E+00 0.  1.
<mgrwt>
<rscale>  0 0.10861359E+03</rscale>
<asrwt>0</asrwt>
<pdfrwt beam="1">  1        1 0.10597428E-01 0.11319519E+03</pdfrwt>
<pdfrwt beam="2">  1       -1 0.28345478E-01 0.11319519E+03</pdfrwt>
<totfact> 0.62531401E+03</totfact>
</mgrwt>
</event>
<event>
 7    1  0.6387485E-006  0.1412633E+03  0.7546771E-02  0.1222277E+00
          1   -1    0    0  501    0  0.00000000000E+00  0.00000000000E+00  0.69738633353E+03  0.69738633353E+03  0.00000000000E+00 0. -1.
         -1   -1    0    0    0  501 -0.00000000000E+00 -0.00000000000E+00 -0.29325418906E+02  0.29325418906E+02  0.00000000000E+00 0.  1.
         23    2    1    2    0    0  0.64845661404E+02  0.11355087607E+02  0.19758413698E+03  0.24288847702E+03  0.12498569225E+03 0.  0.
          5    1    3    3  502    0  0.10928821907E+02 -0.41305790705E+02  0.15375656555E+02  0.45652035098E+02  0.47000000000E+01 0.  1.
         -5    1    3    3    0  502  0.53916839496E+02  0.52660878312E+02  0.18220848042E+03  0.19723644192E+03  0.47000000000E+01 0.  1.
        -11    1    1    2    0    0 -0.91874028585E+01 -0.45775107801E+02  0.22343292888E+03  0.22825871851E+03  0.00000000000E+00 0. -1.
         11    1    1    2    0    0 -0.55658258545E+02  0.34420020194E+02  0.24704384876E+03  0.25556455690E+03  0.00000000000E+00 0.  1.
<mgrwt>
<rscale>  0 0.13355297E+03</rscale>
<asrwt>0</asrwt>
<pdfrwt beam="1">  1        1 0.10729019E+00 0.14126330E+03</pdfrwt>
<pdfrwt beam="2">  1       -1 0.45116034E-02 0.14126330E+03</pdfrwt>
<totfact> 0.56428593E+03</totfact>
</mgrwt>
</event>
<event>
 7    1  0.6387485E-006  0.1149681E+03  0.7546771E-02  0.1262227E+00
         -1   -1    0    0    0  501 -0.00000000000E+00  0.00000000000E+00  0.61977340632E+02  0.61977340632E+02  0.00000000000E+00 0.  1.
          1   -1    0    0  501    0  0.00000000000E+00 -0.00000000000E+00 -0.17510864595E+03  0.17510864595E+03  0.00000000000E+00 0. -1.
         23    2    1    2    0    0 -0.23523771689E+02  0.56789013723E+01 -0.58473538493E+02  0.12898380982E+03  0.11239239626E+03 0.  0.
          5    1    3    3  502    0 -0.52559215538E+02  0.35535952261E+02 -0.91747275596E+01  0.64277061747E+02  0.47000000000E+01 0. -1.
         -5    1    3    3    0  502  0.29035443849E+02 -0.29857050889E+02 -0.49298810934E+02  0.64706748077E+02  0.47000000000E+01 0.  1.
        -11    1    1    2    0    0 -0.11707399393E+02 -0.20132275483E+02  0.15709246860E+02  0.28091852085E+02  0.00000000000E+00 0.  1.
         11    1    1    2    0    0  0.35231171083E+02  0.14453374111E+02 -0.70367013682E+02  0.80010324669E+02  0.00000000000E+00 0. -1.
<mgrwt>
<rscale>  0 0.10910994E+03</rscale>
<asrwt>0</asrwt>
<pdfrwt beam="2">  1        1 0.26939791E-01 0.11496812E+03</pdfrwt>
<pdfrwt beam="1">  1       -1 0.95349758E-02 0.11496812E+03</pdfrwt>
<totfact> 0.10582636E+04</totfact>
</mgrwt>
</event>
<event>
 7    1  0.6387485E-006  0.1587607E+03  0.7546771E-02  0.1197948E+00
          2   -1    0    0  501    0  0.00000000000E+00  0.00000000000E+00  0.40742243862E+03  0.40742243862E+03  0.00000000000E+00 0. -1.
         -2   -1    0    0    0  501 -0.00000000000E+00 -0.00000000000E+00 -0.57479491299E+02  0.57479491299E+02  0.00000000000E+00 0.  1.
         23    2    1    2    0    0  0.60015512970E+02  0.77316363989E+02  0.12027935023E+03  0.19917852282E+03  0.12500111968E+03 0.  0.
          5    1    3    3  502    0 -0.38635597582E+02  0.27846304114E+02  0.43334759216E+02  0.64560958866E+02  0.47000000000E+01 0.  1.
         -5    1    3    3    0  502  0.98651110553E+02  0.49470059875E+02  0.76944591016E+02  0.13461756395E+03  0.47000000000E+01 0.  1.
        -11    1    1    2    0    0 -0.34134453367E+02  0.13732966902E+02  0.44273226569E+02  0.57566256413E+02  0.00000000000E+00 0.  1.
         11    1    1    2    0    0 -0.25881059603E+02 -0.91049330891E+02  0.18539037052E+03  0.20815715069E+03  0.00000000000E+00 0. -1.
<mgrwt>
<rscale>  0 0.15207341E+03</rscale>
<asrwt>0</asrwt>
<pdfrwt beam="1">  1        2 0.62680373E-01 0.15876071E+03</pdfrwt>
<pdfrwt beam="2">  1       -2 0.88429989E-02 0.15876071E+03</pdfrwt>
<totfact> 0.61063688E+03</totfact>
</mgrwt>
</event>
<event>
 7    1  0.6387485E-006  0.1457923E+03  0.7546771E-02  0.1216304E+00
         -2   -1    0    0    0  501 -0.00000000000E+00  0.00000000000E+00  0.83859904784E+02  0.83859904784E+02  0.00000000000E+00 0.  1.
          2   -1    0    0  501    0  0.00000000000E+00 -0.00000000000E+00 -0.20728548917E+03  0.20728548917E+03  0.00000000000E+00 0. -1.
         23    2    1    2    0    0  0.63294864997E+02  0.40311120598E+02 -0.53145731115E+02  0.15517687531E+03  0.12499667002E+03 0.  0.
          5    1    3    3  502    0  0.16598143335E+02 -0.38841876832E+02  0.98900834026E+01  0.43635919925E+02  0.47000000000E+01 0. -1.
         -5    1    3    3    0  502  0.46696721662E+02  0.79152997430E+02 -0.63035814517E+02  0.11154095538E+03  0.47000000000E+01 0. -1.
        -11    1    1    2    0    0 -0.54783197300E+02 -0.11555354409E+02 -0.85606605692E+02  0.10228986196E+03  0.00000000000E+00 0. -1.
         11    1    1    2    0    0 -0.85116676964E+01 -0.28755766188E+02  0.15326752423E+02  0.33678656682E+02  0.00000000000E+00 0.  1.
<mgrwt>
<rscale>  0 0.13781169E+03</rscale>
<asrwt>0</asrwt>
<pdfrwt beam="2">  1        2 0.31890075E-01 0.14579230E+03</pdfrwt>
<pdfrwt beam="1">  1       -2 0.12901524E-01 0.14579230E+03</pdfrwt>
<totfact> 0.68730986E+03</totfact>
</mgrwt>
</event>
<event>
 7    1  0.6387485E-006  0.1305573E+03  0.7546771E-02  0.1237055E+00
         -1   -1    0    0    0  501 -0.00000000000E+00  0.00000000000E+00  0.43044661219E+03  0.43044661219E+03  0.00000000000E+00 0.  1.
          1   -1    0    0  501    0  0.00000000000E+00 -0.00000000000E+00 -0.13284840944E+03  0.13284840944E+03  0.00000000000E+00 0. -1.
         23    2    1    2    0    0 -0.19124428594E+02  0.47686928084E+02  0.39733060667E+03  0.41823058918E+03  0.12002261391E+03 0.  0.
          5    1    3    3  502    0 -0.36278053213E+02 -0.21555587651E+02  0.60599087826E+02  0.73993783180E+02  0.47000000000E+01 0. -1.
         -5    1    3    3    0  502  0.17153624620E+02  0.69242515735E+02  0.33673151884E+03  0.34423680600E+03  0.47000000000E+01 0.  1.
        -11    1    1    2    0    0  0.55933224626E+02 -0.23648293760E+02 -0.65713265252E+02  0.89476257437E+02  0.00000000000E+00 0.  1.
         11    1    1    2    0    0 -0.36808796032E+02 -0.24038634323E+02 -0.34019138663E+02  0.55588175009E+02  0.00000000000E+00 0. -1.
<mgrwt>
<rscale>  0 0.12373777E+03</rscale>
<asrwt>0</asrwt>
<pdfrwt beam="2">  1        1 0.20438217E-01 0.13055732E+03</pdfrwt>
<pdfrwt beam="1">  1       -1 0.66222555E-01 0.13055732E+03</pdfrwt>
<totfact> 0.59397104E+02</totfact>
</mgrwt>
</event>
<event>
 7    1  0.6387485E-006  0.1304941E+03  0.7546771E-02  0.1240608E+00
          1   -1    0    0  501    0  0.00000000000E+00  0.00000000000E+00  0.33766187857E+03  0.33766187857E+03  0.00000000000E+00 0. -1.
         -1   -1    0    0    0  501 -0.00000000000E+00 -0.00000000000E+00 -0.47648595945E+02  0.47648595945E+02  0.00000000000E+00 0.  1.
         23    2    1    2    0    0 -0.27036322661E+02  0.25945665167E+02  0.78876529742E+02  0.15248025663E+03  0.12499832572E+03 0.  0.
          5    1    3    3  502    0 -0.33683123130E+02 -0.46100744849E+02  0.27024866874E+02  0.63342441451E+02  0.47000000000E+01 0. -1.
         -5    1    3    3    0  502  0.66468004690E+01  0.72046410016E+02  0.51851662867E+02  0.89137815178E+02  0.47000000000E+01 0. -1.
        -11    1    1    2    0    0  0.53636416583E+02 -0.23451857605E+02  0.80763603513E+02  0.99747754167E+02  0.00000000000E+00 0. -1.
         11    1    1    2    0    0 -0.26600093921E+02 -0.24938075623E+01  0.13037314937E+03  0.13308246372E+03  0.00000000000E+00 0.  1.
<mgrwt>
<rscale>  0 0.12152153E+03</rscale>
<asrwt>0</asrwt>
<pdfrwt beam="1">  1        1 0.51947980E-01 0.13049414E+03</pdfrwt>
<pdfrwt beam="2">  1       -1 0.73305534E-02 0.13049414E+03</pdfrwt>
<totfact> 0.70549323E+03</totfact>
</mgrwt>
</event>
<event>
 7    1  0.6387485E-006  0.1255915E+03  0.7546771E-02  0.1284935E+00
         -2   -1    0    0    0  501 -0.00000000000E+00  0.00000000000E+00  0.22115762822E+03  0.22115762822E+03  0.00000000000E+00 0.  1.
          2   -1    0    0  501    0  0.00000000000E+00 -0.00000000000E+00 -0.33375749853E+02  0.33375749853E+02  0.00000000000E+00 0. -1.
         23    2    1    2    0    0 -0.95184038782E+01  0.40636008236E+01  0.13820567972E+03  0.18674590956E+03  0.12516433983E+03 0.  0.
          5    1    3    3  502    0 -0.58286786246E+02  0.34098606121E+02  0.66995708107E+02  0.95239588906E+02  0.47000000000E+01 0. -1.
         -5    1    3    3    0  502  0.48768382368E+02 -0.30035005297E+02  0.71209971613E+02  0.91506320652E+02  0.47000000000E+01 0.  1.
        -11    1    1    2    0    0 -0.10241095640E+02  0.11446738808E+02  0.36210093619E+02  0.39332921950E+02  0.00000000000E+00 0. -1.
         11    1    1    2    0    0  0.19759499518E+02 -0.15510339632E+02  0.13366105030E+02  0.28454546568E+02  0.00000000000E+00 0.  1.
<mgrwt>
<rscale>  0 0.97826029E+02</rscale>
<asrwt>0</asrwt>
<pdfrwt beam="2">  1        2 0.51347309E-02 0.12559150E+03</pdfrwt>
<pdfrwt beam="1">  1       -2 0.34024250E-01 0.12559150E+03</pdfrwt>
<totfact> 0.11403319E+04</totfact>
</mgrwt>
</event>
<event>
 7    1  0.6387485E-006  0.2654883E+03  0.7546771E-02  0.1105330E+00
         -1   -1    0    0    0  501 -0.00000000000E+00  0.00000000000E+00  0.19922927412E+03  0.19922927412E+03  0.00000000000E+00 0.  1.
          1   -1    0    0  501    0  0.00000000000E+00 -0.00000000000E+00 -0.34767008916E+03  0.34767008916E+03  0.00000000000E+00 0. -1.
         23    2    1    2    0    0  0.20414466500E+03  0.90282481374E+02 -0.11063971408E+03  0.27873341101E+03  0.12500078957E+03 0.  0.
          5    1    3    3  502    0  0.17374772027E+03  0.99539009316E+02 -0.13225190719E+03  0.24001862767E+03  0.47000000000E+01 0.  1.
         -5    1    3    3    0  502  0.30396944731E+02 -0.92565279412E+01  0.21612193106E+02  0.38714783343E+02  0.47000000000E+01 0.  1.
        -11    1    1    2    0    0 -0.14573288120E+03 -0.11983588875E+03  0.70577590142E+01  0.18880816947E+03  0.00000000000E+00 0.  1.
         11    1    1    2    0    0 -0.58411783795E+02  0.29553407375E+02 -0.44858859974E+02  0.79357782805E+02  0.00000000000E+00 0. -1.
<mgrwt>
<rscale>  0 0.26304119E+03</rscale>
<asrwt>0</asrwt>
<pdfrwt beam="2">  1        1 0.53487705E-01 0.26548833E+03</pdfrwt>
<pdfrwt beam="1">  1       -1 0.30650658E-01 0.26548833E+03</pdfrwt>
<totfact> 0.71715551E+02</totfact>
</mgrwt>
</event>
<event>
 7    1  0.6387485E-006  0.1927551E+03  0.7546771E-02  0.1160860E+00
         -3   -1    0    0    0  501 -0.00000000000E+00  0.00000000000E+00  0.63081805581E+02  0.63081805581E+02  0.00000000000E+00 0.  1.
          3   -1    0    0  501    0  0.00000000000E+00 -0.00000000000E+00 -0.59669252561E+03  0.59669252561E+03  0.00000000000E+00 0. -1.
         23    2    1    2    0    0 -0.10504731625E+03  0.10181988629E+03 -0.16800571423E+03  0.25569598195E+03  0.12550811637E+03 0.  0.
          5    1    3    3  502    0  0.17163341024E+02  0.71132763908E+01  0.85324218231E+01  0.20977874017E+02  0.47000000000E+01 0. -1.
         -5    1    3    3    0  502 -0.12221065728E+03  0.94706609902E+02 -0.17653813605E+03  0.23471810793E+03  0.47000000000E+01 0. -1.
        -11    1    1    2    0    0  0.53010711230E+02 -0.88047150141E+02 -0.14983042507E+03  0.18169092556E+03  0.00000000000E+00 0.  1.
         11    1    1    2    0    0  0.52036605022E+02 -0.13772736151E+02 -0.21577458073E+03  0.22238742368E+03  0.00000000000E+00 0. -1.
<mgrwt>
<rscale>  0 0.18736495E+03</rscale>
<asrwt>0</asrwt>
<pdfrwt beam="2">  1        3 0.91798849E-01 0.19275507E+03</pdfrwt>
<pdfrwt beam="1">  1       -3 0.97048932E-02 0.19275507E+03</pdfrwt>
<totfact> 0.20770020E+02</totfact>
</mgrwt>
</event>
<event>
 7    1  0.6387485E-006  0.1538568E+03  0.7546771E-02  0.1204625E+00
         -1   -1    0    0    0  501 -0.00000000000E+00  0.00000000000E+00  0.36030221669E+03  0.36030221669E+03  0.00000000000E+00 0.  1.
          1   -1    0    0  501    0  0.00000000000E+00 -0.00000000000E+00 -0.67208301544E+02  0.67208301544E+02  0.00000000000E+00 0. -1.
         23    2    1    2    0    0 -0.51679943375E+02  0.73321135478E+02  0.24959771024E+03  0.29320798467E+03  0.12500039946E+03 0.  0.
          5    1    3    3  502    0  0.43929854091E+00  0.47638359031E+02  0.22483199264E+03  0.22987196687E+03  0.47000000000E+01 0. -1.
         -5    1    3    3    0  502 -0.52119241916E+02  0.25682776447E+02  0.24765717591E+02  0.63336017807E+02  0.47000000000E+01 0. -1.
        -11    1    1    2    0    0  0.45632171187E+01 -0.14486465494E+02  0.55887952603E+02  0.57914971114E+02  0.00000000000E+00 0.  1.
         11    1    1    2    0    0  0.47116726256E+02 -0.58834669984E+02 -0.12391747696E+02  0.76387562444E+02  0.00000000000E+00 0. -1.
<mgrwt>
<rscale>  0 0.14667060E+03</rscale>
<asrwt>0</asrwt>
<pdfrwt beam="2">  1        1 0.10339739E-01 0.15385677E+03</pdfrwt>
<pdfrwt beam="1">  1       -1 0.55431109E-01 0.15385677E+03</pdfrwt>
<totfact> 0.20277681E+03</totfact>
</mgrwt>
</event>
<event>
 7    1  0.6387485E-006  0.1428815E+03  0.7546771E-02  0.1220170E+00
          1   -1    0    0  501    0  0.00000000000E+00  0.00000000000E+00  0.28406367024E+03  0.28406367024E+03  0.00000000000E+00 0. -1.
         -1   -1    0    0    0  501 -0.00000000000E+00 -0.00000000000E+00 -0.66266610547E+02  0.66266610547E+02  0.00000000000E+00 0.  1.
         23    2    1    2    0    0  0.44834018002E+02  0.52693834346E+02  0.58367941671E+02  0.15434356627E+03  0.12501356121E+03 0.  0.
          5    1    3    3  502    0  0.82537833910E+02  0.58902148329E+02  0.27974959678E+02  0.10529314068E+03  0.47000000000E+01 0.  1.
         -5    1    3    3    0  502 -0.37703815908E+02 -0.62083139828E+01  0.30392981993E+02  0.49050425594E+02  0.47000000000E+01 0.  1.
        -11    1    1    2    0    0 -0.23191019579E+02  0.15025066507E+02  0.98672159252E+02  0.10246839037E+03  0.00000000000E+00 0. -1.
         11    1    1    2    0    0 -0.21642998423E+02 -0.67718900852E+02  0.60756958775E+02  0.93518324157E+02  0.00000000000E+00 0.  1.
<mgrwt>
<rscale>  0 0.13503498E+03</rscale>
<asrwt>0</asrwt>
<pdfrwt beam="1">  1        1 0.43702103E-01 0.14288149E+03</pdfrwt>
<pdfrwt beam="2">  1       -1 0.10194863E-01 0.14288149E+03</pdfrwt>
<totfact> 0.53333567E+03</totfact>
</mgrwt>
</event>
<event>
 7    1  0.6387485E-006  0.1932485E+03  0.7546771E-02  0.1160723E+00
         -2   -1    0    0    0  501 -0.00000000000E+00  0.00000000000E+00  0.57277854653E+02  0.57277854653E+02  0.00000000000E+00 0.  1.
          2   -1    0    0  501    0  0.00000000000E+00 -0.00000000000E+00 -0.58020863092E+03  0.58020863092E+03  0.00000000000E+00 0. -1.
         23    2    1    2    0    0 -0.12482108288E+03  0.78072013111E+02 -0.28191115020E+03  0.34178776777E+03  0.12517763231E+03 0.  0.
          5    1    3    3  502    0 -0.26830540290E+02  0.88546758844E+02 -0.16078850622E+03  0.18556788549E+03  0.47000000000E+01 0.  1.
         -5    1    3    3    0  502 -0.97990542585E+02 -0.10474745733E+02 -0.12112264398E+03  0.15621988228E+03  0.47000000000E+01 0.  1.
        -11    1    1    2    0    0  0.50973970433E+02  0.12737654138E+02 -0.56212663422E+02  0.76944506131E+02  0.00000000000E+00 0. -1.
         11    1    1    2    0    0  0.73847112442E+02 -0.90809667249E+02 -0.18480696265E+03  0.21875421168E+03  0.00000000000E+00 0.  1.
<mgrwt>
<rscale>  0 0.18751372E+03</rscale>
<asrwt>0</asrwt>
<pdfrwt beam="2">  1        2 0.89262857E-01 0.19324850E+03</pdfrwt>
<pdfrwt beam="1">  1       -2 0.88119785E-02 0.19324850E+03</pdfrwt>
<totfact> 0.41917085E+03</totfact>
</mgrwt>
</event>
<event>
 7    1  0.6387485E-006  0.1338603E+03  0.7546771E-02  0.1233968E+00
          2   -1    0    0  501    0  0.00000000000E+00  0.00000000000E+00  0.20128245999E+03  0.20128245999E+03  0.00000000000E+00 0. -1.
         -2   -1    0    0    0  501 -0.00000000000E+00 -0.00000000000E+00 -0.85369054394E+02  0.85369054394E+02  0.00000000000E+00 0.  1.
         23    2    1    2    0    0  0.10242853985E+02  0.46782790247E+02  0.41689752026E+01  0.13392524416E+03  0.12500018059E+03 0.  0.
          5    1    3    3  502    0  0.54397351433E+02  0.60463005052E+02  0.21628646635E+02  0.84289591161E+02  0.47000000000E+01 0.  1.
         -5    1    3    3    0  502 -0.44154497447E+02 -0.13680214805E+02 -0.17459671432E+02  0.49635652997E+02  0.47000000000E+01 0.  1.
        -11    1    1    2    0    0  0.38555264293E+02 -0.22708122707E+02  0.27766718592E+02  0.52660781450E+02  0.00000000000E+00 0.  1.
         11    1    1    2    0    0 -0.48798118278E+02 -0.24074667540E+02  0.83977711797E+02  0.10006548877E+03  0.00000000000E+00 0. -1.
<mgrwt>
<rscale>  0 0.12570718E+03</rscale>
<asrwt>0</asrwt>
<pdfrwt beam="1">  1        2 0.30966532E-01 0.13386034E+03</pdfrwt>
<pdfrwt beam="2">  1       -2 0.13133701E-01 0.13386034E+03</pdfrwt>
<totfact> 0.68545577E+03</totfact>
</mgrwt>
</event>
<event>
 7    1  0.9338981E-006  0.1671189E+03  0.7546771E-02  0.1187268E+00
         -1   -1    0    0    0  501 -0.00000000000E+00  0.00000000000E+00  0.69564401556E+02  0.69564401556E+02  0.00000000000E+00 0.  1.
          1   -1    0    0  501    0  0.00000000000E+00 -0.00000000000E+00 -0.35250523838E+03  0.35250523838E+03  0.00000000000E+00 0. -1.
         23    2    1    2    0    0  0.79087453723E+02 -0.77775351674E+02 -0.13351390514E+03  0.21390346962E+03  0.12499960314E+03 0.  0.
          5    1    3    3  502    0  0.73171933060E+02 -0.10560000372E+03 -0.75423194543E+02  0.14905113501E+03  0.47000000000E+01 0.  1.
         -5    1    3    3    0  502  0.59155206632E+01  0.27824652049E+02 -0.58090710600E+02  0.64852334610E+02  0.47000000000E+01 0.  1.
        -11    1    1    2    0    0 -0.69993985808E+02  0.55253799209E+01 -0.90175133622E+02  0.11428579350E+03  0.00000000000E+00 0.  1.
         11    1    1    2    0    0 -0.90934679149E+01  0.72249971753E+02 -0.59251798061E+02  0.93880376813E+02  0.00000000000E+00 0. -1.
<mgrwt>
<rscale>  0 0.16127197E+03</rscale>
<asrwt>0</asrwt>
<pdfrwt beam="2">  1        1 0.54231575E-01 0.16711891E+03</pdfrwt>
<pdfrwt beam="1">  1       -1 0.10702216E-01 0.16711891E+03</pdfrwt>
<totfact> 0.38134088E+03</totfact>
</mgrwt>
</event>
<event>
 7    1  0.6387485E-006  0.1534811E+03  0.7546771E-02  0.1205012E+00
          4   -1    0    0  501    0  0.00000000000E+00  0.00000000000E+00  0.32121240071E+02  0.32121240071E+02  0.00000000000E+00 0. -1.
         -4   -1    0    0    0  501 -0.00000000000E+00 -0.00000000000E+00 -0.78212742423E+03  0.78212742423E+03  0.00000000000E+00 0.  1.
         23    2    1    2    0    0 -0.88677098113E+02 -0.83022480633E+01 -0.59199036755E+03  0.61156279801E+03  0.12499562224E+03 0.  0.
          5    1    3    3  502    0 -0.47252337800E+02  0.45718138252E+02 -0.44061321071E+03  0.44551657999E+03  0.47000000000E+01 0. -1.
         -5    1    3    3    0  502 -0.41424760313E+02 -0.54020386316E+02 -0.15137715684E+03  0.16604621801E+03  0.47000000000E+01 0. -1.
        -11    1    1    2    0    0  0.10353595942E+02  0.40711897957E+02 -0.57268695616E+02  0.71023651566E+02  0.00000000000E+00 0.  1.
         11    1    1    2    0    0  0.78323502171E+02 -0.32409649894E+02 -0.10074712099E+03  0.13166221472E+03  0.00000000000E+00 0. -1.
<mgrwt>
<rscale>  0 0.14636487E+03</rscale>
<asrwt>0</asrwt>
<pdfrwt beam="1">  1        4 0.49417291E-02 0.15348114E+03</pdfrwt>
<pdfrwt beam="2">  1       -4 0.12032730E+00 0.15348114E+03</pdfrwt>
<totfact> 0.22898671E+02</totfact>
</mgrwt>
</event>
<event>
 7    1  0.6387485E-006  0.2137975E+03  0.7546771E-02  0.1142533E+00
          1   -1    0    0  501    0  0.00000000000E+00  0.00000000000E+00  0.13711435801E+04  0.13711435801E+04  0.00000000000E+00 0. -1.
         -1   -1    0    0    0  501 -0.00000000000E+00 -0.00000000000E+00 -0.36926248992E+02  0.36926248992E+02  0.00000000000E+00 0.  1.
         23    2    1    2    0    0  0.33304297681E+02  0.17021321612E+03  0.39712141193E+03  0.45101526520E+03  0.12501055333E+03 0.  0.
          5    1    3    3  502    0 -0.38649593422E+02  0.30770032300E+02  0.52062087608E+02  0.71924522421E+02  0.47000000000E+01 0.  1.
         -5    1    3    3    0  502  0.71953891103E+02  0.13944318382E+03  0.34505932433E+03  0.37909074278E+03  0.47000000000E+01 0.  1.
        -11    1    1    2    0    0  0.29057976705E+02 -0.50123353079E+02  0.23491250113E+03  0.24195164749E+03  0.00000000000E+00 0.  1.
         11    1    1    2    0    0 -0.62362274386E+02 -0.12008986304E+03  0.70218341803E+03  0.71510291639E+03  0.00000000000E+00 0. -1.
<mgrwt>
<rscale>  0 0.20878298E+03</rscale>
<asrwt>0</asrwt>
<pdfrwt beam="1">  1        1 0.21094513E+00 0.21379746E+03</pdfrwt>
<pdfrwt beam="2">  1       -1 0.56809624E-02 0.21379746E+03</pdfrwt>
<totfact> 0.12703950E+03</totfact>
</mgrwt>
</event>
<event>
 7    1  0.6387485E-006  0.2437916E+03  0.7546771E-02  0.1119686E+00
         -2   -1    0    0    0  501 -0.00000000000E+00  0.00000000000E+00  0.51267979358E+02  0.51267979358E+02  0.00000000000E+00 0.  1.
          2   -1    0    0  501    0  0.00000000000E+00 -0.00000000000E+00 -0.11264797563E+04  0.11264797563E+04  0.00000000000E+00 0. -1.
         23    2    1    2    0    0 -0.18220167626E+03  0.10302012116E+03 -0.45137653850E+03  0.51300594759E+03  0.12499490611E+03 0.  0.
          5    1    3    3  502    0 -0.18669518289E+03  0.58981315159E+02 -0.39741925219E+03  0.44305534515E+03  0.47000000000E+01 0. -1.
         -5    1    3    3    0  502  0.44935066230E+01  0.44038806002E+02 -0.53957286311E+02  0.69950602441E+02  0.47000000000E+01 0. -1.
        -11    1    1    2    0    0  0.82504025590E+02 -0.52374100482E+02 -0.15887909692E+03  0.18652755313E+03  0.00000000000E+00 0.  1.
         11    1    1    2    0    0  0.99697650672E+02 -0.50646020678E+02 -0.46495614154E+03  0.47821423496E+03  0.00000000000E+00 0. -1.
<mgrwt>
<rscale>  0 0.24016068E+03</rscale>
<asrwt>0</asrwt>
<pdfrwt beam="2">  1        2 0.17330458E+00 0.24379156E+03</pdfrwt>
<pdfrwt beam="1">  1       -2 0.78873811E-02 0.24379156E+03</pdfrwt>
<totfact> 0.21287517E+03</totfact>
</mgrwt>
</event>
<event>
 7    1  0.6387485E-006  0.1763207E+03  0.7546771E-02  0.1177291E+00
         -2   -1    0    0    0  501 -0.00000000000E+00  0.00000000000E+00  0.11685925029E+03  0.11685925029E+03  0.00000000000E+00 0.  1.
          2   -1    0    0  501    0  0.00000000000E+00 -0.00000000000E+00 -0.23393817165E+03  0.23393817165E+03  0.00000000000E+00 0. -1.
         23    2    1    2    0    0  0.10910530067E+02 -0.12386838718E+03 -0.58822213579E+02  0.18587371994E+03  0.12500627963E+03 0.  0.
          5    1    3    3  502    0 -0.46706956675E+02 -0.30736877294E+02  0.92126692099E+01  0.56861750779E+02  0.47000000000E+01 0. -1.
         -5    1    3    3    0  502  0.57617486742E+02 -0.93131509885E+02 -0.68034882789E+02  0.12901196917E+03  0.47000000000E+01 0. -1.
        -11    1    1    2    0    0  0.35036094588E+02  0.23086641925E+02 -0.57621488293E+01  0.42352370872E+02  0.00000000000E+00 0. -1.
         11    1    1    2    0    0 -0.45946624655E+02  0.10078174525E+03 -0.52494558954E+02  0.12257133112E+03  0.00000000000E+00 0.  1.
<mgrwt>
<rscale>  0 0.17053488E+03</rscale>
<asrwt>0</asrwt>
<pdfrwt beam="2">  1        2 0.35990488E-01 0.17632069E+03</pdfrwt>
<pdfrwt beam="1">  1       -2 0.17978346E-01 0.17632069E+03</pdfrwt>
<totfact> 0.35340422E+03</totfact>
</mgrwt>
</event>
<event>
 7    1  0.6387485E-006  0.2074719E+03  0.7546771E-02  0.1147351E+00
          1   -1    0    0  501    0  0.00000000000E+00  0.00000000000E+00  0.10583844246E+04  0.10583844246E+04  0.00000000000E+00 0. -1.
         -1   -1    0    0    0  501 -0.00000000000E+00 -0.00000000000E+00 -0.38362423300E+02  0.38362423300E+02  0.00000000000E+00 0.  1.
         23    2    1    2    0    0 -0.16450796494E+03 -0.18881236376E+02  0.43880594999E+03  0.48538156120E+03  0.12500090637E+03 0.  0.
          5    1    3    3  502    0 -0.96605107724E+02 -0.49220938457E+02  0.36383138060E+03  0.37967171495E+03  0.47000000000E+01 0.  1.
         -5    1    3    3    0  502 -0.67902857215E+02  0.30339702081E+02  0.74974569387E+02  0.10570984625E+03  0.47000000000E+01 0.  1.
        -11    1    1    2    0    0  0.56718110234E+02 -0.24558327028E+02  0.11148098382E+03  0.12746789873E+03  0.00000000000E+00 0.  1.
         11    1    1    2    0    0  0.10778985470E+03  0.43439563404E+02  0.46973506753E+03  0.48389738800E+03  0.00000000000E+00 0. -1.
<mgrwt>
<rscale>  0 0.20285702E+03</rscale>
<asrwt>0</asrwt>
<pdfrwt beam="1">  1        1 0.16282835E+00 0.20747192E+03</pdfrwt>
<pdfrwt beam="2">  1       -1 0.59019121E-02 0.20747192E+03</pdfrwt>
<totfact> 0.19780685E+03</totfact>
</mgrwt>
</event>
<event>
 7    1  0.6387485E-006  0.1392399E+03  0.7546771E-02  0.1225113E+00
         -2   -1    0    0    0  501 -0.00000000000E+00  0.00000000000E+00  0.12224551399E+03  0.12224551399E+03  0.00000000000E+00 0.  1.
          2   -1    0    0  501    0  0.00000000000E+00 -0.00000000000E+00 -0.24976955616E+03  0.24976955616E+03  0.00000000000E+00 0. -1.
         23    2    1    2    0    0  0.63195921958E+01 -0.61053469990E+02  0.61937247449E+02  0.15239410988E+03  0.12498111322E+03 0.  0.
          5    1    3    3  502    0  0.19147654435E+02 -0.82563165278E+02 -0.57635662121E+00  0.84886577961E+02  0.47000000000E+01 0. -1.
         -5    1    3    3    0  502 -0.12828062239E+02  0.21509695288E+02  0.62513604070E+02  0.67507531920E+02  0.47000000000E+01 0. -1.
        -11    1    1    2    0    0 -0.10681310899E+01  0.78195554150E+02 -0.93010605484E+02  0.12151813990E+03  0.00000000000E+00 0.  1.
         11    1    1    2    0    0 -0.52514611059E+01 -0.17142084160E+02 -0.96450684133E+02  0.98102820362E+02  0.00000000000E+00 0. -1.
<mgrwt>
<rscale>  0 0.13159136E+03</rscale>
<asrwt>0</asrwt>
<pdfrwt beam="2">  1        2 0.38426086E-01 0.13923987E+03</pdfrwt>
<pdfrwt beam="1">  1       -2 0.18807002E-01 0.13923987E+03</pdfrwt>
<totfact> 0.30210424E+03</totfact>
</mgrwt>
</event>
<event>
 7    1  0.6387485E-006  0.1665501E+03  0.7546771E-02  0.1188212E+00
         -2   -1    0    0    0  501 -0.00000000000E+00  0.00000000000E+00  0.11597249114E+03  0.11597249114E+03  0.00000000000E+00 0. -1.
          2   -1    0    0  501    0  0.00000000000E+00 -0.00000000000E+00 -0.31462967798E+03  0.31462967798E+03  0.00000000000E+00 0.  1.
         23    2    1    2    0    0  0.10530986500E+03  0.32006493782E+02  0.21434641366E+02  0.16792371414E+03  0.12499738641E+03 0.  0.
          5    1    3    3  502    0 -0.22333275600E+02  0.23351999213E+02 -0.13324422980E+02  0.35266433248E+02  0.47000000000E+01 0.  1.
         -5    1    3    3    0  502  0.12764314060E+03  0.86544945695E+01  0.34759064346E+02  0.13265728089E+03  0.47000000000E+01 0.  1.
        -11    1    1    2    0    0 -0.73491131024E+02  0.22155322030E+01 -0.19756606624E+03  0.21080371309E+03  0.00000000000E+00 0.  1.
         11    1    1    2    0    0 -0.31818733979E+02 -0.34222025985E+02 -0.22525761962E+02  0.51874741893E+02  0.00000000000E+00 0. -1.
<mgrwt>
<rscale>  0 0.16042992E+03</rscale>
<asrwt>0</asrwt>
<pdfrwt beam="2">  1        2 0.48404565E-01 0.16655008E+03</pdfrwt>
<pdfrwt beam="1">  1       -2 0.17841922E-01 0.16655008E+03</pdfrwt>
<totfact> 0.26004693E+03</totfact>
</mgrwt>
</event>
<event>
 7    1  0.6387485E-006  0.1406990E+03  0.7546771E-02  0.1224269E+00
          1   -1    0    0  501    0  0.00000000000E+00  0.00000000000E+00  0.26267179006E+03  0.26267179006E+03  0.00000000000E+00 0. -1.
         -1   -1    0    0    0  501 -0.00000000000E+00 -0.00000000000E+00 -0.60522757228E+02  0.60522757228E+02  0.00000000000E+00 0.  1.
         23    2    1    2    0    0  0.36126813528E+02  0.53511866201E+02  0.93780360863E+02  0.16908860424E+03  0.12501013367E+03 0.  0.
          5    1    3    3  502    0  0.71972510658E+02  0.43107687930E+02  0.10036684185E+03  0.13089655454E+03  0.47000000000E+01 0. -1.
         -5    1    3    3    0  502 -0.35845697130E+02  0.10404178270E+02 -0.65864809824E+01  0.38192049696E+02  0.47000000000E+01 0. -1.
        -11    1    1    2    0    0 -0.17822768024E+02 -0.16102644547E+02 -0.11917700871E+02  0.26813761681E+02  0.00000000000E+00 0.  1.
         11    1    1    2    0    0 -0.18304045504E+02 -0.37409221653E+02  0.12028637284E+03  0.12729218137E+03  0.00000000000E+00 0. -1.
<mgrwt>
<rscale>  0 0.13217152E+03</rscale>
<asrwt>0</asrwt>
<pdfrwt beam="1">  1        1 0.40411044E-01 0.14069897E+03</pdfrwt>
<pdfrwt beam="2">  1       -1 0.93111936E-02 0.14069897E+03</pdfrwt>
<totfact> 0.67411929E+03</totfact>
</mgrwt>
</event>
<event>
 7    1  0.6387485E-006  0.1904659E+03  0.7546771E-02  0.1162817E+00
         -2   -1    0    0    0  501 -0.00000000000E+00  0.00000000000E+00  0.27666924356E+02  0.27666924356E+02  0.00000000000E+00 0.  1.
          2   -1    0    0  501    0  0.00000000000E+00 -0.00000000000E+00 -0.12604733816E+04  0.12604733816E+04  0.00000000000E+00 0. -1.
         23    2    1    2    0    0 -0.48162406556E+02  0.13540552637E+03 -0.48282137394E+03  0.51903152825E+03  0.12499189659E+03 0.  0.
          5    1    3    3  502    0 -0.31713565273E+01 -0.20872272186E+02 -0.24450487956E+02  0.32643921481E+02  0.47000000000E+01 0. -1.
         -5    1    3    3    0  502 -0.44991050029E+02  0.15627779856E+03 -0.45837088598E+03  0.48638760677E+03  0.47000000000E+01 0. -1.
        -11    1    1    2    0    0 -0.22084726107E+02 -0.73641267069E+02 -0.34455520380E+03  0.35302841218E+03  0.00000000000E+00 0.  1.
         11    1    1    2    0    0  0.70247132663E+02 -0.61764259306E+02 -0.40542987953E+03  0.41608036555E+03  0.00000000000E+00 0. -1.
<mgrwt>
<rscale>  0 0.18524966E+03</rscale>
<asrwt>0</asrwt>
<pdfrwt beam="2">  1        2 0.19391901E+00 0.19046587E+03</pdfrwt>
<pdfrwt beam="1">  1       -2 0.42564492E-02 0.19046587E+03</pdfrwt>
<totfact> 0.45816894E+03</totfact>
</mgrwt>
</event>
<event>
 7    1  0.6387485E-006  0.1349884E+03  0.7546771E-02  0.1233137E+00
         -2   -1    0    0    0  501 -0.00000000000E+00  0.00000000000E+00  0.40689521580E+03  0.40689521580E+03  0.00000000000E+00 0.  1.
          2   -1    0    0  501    0  0.00000000000E+00 -0.00000000000E+00 -0.34987984253E+02  0.34987984253E+02  0.00000000000E+00 0. -1.
         23    2    1    2    0    0 -0.47569616447E+02 -0.18196571273E+02  0.22295832471E+03  0.26063820609E+03  0.12501150467E+03 0.  0.
          5    1    3    3  502    0 -0.32729725606E+02 -0.60365991893E+02  0.59081726377E+02  0.90708479797E+02  0.47000000000E+01 0. -1.
         -5    1    3    3    0  502 -0.14839890842E+02  0.42169420620E+02  0.16387659833E+03  0.16992972629E+03  0.47000000000E+01 0. -1.
        -11    1    1    2    0    0  0.37767374839E+02  0.36718244091E+02  0.15125345308E+03  0.16016307665E+03  0.00000000000E+00 0.  1.
         11    1    1    2    0    0  0.98022416087E+01 -0.18521672818E+02 -0.23045462446E+01  0.21081917321E+02  0.00000000000E+00 0. -1.
<mgrwt>
<rscale>  0 0.12624440E+03</rscale>
<asrwt>0</asrwt>
<pdfrwt beam="2">  1        2 0.53827671E-02 0.13498837E+03</pdfrwt>
<pdfrwt beam="1">  1       -2 0.62599261E-01 0.13498837E+03</pdfrwt>
<totfact> 0.32919845E+03</totfact>
</mgrwt>
</event>
<event>
 7    1  0.6387485E-006  0.1318463E+03  0.7546771E-02  0.1237850E+00
          1   -1    0    0  501    0  0.00000000000E+00  0.00000000000E+00  0.69185906091E+02  0.69185906091E+02  0.00000000000E+00 0. -1.
         -1   -1    0    0    0  501 -0.00000000000E+00 -0.00000000000E+00 -0.19877996664E+03  0.19877996664E+03  0.00000000000E+00 0.  1.
         23    2    1    2    0    0  0.13702634176E+02 -0.39617640282E+02 -0.90898476194E+02  0.16014362740E+03  0.12500451519E+03 0.  0.
          5    1    3    3  502    0  0.13932844795E+02 -0.60904665353E+00  0.29786428578E+02  0.33223732923E+02  0.47000000000E+01 0.  1.
         -5    1    3    3    0  502 -0.23021061903E+00 -0.39008593629E+02 -0.12068490477E+03  0.12691989448E+03  0.47000000000E+01 0.  1.
        -11    1    1    2    0    0 -0.31247443055E+02 -0.10130277382E+02 -0.43884327104E+02  0.54816597693E+02  0.00000000000E+00 0.  1.
         11    1    1    2    0    0  0.17544808879E+02  0.49747917664E+02  0.51887427469E+01  0.53005647641E+02  0.00000000000E+00 0. -1.
<mgrwt>
<rscale>  0 0.12323753E+03</rscale>
<asrwt>0</asrwt>
<pdfrwt beam="1">  1        1 0.10643986E-01 0.13184631E+03</pdfrwt>
<pdfrwt beam="2">  1       -1 0.30581533E-01 0.13184631E+03</pdfrwt>
<totfact> 0.55372856E+03</totfact>
</mgrwt>
</event>
<event>
 7    1  0.6387485E-006  0.2130667E+03  0.7546771E-02  0.1142548E+00
         -1   -1    0    0    0  501 -0.00000000000E+00  0.00000000000E+00  0.77064018584E+02  0.77064018584E+02  0.00000000000E+00 0.  1.
          1   -1    0    0  501    0  0.00000000000E+00 -0.00000000000E+00 -0.69550794092E+03  0.69550794092E+03  0.00000000000E+00 0. -1.
         23    2    1    2    0    0  0.11989559117E+03  0.12407276365E+03 -0.13880700898E+03  0.25429276728E+03  0.12501368839E+03 0.  0.
          5    1    3    3  502    0  0.39347035995E+01 -0.74952369298E+00 -0.70347885861E+02  0.70618402157E+02  0.47000000000E+01 0. -1.
         -5    1    3    3    0  502  0.11596088757E+03  0.12482228735E+03 -0.68459123117E+02  0.18367436512E+03  0.47000000000E+01 0. -1.
        -11    1    1    2    0    0 -0.93332043026E+02 -0.47092918500E+02 -0.18391639991E+03  0.21155107039E+03  0.00000000000E+00 0.  1.
         11    1    1    2    0    0 -0.26563548142E+02 -0.76979845155E+02 -0.29572051345E+03  0.30672812184E+03  0.00000000000E+00 0. -1.
<mgrwt>
<rscale>  0 0.20876433E+03</rscale>
<asrwt>0</asrwt>
<pdfrwt beam="2">  1        1 0.10700122E+00 0.21306672E+03</pdfrwt>
<pdfrwt beam="1">  1       -1 0.11856003E-01 0.21306672E+03</pdfrwt>
<totfact> 0.13275596E+03</totfact>
</mgrwt>
</event>
<event>
 7    1  0.6387485E-006  0.2284999E+03  0.7546771E-02  0.1130848E+00
          2   -1    0    0  501    0  0.00000000000E+00  0.00000000000E+00  0.24110977198E+03  0.24110977198E+03  0.00000000000E+00 0. -1.
         -2   -1    0    0    0  501 -0.00000000000E+00 -0.00000000000E+00 -0.20721649226E+03  0.20721649226E+03  0.00000000000E+00 0.  1.
         23    2    1    2    0    0  0.93087275305E+01 -0.19104532598E+03 -0.22087302120E+02  0.22956493514E+03  0.12500896586E+03 0.  0.
          5    1    3    3  502    0  0.27502063080E+02 -0.50992692993E+02  0.44644526409E+02  0.73292850610E+02  0.47000000000E+01 0. -1.
         -5    1    3    3    0  502 -0.18193335549E+02 -0.14005263299E+03 -0.66731828529E+02  0.15627208453E+03  0.47000000000E+01 0. -1.
        -11    1    1    2    0    0 -0.36767279999E+02  0.54445618665E+02 -0.65848292547E+01  0.66026648004E+02  0.00000000000E+00 0.  1.
         11    1    1    2    0    0  0.27458552468E+02  0.13659970732E+03  0.62565411091E+02  0.15273468109E+03  0.00000000000E+00 0. -1.
<mgrwt>
<rscale>  0 0.22411995E+03</rscale>
<asrwt>0</asrwt>
<pdfrwt beam="1">  1        2 0.37093811E-01 0.22849991E+03</pdfrwt>
<pdfrwt beam="2">  1       -2 0.31879460E-01 0.22849991E+03</pdfrwt>
<totfact> 0.12644856E+03</totfact>
</mgrwt>
</event>
<event>
 7    1  0.6387485E-006  0.1334271E+03  0.7546771E-02  0.1234855E+00
          1   -1    0    0  501    0  0.00000000000E+00  0.00000000000E+00  0.66669623724E+03  0.66669623724E+03  0.00000000000E+00 0. -1.
         -1   -1    0    0    0  501 -0.00000000000E+00 -0.00000000000E+00 -0.22202801826E+02  0.22202801826E+02  0.00000000000E+00 0.  1.
         23    2    1    2    0    0 -0.44390943108E+02  0.14492611926E+02  0.28164855039E+03  0.31165475390E+03  0.12498875173E+03 0.  0.
          5    1    3    3  502    0 -0.85750801585E+02  0.30426922059E+01  0.22175761723E+03  0.23782554267E+03  0.47000000000E+01 0. -1.
         -5    1    3    3    0  502  0.41359858477E+02  0.11449919720E+02  0.59890933161E+02  0.73829211223E+02  0.47000000000E+01 0. -1.
        -11    1    1    2    0    0  0.20341506435E+01  0.36602253243E+02  0.14068343844E+03  0.14538119742E+03  0.00000000000E+00 0. -1.
         11    1    1    2    0    0  0.42356792464E+02 -0.51094865169E+02  0.22216144658E+03  0.23186308775E+03  0.00000000000E+00 0.  1.
<mgrwt>
<rscale>  0 0.12513722E+03</rscale>
<asrwt>0</asrwt>
<pdfrwt beam="1">  1        1 0.10256864E+00 0.13342706E+03</pdfrwt>
<pdfrwt beam="2">  1       -1 0.34158162E-02 0.13342706E+03</pdfrwt>
<totfact> 0.90197681E+03</totfact>
</mgrwt>
</event>
<event>
 7    1  0.6449645E-006  0.4310482E+03  0.7546771E-02  0.1034172E+00
         -1   -1    0    0    0  501 -0.00000000000E+00  0.00000000000E+00  0.83676655674E+03  0.83676655674E+03  0.00000000000E+00 0.  1.
          1   -1    0    0  501    0  0.00000000000E+00 -0.00000000000E+00 -0.23951550011E+03  0.23951550011E+03  0.00000000000E+00 0. -1.
         23    2    1    2    0    0  0.40900917817E+03  0.53743215964E+02  0.46282983506E+03  0.63246659047E+03  0.12500276295E+03 0.  0.
          5    1    3    3  502    0  0.26464554213E+03 -0.23263049588E+02  0.25907716823E+03  0.37110847678E+03  0.47000000000E+01 0.  1.
         -5    1    3    3    0  502  0.14436363604E+03  0.77006265553E+02  0.20375266684E+03  0.26135811368E+03  0.47000000000E+01 0.  1.
        -11    1    1    2    0    0 -0.20643038576E+03 -0.37035892110E+02  0.11611926437E+03  0.23972660476E+03  0.00000000000E+00 0.  1.
         11    1    1    2    0    0 -0.20257879241E+03 -0.16707323854E+02  0.18301957192E+02  0.20408886163E+03  0.00000000000E+00 0. -1.
<mgrwt>
<rscale>  0 0.42901413E+03</rscale>
<asrwt>0</asrwt>
<pdfrwt beam="2">  1        1 0.36848539E-01 0.43104818E+03</pdfrwt>
<pdfrwt beam="1">  1       -1 0.12873332E+00 0.43104818E+03</pdfrwt>
<totfact> 0.64094369E+01</totfact>
</mgrwt>
</event>
<event>
 7    1  0.6387485E-006  0.1279676E+03  0.7546771E-02  0.1244878E+00
          3   -1    0    0  501    0  0.00000000000E+00  0.00000000000E+00  0.33288482499E+03  0.33288482499E+03  0.00000000000E+00 0. -1.
         -3   -1    0    0    0  501 -0.00000000000E+00 -0.00000000000E+00 -0.37594804244E+02  0.37594804244E+02  0.00000000000E+00 0.  1.
         23    2    1    2    0    0  0.18990760306E+02  0.19751131648E+02  0.15939840344E+03  0.20441025558E+03  0.12499978155E+03 0.  0.
          5    1    3    3  502    0 -0.47359216155E+01  0.53028278077E+02  0.16842943380E+02  0.56037505039E+02  0.47000000000E+01 0.  1.
         -5    1    3    3    0  502  0.23726681921E+02 -0.33277146429E+02  0.14255546006E+03  0.14837275054E+03  0.47000000000E+01 0.  1.
        -11    1    1    2    0    0 -0.27173636807E+00 -0.52380534557E+02  0.50504922098E+02  0.72763599398E+02  0.00000000000E+00 0. -1.
         11    1    1    2    0    0 -0.18719023938E+02  0.32629402910E+02  0.85386695205E+02  0.93305774256E+02  0.00000000000E+00 0.  1.
<mgrwt>
<rscale>  0 0.11892679E+03</rscale>
<asrwt>0</asrwt>
<pdfrwt beam="1">  1        3 0.51213048E-01 0.12796758E+03</pdfrwt>
<pdfrwt beam="2">  1       -3 0.57838162E-02 0.12796758E+03</pdfrwt>
<totfact> 0.15647843E+03</totfact>
</mgrwt>
</event>
<event>
 6    1  0.6387485E-006  0.1339797E+03  0.7546771E-02  0.1236558E+00
          3   -1    0    0  501    0  0.00000000000E+00  0.00000000000E+00  0.49445006964E+02  0.49445006964E+02  0.00000000000E+00 0. -1.
         -3   -1    0    0    0  501 -0.00000000000E+00 -0.00000000000E+00 -0.28746985755E+03  0.28746985755E+03  0.00000000000E+00 0.  1.
          5    1    1    2  502    0 -0.34806301547E+02 -0.52145067134E+01  0.27235723323E+01  0.35611480647E+02  0.47000000000E+01 0. -1.
         -5    1    1    2    0  502  0.49431238688E+02 -0.13914663506E+02 -0.17613208316E+03  0.18352565471E+03  0.47000000000E+01 0.  1.
        -11    1    1    2    0    0  0.18266814071E+02  0.33650463834E+01 -0.77038582362E+02  0.79246092684E+02  0.00000000000E+00 0.  1.
         11    1    1    2    0    0 -0.32891751211E+02  0.15764123836E+02  0.12422242601E+02  0.38531636473E+02  0.00000000000E+00 0. -1.
<mgrwt>
<rscale>  0 0.12405242E+03</rscale>
<asrwt>0</asrwt>
<pdfrwt beam="1">  1        3 0.76069243E-02 0.13397975E+03</pdfrwt>
<pdfrwt beam="2">  1       -3 0.44226131E-01 0.13397975E+03</pdfrwt>
<totfact> 0.13568121E+03</totfact>
</mgrwt>
</event>
<event>
 7    1  0.6387485E-006  0.1274472E+03  0.7546771E-02  0.1245532E+00
          2   -1    0    0  501    0  0.00000000000E+00  0.00000000000E+00  0.22621524198E+03  0.22621524198E+03  0.00000000000E+00 0. -1.
         -2   -1    0    0    0  501 -0.00000000000E+00 -0.00000000000E+00 -0.10856184159E+03  0.10856184159E+03  0.00000000000E+00 0.  1.
         23    2    1    2    0    0 -0.23266037823E+02  0.88314612432E+01 -0.53995398898E+02  0.13841351514E+03  0.12499397925E+03 0.  0.
          5    1    3    3  502    0 -0.63343554376E+02 -0.43276195520E+01  0.70595636967E+01  0.64055145083E+02  0.47000000000E+01 0.  1.
         -5    1    3    3    0  502  0.40077516552E+02  0.13159080795E+02 -0.61054962594E+02  0.74358370059E+02  0.47000000000E+01 0.  1.
        -11    1    1    2    0    0  0.43492155149E+02 -0.35387270428E+02  0.71904050573E+02  0.91181242351E+02  0.00000000000E+00 0.  1.
         11    1    1    2    0    0 -0.20226117325E+02  0.26555809185E+02  0.99744748710E+02  0.10518232608E+03  0.00000000000E+00 0. -1.
<mgrwt>
<rscale>  0 0.11853598E+03</rscale>
<asrwt>0</asrwt>
<pdfrwt beam="1">  1        2 0.34802345E-01 0.12744724E+03</pdfrwt>
<pdfrwt beam="2">  1       -2 0.16701822E-01 0.12744724E+03</pdfrwt>
<totfact> 0.40733583E+03</totfact>
</mgrwt>
</event>
<event>
 7    1  0.6387485E-006  0.1186151E+03  0.7546771E-02  0.1257271E+00
         -1   -1    0    0    0  501 -0.00000000000E+00  0.00000000000E+00  0.18308098525E+03  0.18308098525E+03  0.00000000000E+00 0.  1.
          1   -1    0    0  501    0  0.00000000000E+00 -0.00000000000E+00 -0.65818674819E+02  0.65818674819E+02  0.00000000000E+00 0. -1.
         23    2    1    2    0    0  0.99631505010E+01  0.16683823076E+01  0.96730795228E+02  0.15305678128E+03  0.11818410926E+03 0.  0.
          5    1    3    3  502    0 -0.16631535456E+02 -0.52184479956E+02  0.28108987203E+02  0.61741664065E+02  0.47000000000E+01 0. -1.
         -5    1    3    3    0  502  0.26594685957E+02  0.53852862264E+02  0.68621808025E+02  0.91315117214E+02  0.47000000000E+01 0.  1.
        -11    1    1    2    0    0 -0.23373687679E+02  0.36516587445E+02  0.31873997557E+02  0.53812100448E+02  0.00000000000E+00 0.  1.
         11    1    1    2    0    0  0.13410537178E+02 -0.38184969753E+02 -0.11342482351E+02  0.42030778345E+02  0.00000000000E+00 0. -1.
<mgrwt>
<rscale>  0 0.11180072E+03</rscale>
<asrwt>0</asrwt>
<pdfrwt beam="2">  1        1 0.10125950E-01 0.11861506E+03</pdfrwt>
<pdfrwt beam="1">  1       -1 0.28166305E-01 0.11861506E+03</pdfrwt>
<totfact> 0.67334626E+03</totfact>
</mgrwt>
</event>
<event>
 7    1  0.1449984E-005  0.1357778E+03  0.7546771E-02  0.1247996E+00
         -3   -1    0    0    0  501 -0.00000000000E+00  0.00000000000E+00  0.65754101773E+02  0.65754101773E+02  0.00000000000E+00 0.  1.
          3   -1    0    0  501    0  0.00000000000E+00 -0.00000000000E+00 -0.16913246177E+03  0.16913246177E+03  0.00000000000E+00 0. -1.
         23    2    1    2    0    0 -0.53010030359E+02 -0.10224328885E+01 -0.69535506000E+02  0.15254769372E+03  0.12499801429E+03 0.  0.
          5    1    3    3  502    0 -0.52343301216E+02  0.69901251116E+01  0.24250974049E+02  0.58299938024E+02  0.47000000000E+01 0. -1.
         -5    1    3    3    0  502 -0.66672914263E+00 -0.80125580001E+01 -0.93786480049E+02  0.94247755694E+02  0.47000000000E+01 0. -1.
        -11    1    1    2    0    0  0.46607605598E+02 -0.18448016264E+02 -0.10388697231E+02  0.51191046422E+02  0.00000000000E+00 0.  1.
         11    1    1    2    0    0  0.64024247611E+01  0.19470449152E+02 -0.23454156763E+02  0.31147823398E+02  0.00000000000E+00 0. -1.
<mgrwt>
<rscale>  0 0.11707848E+03</rscale>
<asrwt>0</asrwt>
<pdfrwt beam="2">  1        3 0.26020378E-01 0.13577780E+03</pdfrwt>
<pdfrwt beam="1">  1       -3 0.10116016E-01 0.13577780E+03</pdfrwt>
<totfact> 0.23146208E+03</totfact>
</mgrwt>
</event>
<event>
 6    1  0.6387485E-006  0.3001867E+03  0.7546771E-02  0.1129644E+00
         -2   -1    0    0    0  501 -0.00000000000E+00  0.00000000000E+00  0.13709760084E+03  0.13709760084E+03  0.00000000000E+00 0.  1.
          2   -1    0    0  501    0  0.00000000000E+00 -0.00000000000E+00 -0.32545704479E+03  0.32545704479E+03  0.00000000000E+00 0. -1.
          5    1    1    2  502    0  0.14727243558E+03 -0.67142469604E+02 -0.21892579692E+02  0.16339723545E+03  0.47000000000E+01 0. -1.
         -5    1    1    2    0  502 -0.12932600225E+03  0.44880167051E+02 -0.44754792748E+02  0.14409901362E+03  0.47000000000E+01 0.  1.
        -11    1    1    2    0    0 -0.37476994426E+02 -0.21098083860E+02 -0.32300102176E+02  0.53786158576E+02  0.00000000000E+00 0.  1.
         11    1    1    2    0    0  0.19530561093E+02  0.43360386413E+02 -0.89411969330E+02  0.10127223798E+03  0.00000000000E+00 0. -1.
<mgrwt>
<rscale>  0 0.22578214E+03</rscale>
<asrwt>0</asrwt>
<pdfrwt beam="2">  1        2 0.50070315E-01 0.30018673E+03</pdfrwt>
<pdfrwt beam="1">  1       -2 0.21091939E-01 0.30018673E+03</pdfrwt>
<totfact> 0.19182945E+03</totfact>
</mgrwt>
</event>
<event>
 7    1  0.6387485E-006  0.1313254E+03  0.7546771E-02  0.1239124E+00
         -4   -1    0    0    0  501 -0.00000000000E+00  0.00000000000E+00  0.39058956554E+03  0.39058956554E+03  0.00000000000E+00 0.  1.
          4   -1    0    0  501    0  0.00000000000E+00 -0.00000000000E+00 -0.40691509415E+02  0.40691509415E+02  0.00000000000E+00 0. -1.
         23    2    1    2    0    0 -0.25611392609E+02  0.31065241653E+02  0.28189213175E+03  0.31098156288E+03  0.12500146337E+03 0.  0.
          5    1    3    3  502    0 -0.40326385858E+02 -0.14468658923E+02  0.24905253122E+03  0.25275445158E+03  0.47000000000E+01 0. -1.
         -5    1    3    3    0  502  0.14714993249E+02  0.45533900576E+02  0.32839600526E+02  0.58227111303E+02  0.47000000000E+01 0. -1.
        -11    1    1    2    0    0 -0.27427437787E+02 -0.33176659167E+01  0.51114966902E+02  0.58103451637E+02  0.00000000000E+00 0.  1.
         11    1    1    2    0    0  0.53038830396E+02 -0.27747575737E+02  0.16890957477E+02  0.62196060434E+02  0.00000000000E+00 0. -1.
<mgrwt>
<rscale>  0 0.12244060E+03</rscale>
<asrwt>0</asrwt>
<pdfrwt beam="2">  1        4 0.62602325E-02 0.13132539E+03</pdfrwt>
<pdfrwt beam="1">  1       -4 0.60090700E-01 0.13132539E+03</pdfrwt>
<totfact> 0.72062695E+02</totfact>
</mgrwt>
</event>
<event>
 7    1  0.6387485E-006  0.1251836E+03  0.7546771E-02  0.1248142E+00
          1   -1    0    0  501    0  0.00000000000E+00  0.00000000000E+00  0.82304030039E+02  0.82304030039E+02  0.00000000000E+00 0. -1.
         -1   -1    0    0    0  501 -0.00000000000E+00 -0.00000000000E+00 -0.14943029926E+03  0.14943029926E+03  0.00000000000E+00 0.  1.
         23    2    1    2    0    0 -0.24253659369E+01 -0.63201516870E+01 -0.49545056593E+02  0.13463153802E+03  0.12500044671E+03 0.  0.
          5    1    3    3  502    0 -0.19946686671E+02 -0.45293705765E+02  0.19414106555E+02  0.53370287843E+02  0.47000000000E+01 0. -1.
         -5    1    3    3    0  502  0.17521320734E+02  0.38973554078E+02 -0.68959163148E+02  0.81261250174E+02  0.47000000000E+01 0. -1.
        -11    1    1    2    0    0  0.24400967797E+00  0.46026862532E+02 -0.30586488127E+02  0.55263594447E+02  0.00000000000E+00 0.  1.
         11    1    1    2    0    0  0.21813562589E+01 -0.39706710845E+02  0.13005275496E+02  0.41839196838E+02  0.00000000000E+00 0. -1.
<mgrwt>
<rscale>  0 0.11699279E+03</rscale>
<asrwt>0</asrwt>
<pdfrwt beam="1">  1        1 0.12662158E-01 0.12518362E+03</pdfrwt>
<pdfrwt beam="2">  1       -1 0.22989277E-01 0.12518362E+03</pdfrwt>
<totfact> 0.70379454E+03</totfact>
</mgrwt>
</event>
<event>
 6    1  0.6387485E-006  0.2816678E+03  0.7546771E-02  0.1136411E+00
          2   -1    0    0  501    0  0.00000000000E+00  0.00000000000E+00  0.18429221545E+04  0.18429221545E+04  0.00000000000E+00 0. -1.
         -2   -1    0    0    0  501 -0.00000000000E+00 -0.00000000000E+00 -0.19960612027E+02  0.19960612027E+02  0.00000000000E+00 0.  1.
          5    1    1    2  502    0  0.12277694042E+02 -0.11298320684E+03  0.10669417520E+04  0.10729877628E+04  0.47000000000E+01 0. -1.
         -5    1    1    2    0  502 -0.46375848823E+02  0.12009253176E+03  0.38373908521E+03  0.40478477127E+03  0.47000000000E+01 0.  1.
        -11    1    1    2    0    0  0.27843071296E+02  0.36423090391E+02  0.11006034434E+03  0.11922733549E+03  0.00000000000E+00 0.  1.
         11    1    1    2    0    0  0.62550834842E+01 -0.43532415304E+02  0.26222036088E+03  0.26588289699E+03  0.00000000000E+00 0. -1.
<mgrwt>
<rscale>  0 0.21664281E+03</rscale>
<asrwt>0</asrwt>
<pdfrwt beam="1">  1        2 0.28352635E+00 0.28166784E+03</pdfrwt>
<pdfrwt beam="2">  1       -2 0.30708649E-02 0.28166784E+03</pdfrwt>
<totfact> 0.36719408E+03</totfact>
</mgrwt>
</event>
<event>
 7    1  0.6387485E-006  0.1309009E+03  0.7546771E-02  0.1239591E+00
          2   -1    0    0  501    0  0.00000000000E+00  0.00000000000E+00  0.44187595621E+03  0.44187595621E+03  0.00000000000E+00 0. -1.
         -2   -1    0    0    0  501 -0.00000000000E+00 -0.00000000000E+00 -0.30493241506E+02  0.30493241506E+02  0.00000000000E+00 0.  1.
         23    2    1    2    0    0  0.34223741115E+02 -0.18403068290E+02  0.26414548321E+03  0.29480141494E+03  0.12500040229E+03 0.  0.
          5    1    3    3  502    0  0.48842596624E+02  0.23437213972E+02  0.43322992156E+02  0.69526066285E+02  0.47000000000E+01 0.  1.
         -5    1    3    3    0  502 -0.14618855509E+02 -0.41840282262E+02  0.22082249106E+03  0.22527534866E+03  0.47000000000E+01 0.  1.
        -11    1    1    2    0    0  0.19548493591E+02  0.22796732974E+02  0.12680718041E+02  0.32598086539E+02  0.00000000000E+00 0.  1.
         11    1    1    2    0    0 -0.53772234706E+02 -0.43936646842E+01  0.13455651345E+03  0.14496969623E+03  0.00000000000E+00 0. -1.
<mgrwt>
<rscale>  0 0.12215037E+03</rscale>
<asrwt>0</asrwt>
<pdfrwt beam="1">  1        2 0.67980912E-01 0.13090087E+03</pdfrwt>
<pdfrwt beam="2">  1       -2 0.46912682E-02 0.13090087E+03</pdfrwt>
<totfact> 0.14529149E+04</totfact>
</mgrwt>
</event>
<event>
 7    1  0.6387485E-006  0.2047014E+03  0.7546771E-02  0.1150060E+00
          1   -1    0    0  501    0  0.00000000000E+00  0.00000000000E+00  0.40045538542E+03  0.40045538542E+03  0.00000000000E+00 0. -1.
         -1   -1    0    0    0  501 -0.00000000000E+00 -0.00000000000E+00 -0.10792222510E+03  0.10792222510E+03  0.00000000000E+00 0.  1.
         23    2    1    2    0    0 -0.62244606037E+02  0.14968049517E+03  0.64414104946E+02  0.21459687888E+03  0.12499600751E+03 0.  0.
          5    1    3    3  502    0  0.11744628536E+02  0.56612860185E+02 -0.27543963080E+02  0.64216136133E+02  0.47000000000E+01 0.  1.
         -5    1    3    3    0  502 -0.73989234573E+02  0.93067634982E+02  0.91958068025E+02  0.15038074275E+03  0.47000000000E+01 0.  1.
        -11    1    1    2    0    0  0.28070121176E+02  0.16476594878E+01  0.51696754664E+02  0.58848967089E+02  0.00000000000E+00 0.  1.
         11    1    1    2    0    0  0.34174484860E+02 -0.15132815465E+03  0.17642230071E+03  0.23493176455E+03  0.00000000000E+00 0. -1.
<mgrwt>
<rscale>  0 0.19961948E+03</rscale>
<asrwt>0</asrwt>
<pdfrwt beam="1">  1        1 0.61608520E-01 0.20470135E+03</pdfrwt>
<pdfrwt beam="2">  1       -1 0.16603419E-01 0.20470135E+03</pdfrwt>
<totfact> 0.16414534E+03</totfact>
</mgrwt>
</event>
<event>
 7    1  0.6387485E-006  0.1327191E+03  0.7546771E-02  0.1236375E+00
         -1   -1    0    0    0  501 -0.00000000000E+00  0.00000000000E+00  0.60098239762E+02  0.60098239762E+02  0.00000000000E+00 0.  1.
          1   -1    0    0  501    0  0.00000000000E+00 -0.00000000000E+00 -0.33249355217E+03  0.33249355217E+03  0.00000000000E+00 0. -1.
         23    2    1    2    0    0  0.29546092415E+00 -0.44607503332E+02 -0.39508911596E+02  0.13847499867E+03  0.12499781802E+03 0.  0.
          5    1    3    3  502    0 -0.16467708784E+02  0.15393026211E+02 -0.66533378214E+02  0.70405334351E+02  0.47000000000E+01 0. -1.
         -5    1    3    3    0  502  0.16763169708E+02 -0.60000529543E+02  0.27024466619E+02  0.68069664316E+02  0.47000000000E+01 0. -1.
        -11    1    1    2    0    0 -0.29314816605E+02  0.27724085705E+02 -0.20913433140E+03  0.21299096687E+03  0.00000000000E+00 0. -1.
         11    1    1    2    0    0  0.29019355681E+02  0.16883417627E+02 -0.23752069416E+02  0.41125826392E+02  0.00000000000E+00 0.  1.
<mgrwt>
<rscale>  0 0.12416849E+03</rscale>
<asrwt>0</asrwt>
<pdfrwt beam="2">  1        1 0.51152854E-01 0.13271914E+03</pdfrwt>
<pdfrwt beam="1">  1       -1 0.92458831E-02 0.13271914E+03</pdfrwt>
<totfact> 0.50711075E+03</totfact>
</mgrwt>
</event>
<event>
 7    1  0.6387485E-006  0.1393748E+03  0.7546771E-02  0.1225440E+00
         -1   -1    0    0    0  501 -0.00000000000E+00  0.00000000000E+00  0.66733627900E+02  0.66733627900E+02  0.00000000000E+00 0.  1.
          1   -1    0    0  501    0  0.00000000000E+00 -0.00000000000E+00 -0.23431284013E+03  0.23431284013E+03  0.00000000000E+00 0. -1.
         23    2    1    2    0    0 -0.37822956427E+02 -0.48674550666E+02 -0.82306827973E+02  0.16186340211E+03  0.12500223637E+03 0.  0.
          5    1    3    3  502    0 -0.66544339171E+02 -0.25103954805E+02 -0.98065123795E+02  0.12123207549E+03  0.47000000000E+01 0.  1.
         -5    1    3    3    0  502  0.28721382745E+02 -0.23570595861E+02  0.15758295822E+02  0.40631326624E+02  0.47000000000E+01 0.  1.
        -11    1    1    2    0    0  0.57595254335E+02  0.58132023686E+02 -0.45142780262E+02  0.93458098149E+02  0.00000000000E+00 0.  1.
         11    1    1    2    0    0 -0.19772297909E+02 -0.94574730198E+01 -0.40129603990E+02  0.45724967763E+02  0.00000000000E+00 0. -1.
<mgrwt>
<rscale>  0 0.13136780E+03</rscale>
<asrwt>0</asrwt>
<pdfrwt beam="2">  1        1 0.36048129E-01 0.13937484E+03</pdfrwt>
<pdfrwt beam="1">  1       -1 0.10266712E-01 0.13937484E+03</pdfrwt>
<totfact> 0.66860221E+03</totfact>
</mgrwt>
</event>
<event>
 7    1  0.6387485E-006  0.1601257E+03  0.7546771E-02  0.1196415E+00
         -1   -1    0    0    0  501 -0.00000000000E+00  0.00000000000E+00  0.31981326911E+03  0.31981326911E+03  0.00000000000E+00 0.  1.
          1   -1    0    0  501    0  0.00000000000E+00 -0.00000000000E+00 -0.68078337061E+02  0.68078337061E+02  0.00000000000E+00 0. -1.
         23    2    1    2    0    0 -0.99668979008E+02 -0.89924646720E+01  0.14522217751E+03  0.21617056920E+03  0.12500185739E+03 0.  0.
          5    1    3    3  502    0 -0.81048128525E+01 -0.25243721889E+02  0.11524715662E+03  0.11835087915E+03  0.47000000000E+01 0.  1.
         -5    1    3    3    0  502 -0.91564166156E+02  0.16251257217E+02  0.29975020888E+02  0.97819690054E+02  0.47000000000E+01 0.  1.
        -11    1    1    2    0    0  0.30584690423E+02  0.34723116994E+02  0.53987192624E+01  0.46586095691E+02  0.00000000000E+00 0. -1.
         11    1    1    2    0    0  0.69084288586E+02 -0.25730652322E+02  0.10111403528E+03  0.12513494128E+03  0.00000000000E+00 0.  1.
<mgrwt>
<rscale>  0 0.15335037E+03</rscale>
<asrwt>0</asrwt>
<pdfrwt beam="2">  1        1 0.10473591E-01 0.16012568E+03</pdfrwt>
<pdfrwt beam="1">  1       -1 0.49202040E-01 0.16012568E+03</pdfrwt>
<totfact> 0.24890717E+03</totfact>
</mgrwt>
</event>
<event>
 7    1  0.6387485E-006  0.1638030E+03  0.7546771E-02  0.1190980E+00
         -3   -1    0    0    0  501 -0.00000000000E+00  0.00000000000E+00  0.15191110071E+03  0.15191110071E+03  0.00000000000E+00 0.  1.
          3   -1    0    0  501    0  0.00000000000E+00 -0.00000000000E+00 -0.16151236401E+03  0.16151236401E+03  0.00000000000E+00 0. -1.
         23    2    1    2    0    0  0.69851862403E+02  0.79537517887E+02  0.29314557655E+02  0.16640539077E+03  0.12500364536E+03 0.  0.
          5    1    3    3  502    0  0.95115282210E+01 -0.64915570488E+01  0.56427036799E+02  0.57781571145E+02  0.47000000000E+01 0.  1.
         -5    1    3    3    0  502  0.60340334182E+02  0.86029074936E+02 -0.27112479145E+02  0.10862381962E+03  0.47000000000E+01 0.  1.
        -11    1    1    2    0    0  0.15932864347E+02  0.18097716663E+01 -0.22548146153E+02  0.27668580280E+02  0.00000000000E+00 0.  1.
         11    1    1    2    0    0 -0.85784726750E+02 -0.81347289553E+02 -0.16367674802E+02  0.11934949367E+03  0.00000000000E+00 0. -1.
<mgrwt>
<rscale>  0 0.15799396E+03</rscale>
<asrwt>0</asrwt>
<pdfrwt beam="2">  1        3 0.24848056E-01 0.16380296E+03</pdfrwt>
<pdfrwt beam="1">  1       -3 0.23370938E-01 0.16380296E+03</pdfrwt>
<totfact> 0.61341099E+02</totfact>
</mgrwt>
</event>
<event>
 7    1  0.6387485E-006  0.1343309E+03  0.7546771E-02  0.1234312E+00
          2   -1    0    0  501    0  0.00000000000E+00  0.00000000000E+00  0.43030960775E+03  0.43030960775E+03  0.00000000000E+00 0. -1.
         -2   -1    0    0    0  501 -0.00000000000E+00 -0.00000000000E+00 -0.32534550656E+02  0.32534550656E+02  0.00000000000E+00 0.  1.
         23    2    1    2    0    0 -0.12244951523E+01  0.49162936821E+02  0.22853584520E+03  0.26509136125E+03  0.12500521398E+03 0.  0.
          5    1    3    3  502    0  0.15253475423E+01 -0.11519763696E+02 -0.11762510707E+02  0.17189482217E+02  0.47000000000E+01 0.  1.
         -5    1    3    3    0  502 -0.27498426946E+01  0.60682700518E+02  0.24029835591E+03  0.24790187903E+03  0.47000000000E+01 0.  1.
        -11    1    1    2    0    0  0.41645612472E+02 -0.11028610946E+02  0.48698974577E+02  0.65019823303E+02  0.00000000000E+00 0.  1.
         11    1    1    2    0    0 -0.40421117319E+02 -0.38134325875E+02  0.12054023732E+03  0.13273297386E+03  0.00000000000E+00 0. -1.
<mgrwt>
<rscale>  0 0.12548608E+03</rscale>
<asrwt>0</asrwt>
<pdfrwt beam="1">  1        2 0.66201474E-01 0.13433092E+03</pdfrwt>
<pdfrwt beam="2">  1       -2 0.50053158E-02 0.13433092E+03</pdfrwt>
<totfact> 0.13594951E+04</totfact>
</mgrwt>
</event>
<event>
 7    1  0.6387485E-006  0.1286201E+03  0.7546771E-02  0.1244252E+00
         -2   -1    0    0    0  501 -0.00000000000E+00  0.00000000000E+00  0.85832801732E+02  0.85832801732E+02  0.00000000000E+00 0.  1.
          2   -1    0    0  501    0  0.00000000000E+00 -0.00000000000E+00 -0.18011776154E+03  0.18011776154E+03  0.00000000000E+00 0. -1.
         23    2    1    2    0    0 -0.22235551690E+02 -0.20562529091E+02  0.45727512942E+01  0.12870139048E+03  0.12500360193E+03 0.  0.
          5    1    3    3  502    0  0.40944760471E+02  0.15101144538E+02  0.28298827394E+02  0.52224817934E+02  0.47000000000E+01 0. -1.
         -5    1    3    3    0  502 -0.63180312161E+02 -0.35663673629E+02 -0.23726076100E+02  0.76476572547E+02  0.47000000000E+01 0. -1.
        -11    1    1    2    0    0 -0.26579433177E+02  0.28480009182E+02 -0.69679925502E+02  0.79830252467E+02  0.00000000000E+00 0. -1.
         11    1    1    2    0    0  0.48814984867E+02 -0.79174800907E+01 -0.29177785598E+02  0.57418920322E+02  0.00000000000E+00 0.  1.
<mgrwt>
<rscale>  0 0.11930252E+03</rscale>
<asrwt>0</asrwt>
<pdfrwt beam="2">  1        2 0.27710425E-01 0.12862013E+03</pdfrwt>
<pdfrwt beam="1">  1       -2 0.13205046E-01 0.12862013E+03</pdfrwt>
<totfact> 0.76428413E+03</totfact>
</mgrwt>
</event>
<event>
 7    1  0.6387485E-006  0.1801977E+03  0.7546771E-02  0.1173071E+00
         -2   -1    0    0    0  501 -0.00000000000E+00  0.00000000000E+00  0.11372233431E+03  0.11372233431E+03  0.00000000000E+00 0.  1.
          2   -1    0    0  501    0  0.00000000000E+00 -0.00000000000E+00 -0.28512648218E+03  0.28512648218E+03  0.00000000000E+00 0. -1.
         23    2    1    2    0    0  0.12775343713E+03 -0.22917015255E+02 -0.23630383590E+02  0.18174053356E+03  0.12500038489E+03 0.  0.
          5    1    3    3  502    0 -0.17819298581E+01  0.33466478630E+02 -0.22026524650E+02  0.40378685641E+02  0.47000000000E+01 0. -1.
         -5    1    3    3    0  502  0.12953536699E+03 -0.56383493885E+02 -0.16038589395E+01  0.14136184792E+03  0.47000000000E+01 0. -1.
        -11    1    1    2    0    0 -0.23213233127E+02 -0.28758007762E+02 -0.13699628946E+02  0.39415187883E+02  0.00000000000E+00 0.  1.
         11    1    1    2    0    0 -0.10454020401E+03  0.51675023017E+02 -0.13407413534E+03  0.17769309504E+03  0.00000000000E+00 0. -1.
<mgrwt>
<rscale>  0 0.17466254E+03</rscale>
<asrwt>0</asrwt>
<pdfrwt beam="2">  1        2 0.43865613E-01 0.18019774E+03</pdfrwt>
<pdfrwt beam="1">  1       -2 0.17495744E-01 0.18019774E+03</pdfrwt>
<totfact> 0.29942697E+03</totfact>
</mgrwt>
</event>
<event>
 6    1  0.6387485E-006  0.1379488E+03  0.7546771E-02  0.1226433E+00
         -2   -1    0    0    0  501 -0.00000000000E+00  0.00000000000E+00  0.31879123203E+03  0.31879123203E+03  0.00000000000E+00 0.  1.
          2   -1    0    0  501    0  0.00000000000E+00 -0.00000000000E+00 -0.51755269541E+02  0.51755269541E+02  0.00000000000E+00 0. -1.
          5    1    1    2  502    0 -0.45162200864E+02  0.27014521029E+02  0.22142815623E+02  0.57287023112E+02  0.47000000000E+01 0. -1.
         -5    1    1    2    0  502  0.27139559312E+02 -0.49711759371E+02  0.16999743420E+03  0.17924573170E+03  0.47000000000E+01 0.  1.
        -11    1    1    2    0    0 -0.42767656425E+02  0.23444734758E+02  0.44593119012E+02  0.66085356072E+02  0.00000000000E+00 0.  1.
         11    1    1    2    0    0  0.60790297976E+02 -0.74749641538E+00  0.30302593657E+02  0.67928390687E+02  0.00000000000E+00 0. -1.
<mgrwt>
<rscale>  0 0.13069175E+03</rscale>
<asrwt>0</asrwt>
<pdfrwt beam="2">  1        2 0.79623493E-02 0.13794879E+03</pdfrwt>
<pdfrwt beam="1">  1       -2 0.49044804E-01 0.13794879E+03</pdfrwt>
<totfact> 0.32724462E+03</totfact>
</mgrwt>
</event>
<event>
 7    1  0.1169973E-005  0.2228559E+03  0.7546771E-02  0.1135187E+00
         -1   -1    0    0    0  501 -0.00000000000E+00  0.00000000000E+00  0.36737475491E+02  0.36737475491E+02  0.00000000000E+00 0.  1.
          1   -1    0    0  501    0  0.00000000000E+00 -0.00000000000E+00 -0.12648623210E+04  0.12648623210E+04  0.00000000000E+00 0. -1.
         23    2    1    2    0    0 -0.11678430789E+03  0.14283240659E+03 -0.55968723180E+03  0.60242387834E+03  0.12500024323E+03 0.  0.
          5    1    3    3  502    0 -0.17429577275E+02  0.68520795865E+02 -0.36281742895E+03  0.36967210657E+03  0.47000000000E+01 0.  1.
         -5    1    3    3    0  502 -0.99354730613E+02  0.74311610726E+02 -0.19686980286E+03  0.23275177177E+03  0.47000000000E+01 0.  1.
        -11    1    1    2    0    0  0.34217371397E+02 -0.91219645499E+02 -0.44337390694E+03  0.45395184060E+03  0.00000000000E+00 0. -1.
         11    1    1    2    0    0  0.82566936490E+02 -0.51612761092E+02 -0.22506370680E+03  0.24522407758E+03  0.00000000000E+00 0.  1.
<mgrwt>
<rscale>  0 0.21825965E+03</rscale>
<asrwt>0</asrwt>
<pdfrwt beam="2">  1        1 0.19459424E+00 0.22285585E+03</pdfrwt>
<pdfrwt beam="1">  1       -1 0.56519183E-02 0.22285585E+03</pdfrwt>
<totfact> 0.15108456E+03</totfact>
</mgrwt>
</event>
<event>
 6    1  0.6387485E-006  0.1388936E+03  0.7546771E-02  0.1229747E+00
          2   -1    0    0  501    0  0.00000000000E+00  0.00000000000E+00  0.18756894525E+03  0.18756894525E+03  0.00000000000E+00 0. -1.
         -2   -1    0    0    0  501 -0.00000000000E+00 -0.00000000000E+00 -0.88612254183E+02  0.88612254183E+02  0.00000000000E+00 0.  1.
          5    1    1    2  502    0  0.10679595740E+02 -0.93032066186E+01  0.65212311614E+02  0.66897974593E+02  0.47000000000E+01 0. -1.
         -5    1    1    2    0  502 -0.29430724466E+02 -0.30410677867E+02 -0.58269240204E+02  0.72169046168E+02  0.47000000000E+01 0.  1.
        -11    1    1    2    0    0  0.14215350565E+02 -0.21367011067E+02 -0.10711826323E+01  0.25686042628E+02  0.00000000000E+00 0.  1.
         11    1    1    2    0    0  0.45357781609E+01  0.61080895553E+02  0.93084802288E+02  0.11142813604E+03  0.00000000000E+00 0. -1.
<mgrwt>
<rscale>  0 0.12846775E+03</rscale>
<asrwt>0</asrwt>
<pdfrwt beam="1">  1        2 0.28856761E-01 0.13889359E+03</pdfrwt>
<pdfrwt beam="2">  1       -2 0.13632655E-01 0.13889359E+03</pdfrwt>
<totfact> 0.69842769E+03</totfact>
</mgrwt>
</event>
<event>
 7    1  0.6387485E-006  0.1477587E+03  0.7546771E-02  0.1214335E+00
          3   -1    0    0  501    0  0.00000000000E+00  0.00000000000E+00  0.25279945104E+02  0.25279945104E+02  0.00000000000E+00 0. -1.
         -3   -1    0    0    0  501 -0.00000000000E+00 -0.00000000000E+00 -0.96722898682E+03  0.96722898682E+03  0.00000000000E+00 0.  1.
         23    2    1    2    0    0 -0.28153238136E+02 -0.73572140608E+02 -0.77457587852E+03  0.78854322875E+03  0.12500866898E+03 0.  0.
          5    1    3    3  502    0 -0.21840030039E+01  0.19980948307E+02 -0.43065837704E+03  0.43115279876E+03  0.47000000000E+01 0. -1.
         -5    1    3    3    0  502 -0.25969235132E+02 -0.93553088915E+02 -0.34391750148E+03  0.35739042998E+03  0.47000000000E+01 0. -1.
        -11    1    1    2    0    0  0.42618608225E+02  0.72886774598E+02 -0.16946519303E+03  0.18933377756E+03  0.00000000000E+00 0.  1.
         11    1    1    2    0    0 -0.14465370089E+02  0.68536600976E+00  0.20920298343E+01  0.14631925615E+02  0.00000000000E+00 0. -1.
<mgrwt>
<rscale>  0 0.13925479E+03</rscale>
<asrwt>0</asrwt>
<pdfrwt beam="1">  1        3 0.38892225E-02 0.14775870E+03</pdfrwt>
<pdfrwt beam="2">  1       -3 0.14880445E+00 0.14775870E+03</pdfrwt>
<totfact> 0.27997159E+02</totfact>
</mgrwt>
</event>
<event>
 7    1  0.6387485E-006  0.1497623E+03  0.7546771E-02  0.1208471E+00
          2   -1    0    0  501    0  0.00000000000E+00  0.00000000000E+00  0.87306219698E+03  0.87306219698E+03  0.00000000000E+00 0. -1.
         -2   -1    0    0    0  501 -0.00000000000E+00 -0.00000000000E+00 -0.22884453915E+02  0.22884453915E+02  0.00000000000E+00 0.  1.
         23    2    1    2    0    0  0.78514270214E+02 -0.25273519096E+02  0.36664816056E+03  0.39605508743E+03  0.12500206896E+03 0.  0.
          5    1    3    3  502    0  0.63399384588E+02 -0.39644795447E+02  0.36710336062E+03  0.37467073431E+03  0.47000000000E+01 0.  1.
         -5    1    3    3    0  502  0.15114885626E+02  0.14371276351E+02 -0.45520005423E+00  0.21384353124E+02  0.47000000000E+01 0.  1.
        -11    1    1    2    0    0 -0.13902149146E+01  0.24075073206E+02  0.24320541542E+02  0.34249534132E+02  0.00000000000E+00 0.  1.
         11    1    1    2    0    0 -0.77124055299E+02  0.11984458903E+01  0.45920904096E+03  0.46564202933E+03  0.00000000000E+00 0. -1.
<mgrwt>
<rscale>  0 0.14367258E+03</rscale>
<asrwt>0</asrwt>
<pdfrwt beam="1">  1        2 0.13431724E+00 0.14976234E+03</pdfrwt>
<pdfrwt beam="2">  1       -2 0.35206859E-02 0.14976234E+03</pdfrwt>
<totfact> 0.10194187E+04</totfact>
</mgrwt>
</event>
<event>
 7    1  0.6387485E-006  0.1486072E+03  0.7546771E-02  0.1211397E+00
         -2   -1    0    0    0  501 -0.00000000000E+00  0.00000000000E+00  0.67786034125E+03  0.67786034125E+03  0.00000000000E+00 0.  1.
          2   -1    0    0  501    0  0.00000000000E+00 -0.00000000000E+00 -0.27080264409E+02  0.27080264409E+02  0.00000000000E+00 0. -1.
         23    2    1    2    0    0 -0.22154771679E+02  0.77253165215E+02  0.33829795998E+03  0.36949911726E+03  0.12500080994E+03 0.  0.
          5    1    3    3  502    0 -0.11900737809E+02  0.10903505175E+03  0.21152816127E+03  0.23832021123E+03  0.47000000000E+01 0.  1.
         -5    1    3    3    0  502 -0.10254033869E+02 -0.31781886533E+02  0.12676979871E+03  0.13117890603E+03  0.47000000000E+01 0.  1.
        -11    1    1    2    0    0  0.37645477721E+02 -0.22697051738E+02  0.23692343144E+03  0.24096690752E+03  0.00000000000E+00 0.  1.
         11    1    1    2    0    0 -0.15490706043E+02 -0.54556113476E+02  0.75558685417E+02  0.94474580885E+02  0.00000000000E+00 0. -1.
<mgrwt>
<rscale>  0 0.14144587E+03</rscale>
<asrwt>0</asrwt>
<pdfrwt beam="2">  1        2 0.41661950E-02 0.14860716E+03</pdfrwt>
<pdfrwt beam="1">  1       -2 0.10428619E+00 0.14860716E+03</pdfrwt>
<totfact> 0.15110147E+03</totfact>
</mgrwt>
</event>
<event>
 7    1  0.6387485E-006  0.1670693E+03  0.7546771E-02  0.1185200E+00
          1   -1    0    0  501    0  0.00000000000E+00  0.00000000000E+00  0.50682034857E+02  0.50682034857E+02  0.00000000000E+00 0. -1.
         -1   -1    0    0    0  501 -0.00000000000E+00 -0.00000000000E+00 -0.55894257183E+03  0.55894257183E+03  0.00000000000E+00 0.  1.
         23    2    1    2    0    0 -0.95095575650E+02 -0.56967847397E+02 -0.36233527144E+03  0.39899751154E+03  0.12499464444E+03 0.  0.
          5    1    3    3  502    0 -0.11054372606E+03 -0.14812075325E+02 -0.31207994466E+03  0.33144425595E+03  0.47000000000E+01 0.  1.
         -5    1    3    3    0  502  0.15448150410E+02 -0.42155772072E+02 -0.50255326783E+02  0.67553255585E+02  0.47000000000E+01 0.  1.
        -11    1    1    2    0    0  0.31470300974E+02  0.76366206852E+02 -0.10046736140E+03  0.13006101683E+03  0.00000000000E+00 0.  1.
         11    1    1    2    0    0  0.63625274676E+02 -0.19398359455E+02 -0.45457904129E+02  0.80566078315E+02  0.00000000000E+00 0. -1.
<mgrwt>
<rscale>  0 0.16313703E+03</rscale>
<asrwt>0</asrwt>
<pdfrwt beam="1">  1        1 0.77972357E-02 0.16706934E+03</pdfrwt>
<pdfrwt beam="2">  1       -1 0.85991170E-01 0.16706934E+03</pdfrwt>
<totfact> 0.12451597E+03</totfact>
</mgrwt>
</event>
<event>
 7    1  0.6387485E-006  0.1887777E+03  0.7546771E-02  0.1164474E+00
          2   -1    0    0  501    0  0.00000000000E+00  0.00000000000E+00  0.39705689867E+02  0.39705689867E+02  0.00000000000E+00 0. -1.
         -2   -1    0    0    0  501 -0.00000000000E+00 -0.00000000000E+00 -0.81425745368E+03  0.81425745368E+03  0.00000000000E+00 0.  1.
         23    2    1    2    0    0  0.52280345567E+02 -0.13144388184E+03 -0.45780758816E+03  0.49520177448E+03  0.12500512413E+03 0.  0.
          5    1    3    3  502    0  0.55557311887E+02 -0.61984579738E+00 -0.10519765097E+03  0.11906147522E+03  0.47000000000E+01 0.  1.
         -5    1    3    3    0  502 -0.32769663203E+01 -0.13082403604E+03 -0.35260993719E+03  0.37614029925E+03  0.47000000000E+01 0.  1.
        -11    1    1    2    0    0 -0.50613185749E+02  0.10119180619E+03 -0.30659981726E+03  0.32681022652E+03  0.00000000000E+00 0.  1.
         11    1    1    2    0    0 -0.16671598180E+01  0.30252075653E+02 -0.10144358388E+02  0.31951142550E+02  0.00000000000E+00 0. -1.
<mgrwt>
<rscale>  0 0.18348263E+03</rscale>
<asrwt>0</asrwt>
<pdfrwt beam="1">  1        2 0.61085682E-02 0.18877767E+03</pdfrwt>
<pdfrwt beam="2">  1       -2 0.12527037E+00 0.18877767E+03</pdfrwt>
<totfact> 0.59683087E+02</totfact>
</mgrwt>
</event>
<event>
 7    1  0.6387485E-006  0.1296770E+03  0.7546771E-02  0.1241154E+00
          1   -1    0    0  501    0  0.00000000000E+00  0.00000000000E+00  0.63295289225E+02  0.63295289225E+02  0.00000000000E+00 0. -1.
         -1   -1    0    0    0  501 -0.00000000000E+00 -0.00000000000E+00 -0.22749963894E+03  0.22749963894E+03  0.00000000000E+00 0.  1.
         23    2    1    2    0    0  0.34494840196E+02 -0.15573480362E+00 -0.13607344383E+03  0.18796839434E+03  0.12500486751E+03 0.  0.
          5    1    3    3  502    0  0.81237261606E+02 -0.75262761784E+01 -0.93056771398E+02  0.12384583243E+03  0.47000000000E+01 0.  1.
         -5    1    3    3    0  502 -0.46742421411E+02  0.73705413748E+01 -0.43016672432E+02  0.64122561915E+02  0.47000000000E+01 0.  1.
        -11    1    1    2    0    0  0.31121606606E+02  0.79001520734E+01 -0.15099332660E+02  0.35481779089E+02  0.00000000000E+00 0. -1.
         11    1    1    2    0    0 -0.65616446802E+02 -0.77444172698E+01 -0.13031573228E+02  0.67344754736E+02  0.00000000000E+00 0.  1.
<mgrwt>
<rscale>  0 0.12118545E+03</rscale>
<asrwt>0</asrwt>
<pdfrwt beam="1">  1        1 0.97377369E-02 0.12967704E+03</pdfrwt>
<pdfrwt beam="2">  1       -1 0.34999944E-01 0.12967704E+03</pdfrwt>
<totfact> 0.49477437E+03</totfact>
</mgrwt>
</event>
<event>
 7    1  0.6387485E-006  0.1448692E+03  0.7546771E-02  0.1214322E+00
          2   -1    0    0  501    0  0.00000000000E+00  0.00000000000E+00  0.11000505743E+03  0.11000505743E+03  0.00000000000E+00 0.  1.
         -2   -1    0    0    0  501 -0.00000000000E+00 -0.00000000000E+00 -0.19836912022E+03  0.19836912022E+03  0.00000000000E+00 0. -1.
         23    2    1    2    0    0 -0.55640917710E+02 -0.47599433903E+02 -0.11112191758E+03  0.18257920250E+03  0.12500186714E+03 0.  0.
          5    1    3    3  502    0 -0.94582275747E+01 -0.71604967395E+02 -0.16122301891E+02  0.74153543696E+02  0.47000000000E+01 0. -1.
         -5    1    3    3    0  502 -0.46182690135E+02  0.24005533492E+02 -0.94999615686E+02  0.10842565880E+03  0.47000000000E+01 0. -1.
        -11    1    1    2    0    0  0.27921729777E+02 -0.15854979935E+02  0.42987679387E+02  0.53655791501E+02  0.00000000000E+00 0.  1.
         11    1    1    2    0    0  0.27719187933E+02  0.63454413838E+02 -0.20229824598E+02  0.72139183655E+02  0.00000000000E+00 0. -1.
<mgrwt>
<rscale>  0 0.13926480E+03</rscale>
<asrwt>0</asrwt>
<pdfrwt beam="1">  1        2 0.16923855E-01 0.14486920E+03</pdfrwt>
<pdfrwt beam="2">  1       -2 0.30518326E-01 0.14486920E+03</pdfrwt>
<totfact> 0.32279433E+03</totfact>
</mgrwt>
</event>
<event>
 7    1  0.6387485E-006  0.1774180E+03  0.7546771E-02  0.1174469E+00
          2   -1    0    0  501    0  0.00000000000E+00  0.00000000000E+00  0.22492163882E+03  0.22492163882E+03  0.00000000000E+00 0. -1.
         -2   -1    0    0    0  501 -0.00000000000E+00 -0.00000000000E+00 -0.13072104508E+03  0.13072104508E+03  0.00000000000E+00 0.  1.
         23    2    1    2    0    0 -0.88554246910E+02 -0.98853501517E+02  0.21936236388E+02  0.17876893069E+03  0.11774235732E+03 0.  0.
          5    1    3    3  502    0  0.13675432871E+02 -0.47398574230E+02  0.38867060531E+02  0.62979208455E+02  0.47000000000E+01 0. -1.
         -5    1    3    3    0  502 -0.10222967978E+03 -0.51454927286E+02 -0.16930824143E+02  0.11578972224E+03  0.47000000000E+01 0.  1.
        -11    1    1    2    0    0  0.70171703975E+02  0.13758724309E+02  0.49244882668E+02  0.86824126845E+02  0.00000000000E+00 0.  1.
         11    1    1    2    0    0  0.18382542934E+02  0.85094777207E+02  0.23019474688E+02  0.90049626360E+02  0.00000000000E+00 0. -1.
<mgrwt>
<rscale>  0 0.17328044E+03</rscale>
<asrwt>0</asrwt>
<pdfrwt beam="1">  1        2 0.34603329E-01 0.17741796E+03</pdfrwt>
<pdfrwt beam="2">  1       -2 0.20110930E-01 0.17741796E+03</pdfrwt>
<totfact> 0.30513684E+03</totfact>
</mgrwt>
</event>
<event>
 7    1  0.6387485E-006  0.2542657E+03  0.7546771E-02  0.1113059E+00
          1   -1    0    0  501    0  0.00000000000E+00  0.00000000000E+00  0.49429532766E+03  0.49429532766E+03  0.00000000000E+00 0. -1.
         -1   -1    0    0    0  501 -0.00000000000E+00 -0.00000000000E+00 -0.12314527230E+03  0.12314527230E+03  0.00000000000E+00 0.  1.
         23    2    1    2    0    0  0.57715370384E+02  0.21376575267E+03  0.18651173182E+03  0.31533739513E+03  0.12499674262E+03 0.  0.
          5    1    3    3  502    0  0.92093388116E+02  0.13659705875E+03  0.15118144825E+03  0.22364675023E+03  0.47000000000E+01 0. -1.
         -5    1    3    3    0  502 -0.34378017732E+02  0.77168693914E+02  0.35330283573E+02  0.91690644894E+02  0.47000000000E+01 0. -1.
        -11    1    1    2    0    0 -0.39106661774E+02 -0.84521563664E+02  0.13147693586E+03  0.16111924275E+03  0.00000000000E+00 0.  1.
         11    1    1    2    0    0 -0.18608708609E+02 -0.12924418900E+03  0.53161387679E+02  0.14098396209E+03  0.00000000000E+00 0. -1.
<mgrwt>
<rscale>  0 0.25038980E+03</rscale>
<asrwt>0</asrwt>
<pdfrwt beam="1">  1        1 0.76045434E-01 0.25426570E+03</pdfrwt>
<pdfrwt beam="2">  1       -1 0.18945427E-01 0.25426570E+03</pdfrwt>
<totfact> 0.10118822E+03</totfact>
</mgrwt>
</event>
<event>
 7    1  0.6387485E-006  0.1272872E+03  0.7546771E-02  0.1247675E+00
          2   -1    0    0  501    0  0.00000000000E+00  0.00000000000E+00  0.13731801031E+03  0.13731801031E+03  0.00000000000E+00 0. -1.
         -2   -1    0    0    0  501 -0.00000000000E+00 -0.00000000000E+00 -0.10053044028E+03  0.10053044028E+03  0.00000000000E+00 0.  1.
         23    2    1    2    0    0 -0.68858991188E+01 -0.23015635548E+02 -0.21649790421E+02  0.12911520695E+03  0.12499955262E+03 0.  0.
          5    1    3    3  502    0 -0.10412338769E+02  0.49830646369E+02  0.49034858015E+01  0.51358001219E+02  0.47000000000E+01 0. -1.
         -5    1    3    3    0  502  0.35264396501E+01 -0.72846281917E+02 -0.26553276222E+02  0.77757205736E+02  0.47000000000E+01 0. -1.
        -11    1    1    2    0    0  0.42263002411E+02  0.21332244013E+02  0.94365705856E+01  0.48272920689E+02  0.00000000000E+00 0.  1.
         11    1    1    2    0    0 -0.35377103292E+02  0.16833915351E+01  0.49000789857E+02  0.60460322948E+02  0.00000000000E+00 0. -1.
<mgrwt>
<rscale>  0 0.11726678E+03</rscale>
<asrwt>0</asrwt>
<pdfrwt beam="1">  1        2 0.21125848E-01 0.12728717E+03</pdfrwt>
<pdfrwt beam="2">  1       -2 0.15466222E-01 0.12728717E+03</pdfrwt>
<totfact> 0.79744021E+03</totfact>
</mgrwt>
</event>
<event>
 7    1  0.6387485E-006  0.1291214E+03  0.7546771E-02  0.1243431E+00
         -2   -1    0    0    0  501 -0.00000000000E+00  0.00000000000E+00  0.12866460877E+03  0.12866460877E+03  0.00000000000E+00 0.  1.
          2   -1    0    0  501    0  0.00000000000E+00 -0.00000000000E+00 -0.10388319359E+03  0.10388319359E+03  0.00000000000E+00 0. -1.
         23    2    1    2    0    0  0.31506449437E+02  0.74394189507E+01  0.41069421355E+02  0.13549548665E+03  0.12499731286E+03 0.  0.
          5    1    3    3  502    0  0.18439936160E+02 -0.34766790719E+02 -0.31348854547E+02  0.50533173895E+02  0.47000000000E+01 0.  1.
         -5    1    3    3    0  502  0.13066513277E+02  0.42206209669E+02  0.72418275902E+02  0.84962312754E+02  0.47000000000E+01 0.  1.
        -11    1    1    2    0    0 -0.69274444740E+01 -0.47384124682E+02 -0.16355532913E+01  0.47915757255E+02  0.00000000000E+00 0. -1.
         11    1    1    2    0    0 -0.24579004963E+02  0.39944705731E+02 -0.14652452885E+02  0.49136558452E+02  0.00000000000E+00 0.  1.
<mgrwt>
<rscale>  0 0.11979787E+03</rscale>
<asrwt>0</asrwt>
<pdfrwt beam="2">  1        2 0.15982030E-01 0.12912138E+03</pdfrwt>
<pdfrwt beam="1">  1       -2 0.19794555E-01 0.12912138E+03</pdfrwt>
<totfact> 0.72836197E+03</totfact>
</mgrwt>
</event>
<event>
 7    1  0.6387485E-006  0.1247891E+03  0.7546771E-02  0.1247059E+00
          1   -1    0    0  501    0  0.00000000000E+00  0.00000000000E+00  0.53045574005E+03  0.53045574005E+03  0.00000000000E+00 0. -1.
         -1   -1    0    0    0  501 -0.00000000000E+00 -0.00000000000E+00 -0.40107620143E+02  0.40107620143E+02  0.00000000000E+00 0.  1.
         23    2    1    2    0    0 -0.20946463388E+02  0.23285745673E+02  0.79257459970E+02  0.14783124382E+03  0.12079466631E+03 0.  0.
          5    1    3    3  502    0  0.12281296869E+02 -0.31386698561E+02  0.76378443644E+02  0.83616456232E+02  0.47000000000E+01 0. -1.
         -5    1    3    3    0  502 -0.33227760257E+02  0.54672444234E+02  0.28790163268E+01  0.64214787590E+02  0.47000000000E+01 0.  1.
        -11    1    1    2    0    0 -0.19864083598E+02  0.25949371619E+02  0.10244724571E+03  0.10753320351E+03  0.00000000000E+00 0.  1.
         11    1    1    2    0    0  0.40810546986E+02 -0.49235117292E+02  0.30864341423E+03  0.31519891286E+03  0.00000000000E+00 0. -1.
<mgrwt>
<rscale>  0 0.11762991E+03</rscale>
<asrwt>0</asrwt>
<pdfrwt beam="1">  1        1 0.81608570E-01 0.12478915E+03</pdfrwt>
<pdfrwt beam="2">  1       -1 0.61704035E-02 0.12478915E+03</pdfrwt>
<totfact> 0.51262572E+03</totfact>
</mgrwt>
</event>
<event>
 6    1  0.6387485E-006  0.1536466E+03  0.7546771E-02  0.1216624E+00
         -2   -1    0    0    0  501 -0.00000000000E+00  0.00000000000E+00  0.68177603319E+02  0.68177603319E+02  0.00000000000E+00 0.  1.
          2   -1    0    0  501    0  0.00000000000E+00 -0.00000000000E+00 -0.23903495043E+03  0.23903495043E+03  0.00000000000E+00 0. -1.
          5    1    1    2  502    0 -0.54922746384E+02 -0.40623696096E+02 -0.82660031182E+02  0.10733854624E+03  0.47000000000E+01 0. -1.
         -5    1    1    2    0  502  0.23992368417E+02  0.61681792928E+02  0.16204172375E+01  0.66370121841E+02  0.47000000000E+01 0.  1.
        -11    1    1    2    0    0  0.27244909699E+02 -0.53385007996E+02 -0.79111078849E+02  0.99251231629E+02  0.00000000000E+00 0.  1.
         11    1    1    2    0    0  0.36854682670E+01  0.32326911164E+02 -0.10706654316E+02  0.34252654034E+02  0.00000000000E+00 0. -1.
<mgrwt>
<rscale>  0 0.13757882E+03</rscale>
<asrwt>0</asrwt>
<pdfrwt beam="2">  1        2 0.36774608E-01 0.15364662E+03</pdfrwt>
<pdfrwt beam="1">  1       -2 0.10488862E-01 0.15364662E+03</pdfrwt>
<totfact> 0.82339846E+03</totfact>
</mgrwt>
</event>
<event>
 7    1  0.6387485E-006  0.1295749E+03  0.7546771E-02  0.1241619E+00
          2   -1    0    0  501    0  0.00000000000E+00  0.00000000000E+00  0.35438889374E+03  0.35438889374E+03  0.00000000000E+00 0. -1.
         -2   -1    0    0    0  501 -0.00000000000E+00 -0.00000000000E+00 -0.36716674120E+02  0.36716674120E+02  0.00000000000E+00 0.  1.
         23    2    1    2    0    0 -0.32179329443E+02  0.11331278551E+02  0.16981252013E+03  0.21360232567E+03  0.12500301766E+03 0.  0.
          5    1    3    3  502    0  0.12271152013E+02  0.54203981900E+02  0.36641821185E+02  0.66733543929E+02  0.47000000000E+01 0.  1.
         -5    1    3    3    0  502 -0.44450481455E+02 -0.42872703348E+02  0.13317069894E+03  0.14686878174E+03  0.47000000000E+01 0.  1.
        -11    1    1    2    0    0  0.55996440456E+02 -0.31807604177E+02  0.79791646323E+02  0.10253795322E+03  0.00000000000E+00 0.  1.
         11    1    1    2    0    0 -0.23817111014E+02  0.20476325626E+02  0.68068053164E+02  0.74965288966E+02  0.00000000000E+00 0. -1.
<mgrwt>
<rscale>  0 0.12090047E+03</rscale>
<asrwt>0</asrwt>
<pdfrwt beam="1">  1        2 0.54521366E-01 0.12957493E+03</pdfrwt>
<pdfrwt beam="2">  1       -2 0.56487193E-02 0.12957493E+03</pdfrwt>
<totfact> 0.13899408E+04</totfact>
</mgrwt>
</event>
<event>
 7    1  0.6387485E-006  0.1527396E+03  0.7546771E-02  0.1205107E+00
          2   -1    0    0  501    0  0.00000000000E+00  0.00000000000E+00  0.67053447772E+03  0.67053447772E+03  0.00000000000E+00 0.  1.
         -2   -1    0    0    0  501 -0.00000000000E+00 -0.00000000000E+00 -0.29837163073E+02  0.29837163073E+02  0.00000000000E+00 0. -1.
         23    2    1    2    0    0 -0.70415189526E+02  0.52393835623E+02  0.31030140164E+03  0.34585596600E+03  0.12500390568E+03 0.  0.
          5    1    3    3  502    0 -0.75772917356E+02  0.44880380654E+02  0.92487361054E+02  0.12779587445E+03  0.47000000000E+01 0.  1.
         -5    1    3    3    0  502  0.53577278300E+01  0.75134549696E+01  0.21781404058E+03  0.21806009155E+03  0.47000000000E+01 0.  1.
        -11    1    1    2    0    0 -0.22413731760E+01 -0.24796757338E+02  0.13691536805E+02  0.28414100518E+02  0.00000000000E+00 0. -1.
         11    1    1    2    0    0  0.72656562702E+02 -0.27597078286E+02  0.31670437621E+03  0.32610157427E+03  0.00000000000E+00 0.  1.
<mgrwt>
<rscale>  0 0.14629002E+03</rscale>
<asrwt>0</asrwt>
<pdfrwt beam="1">  1        2 0.10315914E+00 0.15273961E+03</pdfrwt>
<pdfrwt beam="2">  1       -2 0.45903333E-02 0.15273961E+03</pdfrwt>
<totfact> 0.95113737E+03</totfact>
</mgrwt>
</event>
<event>
 7    1  0.6387485E-006  0.1382934E+03  0.7546771E-02  0.1226999E+00
         -2   -1    0    0    0  501 -0.00000000000E+00  0.00000000000E+00  0.18279313215E+03  0.18279313215E+03  0.00000000000E+00 0.  1.
          2   -1    0    0  501    0  0.00000000000E+00 -0.00000000000E+00 -0.93697804104E+02  0.93697804104E+02  0.00000000000E+00 0. -1.
         23    2    1    2    0    0 -0.20308061805E+02  0.55565561367E+02  0.94247863674E+02  0.16735505828E+03  0.12500042696E+03 0.  0.
          5    1    3    3  502    0  0.26418601579E+02  0.38596423703E+02  0.10608818994E+03  0.11603628949E+03  0.47000000000E+01 0.  1.
         -5    1    3    3    0  502 -0.46726663384E+02  0.16969137665E+02 -0.11840326271E+02  0.51318768792E+02  0.47000000000E+01 0.  1.
        -11    1    1    2    0    0 -0.14072115102E+02 -0.58979243806E+01 -0.37592086118E+02  0.40570615895E+02  0.00000000000E+00 0. -1.
         11    1    1    2    0    0  0.34380176907E+02 -0.49667636987E+02  0.32439550487E+02  0.68565262078E+02  0.00000000000E+00 0.  1.
<mgrwt>
<rscale>  0 0.13030821E+03</rscale>
<asrwt>0</asrwt>
<pdfrwt beam="2">  1        2 0.14415047E-01 0.13829337E+03</pdfrwt>
<pdfrwt beam="1">  1       -2 0.28122020E-01 0.13829337E+03</pdfrwt>
<totfact> 0.44945960E+03</totfact>
</mgrwt>
</event>
<event>
 7    1  0.6387485E-006  0.1335438E+03  0.7546771E-02  0.1235495E+00
          2   -1    0    0  501    0  0.00000000000E+00  0.00000000000E+00  0.14442348722E+03  0.14442348722E+03  0.00000000000E+00 0. -1.
         -2   -1    0    0    0  501 -0.00000000000E+00 -0.00000000000E+00 -0.16547527936E+03  0.16547527936E+03  0.00000000000E+00 0.  1.
         23    2    1    2    0    0 -0.18724777432E+02  0.43100406340E+02 -0.11141075214E+03  0.17391465489E+03  0.12500275667E+03 0.  0.
          5    1    3    3  502    0 -0.59153429130E+02  0.64558874961E+01 -0.10223520727E+03  0.11838468763E+03  0.47000000000E+01 0.  1.
         -5    1    3    3    0  502  0.40428651698E+02  0.36644518844E+02 -0.91755448748E+01  0.55529967254E+02  0.47000000000E+01 0.  1.
        -11    1    1    2    0    0 -0.41872090283E+01 -0.59323159991E+02  0.24367472300E+02  0.64269306337E+02  0.00000000000E+00 0.  1.
         11    1    1    2    0    0  0.22911986460E+02  0.16222753651E+02  0.65991487699E+02  0.71714805363E+02  0.00000000000E+00 0. -1.
<mgrwt>
<rscale>  0 0.12472809E+03</rscale>
<asrwt>0</asrwt>
<pdfrwt beam="1">  1        2 0.22218998E-01 0.13354382E+03</pdfrwt>
<pdfrwt beam="2">  1       -2 0.25457735E-01 0.13354382E+03</pdfrwt>
<totfact> 0.32562751E+03</totfact>
</mgrwt>
</event>
<event>
 6    1  0.6387485E-006  0.1587952E+03  0.7546771E-02  0.1202841E+00
          2   -1    0    0  501    0  0.00000000000E+00  0.00000000000E+00  0.64622287325E+03  0.64622287325E+03  0.00000000000E+00 0. -1.
         -2   -1    0    0    0  501 -0.00000000000E+00 -0.00000000000E+00 -0.30293713092E+02  0.30293713092E+02  0.00000000000E+00 0.  1.
          5    1    1    2  502    0  0.12534363312E+02  0.79070253942E+02  0.29307413171E+03  0.30384823844E+03  0.47000000000E+01 0. -1.
         -5    1    1    2    0  502  0.42110056264E+02 -0.21430680465E+02  0.30066779741E+02  0.56201709474E+02  0.47000000000E+01 0.  1.
        -11    1    1    2    0    0 -0.34454465185E+02  0.12508831233E+02  0.16750758001E+03  0.17147119406E+03  0.00000000000E+00 0. -1.
         11    1    1    2    0    0 -0.20189954391E+02 -0.70148404709E+02  0.12528066869E+03  0.14499544438E+03  0.00000000000E+00 0.  1.
<mgrwt>
<rscale>  0 0.14808870E+03</rscale>
<asrwt>0</asrwt>
<pdfrwt beam="1">  1        2 0.99418893E-01 0.15879520E+03</pdfrwt>
<pdfrwt beam="2">  1       -2 0.46605717E-02 0.15879520E+03</pdfrwt>
<totfact> 0.97314309E+03</totfact>
</mgrwt>
</event>
<event>
 7    1  0.6387485E-006  0.1340965E+03  0.7546771E-02  0.1234512E+00
         -1   -1    0    0    0  501 -0.00000000000E+00  0.00000000000E+00  0.61158085044E+02  0.61158085044E+02  0.00000000000E+00 0.  1.
          1   -1    0    0  501    0  0.00000000000E+00 -0.00000000000E+00 -0.22870354354E+03  0.22870354354E+03  0.00000000000E+00 0. -1.
         23    2    1    2    0    0  0.43431374301E+02 -0.21701694609E+02 -0.97135541527E+02  0.16558134247E+03  0.12499847889E+03 0.  0.
          5    1    3    3  502    0 -0.19275152150E+01 -0.64045837180E+02 -0.21749461408E+02  0.67828560699E+02  0.47000000000E+01 0.  1.
         -5    1    3    3    0  502  0.45358889516E+02  0.42344142571E+02 -0.75386080119E+02  0.97752781771E+02  0.47000000000E+01 0.  1.
        -11    1    1    2    0    0 -0.37162783149E+02 -0.11765969611E+01  0.11567905044E+02  0.38939353602E+02  0.00000000000E+00 0.  1.
         11    1    1    2    0    0 -0.62685911513E+01  0.22878291570E+02 -0.81977822017E+02  0.85340932517E+02  0.00000000000E+00 0. -1.
<mgrwt>
<rscale>  0 0.12535735E+03</rscale>
<asrwt>0</asrwt>
<pdfrwt beam="2">  1        1 0.35185161E-01 0.13409649E+03</pdfrwt>
<pdfrwt beam="1">  1       -1 0.94089361E-02 0.13409649E+03</pdfrwt>
<totfact> 0.78497009E+03</totfact>
</mgrwt>
</event>
<event>
 7    1  0.6387485E-006  0.1311306E+03  0.7546771E-02  0.1240191E+00
         -1   -1    0    0    0  501 -0.00000000000E+00  0.00000000000E+00  0.26077229267E+03  0.26077229267E+03  0.00000000000E+00 0.  1.
          1   -1    0    0  501    0  0.00000000000E+00 -0.00000000000E+00 -0.77375734552E+02  0.77375734552E+02  0.00000000000E+00 0. -1.
         23    2    1    2    0    0 -0.35117963776E+02  0.18382419237E+02  0.20005198863E+03  0.23919874843E+03  0.12499623346E+03 0.  0.
          5    1    3    3  502    0 -0.72642291685E+02  0.31408143726E+02  0.79877664896E+02  0.11254290463E+03  0.47000000000E+01 0. -1.
         -5    1    3    3    0  502  0.37524327909E+02 -0.13025724489E+02  0.12017432373E+03  0.12665584380E+03  0.47000000000E+01 0. -1.
        -11    1    1    2    0    0  0.55644017581E+02 -0.39318004411E+02 -0.97463997818E+01  0.68826989417E+02  0.00000000000E+00 0.  1.
         11    1    1    2    0    0 -0.20526053805E+02  0.20935585174E+02 -0.69090307323E+01  0.30122289373E+02  0.00000000000E+00 0. -1.
<mgrwt>
<rscale>  0 0.12177860E+03</rscale>
<asrwt>0</asrwt>
<pdfrwt beam="2">  1        1 0.11903959E-01 0.13113063E+03</pdfrwt>
<pdfrwt beam="1">  1       -1 0.40118814E-01 0.13113063E+03</pdfrwt>
<totfact> 0.29989352E+03</totfact>
</mgrwt>
</event>
<event>
 6    1  0.6387485E-006  0.1896344E+03  0.7546771E-02  0.1188835E+00
          1   -1    0    0  501    0  0.00000000000E+00  0.00000000000E+00  0.23912743590E+02  0.23912743590E+02  0.00000000000E+00 0. -1.
         -1   -1    0    0    0  501 -0.00000000000E+00 -0.00000000000E+00 -0.97445182967E+03  0.97445182967E+03  0.00000000000E+00 0.  1.
          5    1    1    2  502    0  0.70501831546E+02 -0.38251660983E+02 -0.34216414817E+03  0.35147132473E+03  0.47000000000E+01 0. -1.
         -5    1    1    2    0  502 -0.91889820328E+02  0.58828391605E+02 -0.43818961685E+03  0.45159356623E+03  0.47000000000E+01 0.  1.
        -11    1    1    2    0    0  0.25049947093E+02  0.27256485345E+02 -0.31688683009E+02  0.48729749369E+02  0.00000000000E+00 0. -1.
         11    1    1    2    0    0 -0.36619583107E+01 -0.47833215966E+02 -0.13849663805E+03  0.14656993293E+03  0.00000000000E+00 0.  1.
<mgrwt>
<rscale>  0 0.15987732E+03</rscale>
<asrwt>0</asrwt>
<pdfrwt beam="1">  1        1 0.36788848E-02 0.18963444E+03</pdfrwt>
<pdfrwt beam="2">  1       -1 0.14991562E+00 0.18963444E+03</pdfrwt>
<totfact> 0.96045400E+02</totfact>
</mgrwt>
</event>
<event>
 7    1  0.6387485E-006  0.1307534E+03  0.7546771E-02  0.1238903E+00
          2   -1    0    0  501    0  0.00000000000E+00  0.00000000000E+00  0.23990060233E+03  0.23990060233E+03  0.00000000000E+00 0. -1.
         -2   -1    0    0    0  501 -0.00000000000E+00 -0.00000000000E+00 -0.94710831666E+02  0.94710831666E+02  0.00000000000E+00 0.  1.
         23    2    1    2    0    0 -0.46819818882E+01  0.38077138995E+02 -0.28379524722E+02  0.13379781034E+03  0.12499866863E+03 0.  0.
          5    1    3    3  502    0  0.50514248808E+02  0.13893933552E+02  0.20103513175E+02  0.56311383966E+02  0.47000000000E+01 0.  1.
         -5    1    3    3    0  502 -0.55196230696E+02  0.24183205443E+02 -0.48483037897E+02  0.77486426374E+02  0.47000000000E+01 0.  1.
        -11    1    1    2    0    0  0.17612391074E+02 -0.32673021063E+01 -0.48606124272E+01  0.18560634029E+02  0.00000000000E+00 0.  1.
         11    1    1    2    0    0 -0.12930409186E+02 -0.34809836889E+02  0.17842990781E+03  0.18225298963E+03  0.00000000000E+00 0. -1.
<mgrwt>
<rscale>  0 0.12257836E+03</rscale>
<asrwt>0</asrwt>
<pdfrwt beam="1">  1        2 0.36907785E-01 0.13075342E+03</pdfrwt>
<pdfrwt beam="2">  1       -2 0.14570897E-01 0.13075342E+03</pdfrwt>
<totfact> 0.47921843E+03</totfact>
</mgrwt>
</event>
<event>
 7    1  0.6387485E-006  0.2025623E+03  0.7546771E-02  0.1152201E+00
          2   -1    0    0  501    0  0.00000000000E+00  0.00000000000E+00  0.36919908601E+03  0.36919908601E+03  0.00000000000E+00 0.  1.
         -2   -1    0    0    0  501 -0.00000000000E+00 -0.00000000000E+00 -0.11838569093E+03  0.11838569093E+03  0.00000000000E+00 0. -1.
         23    2    1    2    0    0 -0.15564976774E+03  0.34346445277E+02  0.35070220445E+02  0.20557577087E+03  0.12499979482E+03 0.  0.
          5    1    3    3  502    0 -0.48781476938E+00 -0.11999410358E+02 -0.28706501292E+02  0.31470256253E+02  0.47000000000E+01 0.  1.
         -5    1    3    3    0  502 -0.15516195298E+03  0.46345855636E+02  0.63776721737E+02  0.17410551462E+03  0.47000000000E+01 0.  1.
        -11    1    1    2    0    0  0.16184624716E+02  0.15539048047E+02  0.27900676960E+01  0.22609479630E+02  0.00000000000E+00 0. -1.
         11    1    1    2    0    0  0.13946514303E+03 -0.49885493324E+02  0.21295310693E+03  0.25939952644E+03  0.00000000000E+00 0.  1.
<mgrwt>
<rscale>  0 0.19710915E+03</rscale>
<asrwt>0</asrwt>
<pdfrwt beam="1">  1        2 0.56799859E-01 0.20256228E+03</pdfrwt>
<pdfrwt beam="2">  1       -2 0.18213183E-01 0.20256228E+03</pdfrwt>
<totfact> 0.21297300E+03</totfact>
</mgrwt>
</event>
<event>
 7    1  0.6387485E-006  0.1696652E+03  0.7546771E-02  0.1184091E+00
          2   -1    0    0  501    0  0.00000000000E+00  0.00000000000E+00  0.46125695219E+03  0.46125695219E+03  0.00000000000E+00 0. -1.
         -2   -1    0    0    0  501 -0.00000000000E+00 -0.00000000000E+00 -0.84801712160E+02  0.84801712160E+02  0.00000000000E+00 0.  1.
         23    2    1    2    0    0 -0.85829570318E+02  0.76112589829E+02  0.34425483956E+02  0.17312243737E+03  0.12500569148E+03 0.  0.
          5    1    3    3  502    0  0.30030917002E+02  0.25449843002E+02 -0.64046635104E+01  0.40157940678E+02  0.47000000000E+01 0. -1.
         -5    1    3    3    0  502 -0.11586048732E+03  0.50662746827E+02  0.40830147466E+02  0.13296449669E+03  0.47000000000E+01 0. -1.
        -11    1    1    2    0    0  0.76513011408E+01 -0.44159990061E+02  0.42636514383E+02  0.61858867514E+02  0.00000000000E+00 0.  1.
         11    1    1    2    0    0  0.78178269177E+02 -0.31952599768E+02  0.29939324169E+03  0.31107735947E+03  0.00000000000E+00 0. -1.
<mgrwt>
<rscale>  0 0.16414828E+03</rscale>
<asrwt>0</asrwt>
<pdfrwt beam="1">  1        2 0.70962607E-01 0.16966515E+03</pdfrwt>
<pdfrwt beam="2">  1       -2 0.13046417E-01 0.16966515E+03</pdfrwt>
<totfact> 0.28860122E+03</totfact>
</mgrwt>
</event>
<event>
 7    1  0.6387485E-006  0.1552599E+03  0.7546771E-02  0.1199235E+00
          3   -1    0    0  501    0  0.00000000000E+00  0.00000000000E+00  0.28863321881E+03  0.28863321881E+03  0.00000000000E+00 0. -1.
         -3   -1    0    0    0  501 -0.00000000000E+00 -0.00000000000E+00 -0.78094439524E+02  0.78094439524E+02  0.00000000000E+00 0.  1.
         23    2    1    2    0    0  0.55880172234E+02  0.73217786738E+02  0.74280876071E+02  0.17211413539E+03  0.12498875592E+03 0.  0.
          5    1    3    3  502    0 -0.15291467992E+02 -0.92058044529E+01 -0.20559824062E+02  0.27629190984E+02  0.47000000000E+01 0. -1.
         -5    1    3    3    0  502  0.71171640226E+02  0.82423591191E+02  0.94840700133E+02  0.14448494440E+03  0.47000000000E+01 0. -1.
        -11    1    1    2    0    0 -0.79057083406E+02 -0.68339660111E+02  0.74127809299E+02  0.12812206559E+03  0.00000000000E+00 0.  1.
         11    1    1    2    0    0  0.23176911172E+02 -0.48781266271E+01  0.62130093911E+02  0.66491457348E+02  0.00000000000E+00 0. -1.
<mgrwt>
<rscale>  0 0.15101224E+03</rscale>
<asrwt>0</asrwt>
<pdfrwt beam="1">  1        3 0.44405110E-01 0.15525987E+03</pdfrwt>
<pdfrwt beam="2">  1       -3 0.12014529E-01 0.15525987E+03</pdfrwt>
<totfact> 0.64794789E+02</totfact>
</mgrwt>
</event>
<event>
 7    1  0.6387485E-006  0.1265336E+03  0.7546771E-02  0.1247987E+00
         -2   -1    0    0    0  501 -0.00000000000E+00  0.00000000000E+00  0.22944529813E+02  0.22944529813E+02  0.00000000000E+00 0.  1.
          2   -1    0    0  501    0  0.00000000000E+00 -0.00000000000E+00 -0.52702197903E+03  0.52702197903E+03  0.00000000000E+00 0. -1.
         23    2    1    2    0    0 -0.61573676271E+01  0.18673298966E+02 -0.27000417544E+03  0.29818285629E+03  0.12499662298E+03 0.  0.
          5    1    3    3  502    0  0.99466335061E+01  0.41607851327E+02 -0.26603274521E+03  0.26949148472E+03  0.47000000000E+01 0. -1.
         -5    1    3    3    0  502 -0.16104001133E+02 -0.22934552361E+02 -0.39714302290E+01  0.28691371570E+02  0.47000000000E+01 0. -1.
        -11    1    1    2    0    0  0.43206146603E+02 -0.17403773008E+02 -0.18198004923E+03  0.18784674801E+03  0.00000000000E+00 0.  1.
         11    1    1    2    0    0 -0.37048778976E+02 -0.12695259578E+01 -0.52093224549E+02  0.63936904552E+02  0.00000000000E+00 0. -1.
<mgrwt>
<rscale>  0 0.11708372E+03</rscale>
<asrwt>0</asrwt>
<pdfrwt beam="2">  1        2 0.81080316E-01 0.12653364E+03</pdfrwt>
<pdfrwt beam="1">  1       -2 0.35299271E-02 0.12653364E+03</pdfrwt>
<totfact> 0.18239744E+04</totfact>
</mgrwt>
</event>
<event>
 7    1  0.6387485E-006  0.2169433E+03  0.7546771E-02  0.1139450E+00
          1   -1    0    0  501    0  0.00000000000E+00  0.00000000000E+00  0.13414742977E+04  0.13414742977E+04  0.00000000000E+00 0.  1.
         -1   -1    0    0    0  501 -0.00000000000E+00 -0.00000000000E+00 -0.33696542228E+02  0.33696542228E+02  0.00000000000E+00 0. -1.
         23    2    1    2    0    0 -0.47218357106E+01 -0.17724919426E+03  0.54748589722E+03  0.58890168908E+03  0.12499927655E+03 0.  0.
          5    1    3    3  502    0 -0.40817261173E+02 -0.62126489818E+01  0.12204029030E+03  0.12892078294E+03  0.47000000000E+01 0.  1.
         -5    1    3    3    0  502  0.36095425463E+02 -0.17103654528E+03  0.42544560693E+03  0.45998090614E+03  0.47000000000E+01 0.  1.
        -11    1    1    2    0    0  0.44894928042E+02  0.10918377683E+03  0.52309473228E+03  0.53625064161E+03  0.00000000000E+00 0.  1.
         11    1    1    2    0    0 -0.40173092332E+02  0.68065417427E+02  0.23719712598E+03  0.25001850925E+03  0.00000000000E+00 0. -1.
<mgrwt>
<rscale>  0 0.21269378E+03</rscale>
<asrwt>0</asrwt>
<pdfrwt beam="1">  1        1 0.20638062E+00 0.21694329E+03</pdfrwt>
<pdfrwt beam="2">  1       -1 0.51840845E-02 0.21694329E+03</pdfrwt>
<totfact> 0.15258403E+03</totfact>
</mgrwt>
</event>
<event>
 7    1  0.6387485E-006  0.1334388E+03  0.7546771E-02  0.1234837E+00
          2   -1    0    0  501    0  0.00000000000E+00  0.00000000000E+00  0.36481094490E+03  0.36481094490E+03  0.00000000000E+00 0. -1.
         -2   -1    0    0    0  501 -0.00000000000E+00 -0.00000000000E+00 -0.48331851600E+02  0.48331851600E+02  0.00000000000E+00 0.  1.
         23    2    1    2    0    0 -0.20265581297E+02  0.42079258874E+02  0.81185698771E+02  0.15619548184E+03  0.12499821219E+03 0.  0.
          5    1    3    3  502    0  0.48067079610E+02  0.38100521159E+02  0.55759885135E+02  0.83026192524E+02  0.47000000000E+01 0. -1.
         -5    1    3    3    0  502 -0.68332660907E+02  0.39787377152E+01  0.25425813636E+02  0.73169289319E+02  0.47000000000E+01 0. -1.
        -11    1    1    2    0    0 -0.31847111137E+02  0.34485864962E+00  0.44942089360E+02  0.55083108221E+02  0.00000000000E+00 0.  1.
         11    1    1    2    0    0  0.52112692434E+02 -0.42424117523E+02  0.19035130516E+03  0.20186420643E+03  0.00000000000E+00 0. -1.
<mgrwt>
<rscale>  0 0.12514855E+03</rscale>
<asrwt>0</asrwt>
<pdfrwt beam="1">  1        2 0.56124759E-01 0.13343879E+03</pdfrwt>
<pdfrwt beam="2">  1       -2 0.74356697E-02 0.13343879E+03</pdfrwt>
<totfact> 0.88900345E+03</totfact>
</mgrwt>
</event>
<event>
 7    1  0.6387485E-006  0.1564919E+03  0.7546771E-02  0.1200455E+00
          1   -1    0    0  501    0  0.00000000000E+00  0.00000000000E+00  0.19635816930E+03  0.19635816930E+03  0.00000000000E+00 0. -1.
         -1   -1    0    0    0  501 -0.00000000000E+00 -0.00000000000E+00 -0.30400024814E+03  0.30400024814E+03  0.00000000000E+00 0.  1.
         23    2    1    2    0    0  0.86110966421E+02 -0.42851523647E+02 -0.25702202954E+03  0.30091531473E+03  0.12344371736E+03 0.  0.
          5    1    3    3  502    0 -0.89301380738E+01  0.13883956757E+02 -0.13506345997E+03  0.13614969644E+03  0.47000000000E+01 0. -1.
         -5    1    3    3    0  502  0.95041104495E+02 -0.56735480404E+02 -0.12195856957E+03  0.16476561830E+03  0.47000000000E+01 0.  1.
        -11    1    1    2    0    0  0.16911315170E+02  0.70944783012E+01  0.59821713009E+01  0.19290167874E+02  0.00000000000E+00 0.  1.
         11    1    1    2    0    0 -0.10302228159E+03  0.35757045346E+02  0.14339777939E+03  0.18015293484E+03  0.00000000000E+00 0. -1.
<mgrwt>
<rscale>  0 0.15001485E+03</rscale>
<asrwt>0</asrwt>
<pdfrwt beam="1">  1        1 0.30208949E-01 0.15649186E+03</pdfrwt>
<pdfrwt beam="2">  1       -1 0.46769269E-01 0.15649186E+03</pdfrwt>
<totfact> 0.69779009E+02</totfact>
</mgrwt>
</event>
<event>
 7    1  0.6387485E-006  0.1387649E+03  0.7546771E-02  0.1222344E+00
          1   -1    0    0  501    0  0.00000000000E+00  0.00000000000E+00  0.36957993802E+02  0.36957993802E+02  0.00000000000E+00 0. -1.
         -1   -1    0    0    0  501 -0.00000000000E+00 -0.00000000000E+00 -0.45815531990E+03  0.45815531990E+03  0.00000000000E+00 0.  1.
         23    2    1    2    0    0 -0.20543845624E+02 -0.56689601042E+02 -0.26124750982E+03  0.29581405938E+03  0.12497974189E+03 0.  0.
          5    1    3    3  502    0 -0.18329205522E+02  0.28195202950E+02 -0.16011958614E+03  0.16368048482E+03  0.47000000000E+01 0.  1.
         -5    1    3    3    0  502 -0.22146401023E+01 -0.84884803992E+02 -0.10112792368E+03  0.13213357456E+03  0.47000000000E+01 0.  1.
        -11    1    1    2    0    0 -0.14558012489E+02  0.33274866584E+02 -0.15210539783E+03  0.15638159905E+03  0.00000000000E+00 0.  1.
         11    1    1    2    0    0  0.35101858113E+02  0.23414734458E+02 -0.78444184514E+01  0.42917655267E+02  0.00000000000E+00 0. -1.
<mgrwt>
<rscale>  0 0.13350622E+03</rscale>
<asrwt>0</asrwt>
<pdfrwt beam="1">  1        1 0.56858455E-02 0.13876490E+03</pdfrwt>
<pdfrwt beam="2">  1       -1 0.70485430E-01 0.13876490E+03</pdfrwt>
<totfact> 0.28436122E+03</totfact>
</mgrwt>
</event>
<event>
 7    1  0.6387485E-006  0.1276818E+03  0.7546771E-02  0.1246009E+00
          1   -1    0    0  501    0  0.00000000000E+00  0.00000000000E+00  0.47138364289E+03  0.47138364289E+03  0.00000000000E+00 0. -1.
         -1   -1    0    0    0  501 -0.00000000000E+00 -0.00000000000E+00 -0.27219982723E+02  0.27219982723E+02  0.00000000000E+00 0.  1.
         23    2    1    2    0    0  0.21894899645E+02  0.14070869582E+02  0.20329866317E+03  0.24006872787E+03  0.12500108660E+03 0.  0.
          5    1    3    3  502    0 -0.19024202969E+02 -0.11460303233E+02  0.18783516709E+03  0.18920200540E+03  0.47000000000E+01 0. -1.
         -5    1    3    3    0  502  0.40919102613E+02  0.25531172816E+02  0.15463496081E+02  0.50866722472E+02  0.47000000000E+01 0. -1.
        -11    1    1    2    0    0 -0.30135503698E+01 -0.42280633834E+02  0.20426383719E+03  0.20861555231E+03  0.00000000000E+00 0. -1.
         11    1    1    2    0    0 -0.18881349275E+02  0.28209764251E+02  0.36601159806E+02  0.49919345435E+02  0.00000000000E+00 0.  1.
<mgrwt>
<rscale>  0 0.11825163E+03</rscale>
<asrwt>0</asrwt>
<pdfrwt beam="1">  1        1 0.72520554E-01 0.12768182E+03</pdfrwt>
<pdfrwt beam="2">  1       -1 0.41876900E-02 0.12768182E+03</pdfrwt>
<totfact> 0.10614166E+04</totfact>
</mgrwt>
</event>
<event>
 7    1  0.6387485E-006  0.1483431E+03  0.7546771E-02  0.1212532E+00
         -4   -1    0    0    0  501 -0.00000000000E+00  0.00000000000E+00  0.95458655899E+02  0.95458655899E+02  0.00000000000E+00 0.  1.
          4   -1    0    0  501    0  0.00000000000E+00 -0.00000000000E+00 -0.18845535127E+03  0.18845535127E+03  0.00000000000E+00 0. -1.
         23    2    1    2    0    0  0.19702669417E+02 -0.77432389099E+02 -0.45776655830E+02  0.15524554158E+03  0.12498682289E+03 0.  0.
          5    1    3    3  502    0  0.19206594551E+02 -0.11057669139E+03 -0.46944715211E+02  0.12174561281E+03  0.47000000000E+01 0.  1.
         -5    1    3    3    0  502  0.49607486660E+00  0.33144302289E+02  0.11680593816E+01  0.33499928765E+02  0.47000000000E+01 0.  1.
        -11    1    1    2    0    0 -0.54676087020E+02  0.42059944273E+02 -0.19324278154E+02  0.71637567869E+02  0.00000000000E+00 0.  1.
         11    1    1    2    0    0  0.34973417602E+02  0.35372444825E+02 -0.27895761387E+02  0.57030897723E+02  0.00000000000E+00 0. -1.
<mgrwt>
<rscale>  0 0.14059360E+03</rscale>
<asrwt>0</asrwt>
<pdfrwt beam="2">  1        4 0.28993131E-01 0.14834310E+03</pdfrwt>
<pdfrwt beam="1">  1       -4 0.14685947E-01 0.14834310E+03</pdfrwt>
<totfact> 0.74726674E+02</totfact>
</mgrwt>
</event>
<event>
 7    1  0.6387485E-006  0.1401191E+03  0.7546771E-02  0.1224665E+00
          2   -1    0    0  501    0  0.00000000000E+00  0.00000000000E+00  0.36896383970E+02  0.36896383970E+02  0.00000000000E+00 0. -1.
         -2   -1    0    0    0  501 -0.00000000000E+00 -0.00000000000E+00 -0.42855181983E+03  0.42855181983E+03  0.00000000000E+00 0.  1.
         23    2    1    2    0    0  0.58129200318E+02 -0.25167762437E+02 -0.24305825294E+03  0.28055421515E+03  0.12498373142E+03 0.  0.
          5    1    3    3  502    0  0.94038187379E+02 -0.35672095560E+02 -0.19508012426E+03  0.21953137354E+03  0.47000000000E+01 0.  1.
         -5    1    3    3    0  502 -0.35908987061E+02  0.10504333123E+02 -0.47978128678E+02  0.61022841605E+02  0.47000000000E+01 0.  1.
        -11    1    1    2    0    0  0.85002988452E+01  0.33784303266E+02 -0.20965157063E+02  0.40659218368E+02  0.00000000000E+00 0. -1.
         11    1    1    2    0    0 -0.66629499164E+02 -0.86165408291E+01 -0.12763202585E+03  0.14423477028E+03  0.00000000000E+00 0.  1.
<mgrwt>
<rscale>  0 0.13189916E+03</rscale>
<asrwt>0</asrwt>
<pdfrwt beam="1">  1        2 0.56763667E-02 0.14011907E+03</pdfrwt>
<pdfrwt beam="2">  1       -2 0.65931049E-01 0.14011907E+03</pdfrwt>
<totfact> 0.27649006E+03</totfact>
</mgrwt>
</event>
<event>
 6    1  0.6387485E-006  0.1449535E+03  0.7546771E-02  0.1222526E+00
          4   -1    0    0  501    0  0.00000000000E+00  0.00000000000E+00  0.19099292942E+03  0.19099292942E+03  0.00000000000E+00 0. -1.
         -4   -1    0    0    0  501 -0.00000000000E+00 -0.00000000000E+00 -0.17502884372E+03  0.17502884372E+03  0.00000000000E+00 0.  1.
          5    1    1    2  502    0  0.25787394871E+02 -0.31396154985E+02  0.20009604316E+02  0.45532214386E+02  0.47000000000E+01 0. -1.
         -5    1    1    2    0  502  0.15673445256E+02  0.43129948135E+01 -0.14465987723E+03  0.14564624571E+03  0.47000000000E+01 0.  1.
        -11    1    1    2    0    0  0.14121505696E+02 -0.17921321601E+02  0.72777565718E+02  0.76270339994E+02  0.00000000000E+00 0.  1.
         11    1    1    2    0    0 -0.55582345823E+02  0.45004481772E+02  0.67836792886E+02  0.98572973050E+02  0.00000000000E+00 0. -1.
<mgrwt>
<rscale>  0 0.13337927E+03</rscale>
<asrwt>0</asrwt>
<pdfrwt beam="1">  1        4 0.29383528E-01 0.14495349E+03</pdfrwt>
<pdfrwt beam="2">  1       -4 0.26927514E-01 0.14495349E+03</pdfrwt>
<totfact> 0.24328213E+02</totfact>
</mgrwt>
</event>
<event>
 7    1  0.6387485E-006  0.1337448E+03  0.7546771E-02  0.1236707E+00
          2   -1    0    0  501    0  0.00000000000E+00  0.00000000000E+00  0.10766154743E+03  0.10766154743E+03  0.00000000000E+00 0. -1.
         -2   -1    0    0    0  501 -0.00000000000E+00 -0.00000000000E+00 -0.12549105423E+03  0.12549105423E+03  0.00000000000E+00 0.  1.
         23    2    1    2    0    0 -0.34991590359E+02 -0.32231125679E+02 -0.82285720814E+01  0.13399771699E+03  0.12499768758E+03 0.  0.
          5    1    3    3  502    0 -0.56692549703E+01 -0.59654474950E+02  0.39139235724E+02  0.71727028424E+02  0.47000000000E+01 0. -1.
         -5    1    3    3    0  502 -0.29322335389E+02  0.27423349271E+02 -0.47367807806E+02  0.62270688564E+02  0.47000000000E+01 0. -1.
        -11    1    1    2    0    0  0.10096682738E+01  0.36272651017E+02  0.29808944297E+02  0.46960598398E+02  0.00000000000E+00 0. -1.
         11    1    1    2    0    0  0.33981922085E+02 -0.40415253372E+01 -0.39409879012E+02  0.52194286271E+02  0.00000000000E+00 0.  1.
<mgrwt>
<rscale>  0 0.12395810E+03</rscale>
<asrwt>0</asrwt>
<pdfrwt beam="1">  1        2 0.16563315E-01 0.13374483E+03</pdfrwt>
<pdfrwt beam="2">  1       -2 0.19306316E-01 0.13374483E+03</pdfrwt>
<totfact> 0.73084896E+03</totfact>
</mgrwt>
</event>
<event>
 7    1  0.6387485E-006  0.1480793E+03  0.7546771E-02  0.1212035E+00
          1   -1    0    0  501    0  0.00000000000E+00  0.00000000000E+00  0.40260254256E+02  0.40260254256E+02  0.00000000000E+00 0. -1.
         -1   -1    0    0    0  501 -0.00000000000E+00 -0.00000000000E+00 -0.59943893117E+03  0.59943893117E+03  0.00000000000E+00 0.  1.
         23    2    1    2    0    0  0.13237027555E+02  0.78278213353E+02 -0.45850555691E+03  0.48182448679E+03  0.12499917105E+03 0.  0.
          5    1    3    3  502    0 -0.18833346457E+02 -0.18931876750E+02 -0.26799933605E+02  0.38123973262E+02  0.47000000000E+01 0.  1.
         -5    1    3    3    0  502  0.32070374012E+02  0.97210090103E+02 -0.43170562331E+03  0.44370051352E+03  0.47000000000E+01 0.  1.
        -11    1    1    2    0    0 -0.29779591315E+02 -0.37539830428E+02 -0.10325319645E+03  0.11383007293E+03  0.00000000000E+00 0.  1.
         11    1    1    2    0    0  0.16542563760E+02 -0.40738382925E+02  0.25800764447E+01  0.44044625706E+02  0.00000000000E+00 0. -1.
<mgrwt>
<rscale>  0 0.14096603E+03</rscale>
<asrwt>0</asrwt>
<pdfrwt beam="1">  1        1 0.61938850E-02 0.14807934E+03</pdfrwt>
<pdfrwt beam="2">  1       -1 0.92221378E-01 0.14807934E+03</pdfrwt>
<totfact> 0.14606958E+03</totfact>
</mgrwt>
</event>
<event>
 7    1  0.6387485E-006  0.2035809E+03  0.7546771E-02  0.1150565E+00
          3   -1    0    0  501    0  0.00000000000E+00  0.00000000000E+00  0.46879092142E+03  0.46879092142E+03  0.00000000000E+00 0. -1.
         -3   -1    0    0    0  501 -0.00000000000E+00 -0.00000000000E+00 -0.87831180148E+02  0.87831180148E+02  0.00000000000E+00 0.  1.
         23    2    1    2    0    0 -0.88310738200E+02 -0.13422697667E+03  0.12043144835E+03  0.23653523520E+03  0.12501806267E+03 0.  0.
          5    1    3    3  502    0 -0.51517356316E+02 -0.59276654855E+02  0.13042142003E+03  0.15231413793E+03  0.47000000000E+01 0.  1.
         -5    1    3    3    0  502 -0.36793381884E+02 -0.74950321815E+02 -0.99899716822E+01  0.84221097267E+02  0.47000000000E+01 0.  1.
        -11    1    1    2    0    0  0.89446969308E+02  0.74222999507E+02  0.11893045287E+03  0.16629572031E+03  0.00000000000E+00 0.  1.
         11    1    1    2    0    0 -0.11362311079E+01  0.60003977163E+02  0.14159784006E+03  0.15379114606E+03  0.00000000000E+00 0. -1.
<mgrwt>
<rscale>  0 0.19902465E+03</rscale>
<asrwt>0</asrwt>
<pdfrwt beam="1">  1        3 0.72121679E-01 0.20358090E+03</pdfrwt>
<pdfrwt beam="2">  1       -3 0.13512490E-01 0.20358090E+03</pdfrwt>
<totfact> 0.20301392E+02</totfact>
</mgrwt>
</event>
<event>
 6    1  0.6387485E-006  0.2971198E+03  0.7546771E-02  0.1104789E+00
          2   -1    0    0  501    0  0.00000000000E+00  0.00000000000E+00  0.24768909898E+03  0.24768909898E+03  0.00000000000E+00 0. -1.
         -2   -1    0    0    0  501 -0.00000000000E+00 -0.00000000000E+00 -0.65161555980E+03  0.65161555980E+03  0.00000000000E+00 0.  1.
          5    1    1    2  502    0  0.35279546693E+02  0.39021711189E+02 -0.29198046675E+03  0.29671876133E+03  0.47000000000E+01 0. -1.
         -5    1    1    2    0  502 -0.18741842263E+03 -0.87242935145E+02 -0.28305159701E+03  0.35053857340E+03  0.47000000000E+01 0.  1.
        -11    1    1    2    0    0  0.14115821713E+03  0.12850923652E+02  0.15917572655E+03  0.21313774988E+03  0.00000000000E+00 0. -1.
         11    1    1    2    0    0  0.10980658810E+02  0.35370300304E+02  0.11929876396E+02  0.38909574172E+02  0.00000000000E+00 0.  1.
<mgrwt>
<rscale>  0 0.26395654E+03</rscale>
<asrwt>0</asrwt>
<pdfrwt beam="1">  1        2 0.38106015E-01 0.29711981E+03</pdfrwt>
<pdfrwt beam="2">  1       -2 0.10024855E+00 0.29711981E+03</pdfrwt>
<totfact> 0.11552503E+02</totfact>
</mgrwt>
</event>
<event>
 7    1  0.6387485E-006  0.1255789E+03  0.7546771E-02  0.1250551E+00
         -2   -1    0    0    0  501 -0.00000000000E+00  0.00000000000E+00  0.46412017090E+02  0.46412017090E+02  0.00000000000E+00 0.  1.
          2   -1    0    0  501    0  0.00000000000E+00 -0.00000000000E+00 -0.25172224445E+03  0.25172224445E+03  0.00000000000E+00 0. -1.
         23    2    1    2    0    0 -0.83733837240E+01  0.85352579571E+01 -0.10999294041E+03  0.16693863311E+03  0.12500838413E+03 0.  0.
          5    1    3    3  502    0 -0.20842948779E+02  0.41776927704E+02 -0.12074825276E+03  0.12954524594E+03  0.47000000000E+01 0. -1.
         -5    1    3    3    0  502  0.12469565055E+02 -0.33241669746E+02  0.10755312350E+02  0.37393387169E+02  0.47000000000E+01 0. -1.
        -11    1    1    2    0    0  0.27733102162E+02  0.33709962993E+02 -0.44549273600E+02  0.62370861296E+02  0.00000000000E+00 0. -1.
         11    1    1    2    0    0 -0.19359718438E+02 -0.42245220950E+02 -0.50768013345E+02  0.68824767127E+02  0.00000000000E+00 0.  1.
<mgrwt>
<rscale>  0 0.11559211E+03</rscale>
<asrwt>0</asrwt>
<pdfrwt beam="2">  1        2 0.38726499E-01 0.12557890E+03</pdfrwt>
<pdfrwt beam="1">  1       -2 0.71403103E-02 0.12557890E+03</pdfrwt>
<totfact> 0.13947521E+04</totfact>
</mgrwt>
</event>
<event>
 7    1  0.6387485E-006  0.1568634E+03  0.7546771E-02  0.1205096E+00
          2   -1    0    0  501    0  0.00000000000E+00  0.00000000000E+00  0.17098518952E+02  0.17098518952E+02  0.00000000000E+00 0. -1.
         -2   -1    0    0    0  501 -0.00000000000E+00 -0.00000000000E+00 -0.11241317067E+04  0.11241317067E+04  0.00000000000E+00 0.  1.
         23    2    1    2    0    0 -0.90998810814E+02  0.26446035766E+02 -0.69227489627E+03  0.70982438465E+03  0.12500379454E+03 0.  0.
          5    1    3    3  502    0 -0.11509692409E+03  0.30005255172E+02 -0.64998121925E+03  0.66079141388E+03  0.47000000000E+01 0. -1.
         -5    1    3    3    0  502  0.24098113279E+02 -0.35592194060E+01 -0.42293677022E+02  0.49032970769E+02  0.47000000000E+01 0. -1.
        -11    1    1    2    0    0  0.78452563415E+02 -0.43210627042E+02 -0.38323316417E+03  0.39356018742E+03  0.00000000000E+00 0.  1.
         11    1    1    2    0    0  0.12546247399E+02  0.16764591276E+02 -0.31525127306E+02  0.37845653596E+02  0.00000000000E+00 0. -1.
<mgrwt>
<rscale>  0 0.14629916E+03</rscale>
<asrwt>0</asrwt>
<pdfrwt beam="1">  1        2 0.26305417E-02 0.15686340E+03</pdfrwt>
<pdfrwt beam="2">  1       -2 0.17294332E+00 0.15686340E+03</pdfrwt>
<totfact> 0.79702329E+02</totfact>
</mgrwt>
</event>
<event>
 6    1  0.6387485E-006  0.1413958E+03  0.7546771E-02  0.1236300E+00
         -1   -1    0    0    0  501 -0.00000000000E+00  0.00000000000E+00  0.10902361182E+03  0.10902361182E+03  0.00000000000E+00 0.  1.
          1   -1    0    0  501    0  0.00000000000E+00 -0.00000000000E+00 -0.18379075901E+03  0.18379075901E+03  0.00000000000E+00 0. -1.
          5    1    1    2  502    0  0.57429297478E+02  0.17036426741E+02  0.20241097776E+02  0.63404700804E+02  0.47000000000E+01 0. -1.
         -5    1    1    2    0  502 -0.73130408149E+02 -0.35120833895E+02  0.22979784995E+02  0.84449334443E+02  0.47000000000E+01 0.  1.
        -11    1    1    2    0    0 -0.30072177985E+01 -0.31280550337E+02 -0.43942153427E+02  0.54022486393E+02  0.00000000000E+00 0.  1.
         11    1    1    2    0    0  0.18708328469E+02  0.49364957492E+02 -0.74045876543E+02  0.90937849190E+02  0.00000000000E+00 0. -1.
<mgrwt>
<rscale>  0 0.12421554E+03</rscale>
<asrwt>0</asrwt>
<pdfrwt beam="2">  1        1 0.28275501E-01 0.14139580E+03</pdfrwt>
<pdfrwt beam="1">  1       -1 0.16772863E-01 0.14139580E+03</pdfrwt>
<totfact> 0.42198471E+03</totfact>
</mgrwt>
</event>
<event>
 7    1  0.6387485E-006  0.2138806E+03  0.7546771E-02  0.1142196E+00
         -2   -1    0    0    0  501 -0.00000000000E+00  0.00000000000E+00  0.15385440963E+03  0.15385440963E+03  0.00000000000E+00 0.  1.
          2   -1    0    0  501    0  0.00000000000E+00 -0.00000000000E+00 -0.27398498747E+03  0.27398498747E+03  0.00000000000E+00 0. -1.
         23    2    1    2    0    0  0.63503079950E+02  0.16151621704E+03 -0.77289721074E+02  0.22741724004E+03  0.12499908221E+03 0.  0.
          5    1    3    3  502    0  0.69592891424E+02  0.29050062595E+02 -0.36131011725E+01  0.75645364522E+02  0.47000000000E+01 0.  1.
         -5    1    3    3    0  502 -0.60898114747E+01  0.13246615444E+03 -0.73676619902E+02  0.15177187551E+03  0.47000000000E+01 0.  1.
        -11    1    1    2    0    0 -0.93147380139E+01 -0.95781896494E+02  0.15077889800E+02  0.97407796408E+02  0.00000000000E+00 0. -1.
         11    1    1    2    0    0 -0.54188341936E+02 -0.65734320545E+02 -0.57918746564E+02  0.10301436066E+03  0.00000000000E+00 0.  1.
<mgrwt>
<rscale>  0 0.20920695E+03</rscale>
<asrwt>0</asrwt>
<pdfrwt beam="2">  1        2 0.42151536E-01 0.21388057E+03</pdfrwt>
<pdfrwt beam="1">  1       -2 0.23669909E-01 0.21388057E+03</pdfrwt>
<totfact> 0.18744543E+03</totfact>
</mgrwt>
</event>
<event>
 7    1  0.6387485E-006  0.1859114E+03  0.7546771E-02  0.1167237E+00
         -1   -1    0    0    0  501 -0.00000000000E+00  0.00000000000E+00  0.98788528276E+02  0.98788528276E+02  0.00000000000E+00 0.  1.
          1   -1    0    0  501    0  0.00000000000E+00 -0.00000000000E+00 -0.33076292430E+03  0.33076292430E+03  0.00000000000E+00 0. -1.
         23    2    1    2    0    0  0.11885435679E+03 -0.69368102399E+02 -0.17270305895E+03  0.25375068696E+03  0.12499909120E+03 0.  0.
          5    1    3    3  502    0  0.54519598407E+01  0.10119548711E+02 -0.93146009758E+02  0.93970198819E+02  0.47000000000E+01 0.  1.
         -5    1    3    3    0  502  0.11340239695E+03 -0.79487651110E+02 -0.79557049191E+02  0.15978048814E+03  0.47000000000E+01 0.  1.
        -11    1    1    2    0    0 -0.29002692495E+02  0.41039566517E+02  0.18587104464E+02  0.53580618177E+02  0.00000000000E+00 0.  1.
         11    1    1    2    0    0 -0.89851664297E+02  0.28328535882E+02 -0.77858441538E+02  0.12222014744E+03  0.00000000000E+00 0. -1.
<mgrwt>
<rscale>  0 0.18058604E+03</rscale>
<asrwt>0</asrwt>
<pdfrwt beam="2">  1        1 0.50886603E-01 0.18591144E+03</pdfrwt>
<pdfrwt beam="1">  1       -1 0.15198235E-01 0.18591144E+03</pdfrwt>
<totfact> 0.24002294E+03</totfact>
</mgrwt>
</event>
<event>
 7    1  0.6387485E-006  0.1628709E+03  0.7546771E-02  0.1192745E+00
          2   -1    0    0  501    0  0.00000000000E+00  0.00000000000E+00  0.34098098646E+03  0.34098098646E+03  0.00000000000E+00 0. -1.
         -2   -1    0    0    0  501 -0.00000000000E+00 -0.00000000000E+00 -0.10420131597E+03  0.10420131597E+03  0.00000000000E+00 0.  1.
         23    2    1    2    0    0 -0.84175370220E+02  0.61759842860E+02 -0.88224431039E+01  0.16310967466E+03  0.12500863700E+03 0.  0.
          5    1    3    3  502    0 -0.14959312561E+02 -0.19063743140E+02  0.39156658319E+02  0.46287592565E+02  0.47000000000E+01 0.  1.
         -5    1    3    3    0  502 -0.69216057659E+02  0.80823585999E+02 -0.47979101423E+02  0.11682208210E+03  0.47000000000E+01 0.  1.
        -11    1    1    2    0    0  0.41606018598E+02  0.20286860565E+02  0.80990918748E+02  0.93285295812E+02  0.00000000000E+00 0.  1.
         11    1    1    2    0    0  0.42569351622E+02 -0.82046703425E+02  0.16461119485E+03  0.18878733196E+03  0.00000000000E+00 0. -1.
<mgrwt>
<rscale>  0 0.15646642E+03</rscale>
<asrwt>0</asrwt>
<pdfrwt beam="1">  1        2 0.52458613E-01 0.16287090E+03</pdfrwt>
<pdfrwt beam="2">  1       -2 0.16030972E-01 0.16287090E+03</pdfrwt>
<totfact> 0.28493290E+03</totfact>
</mgrwt>
</event>
<event>
 7    1  0.6387485E-006  0.1319089E+03  0.7546771E-02  0.1239966E+00
         -1   -1    0    0    0  501 -0.00000000000E+00  0.00000000000E+00  0.49230926211E+03  0.49230926211E+03  0.00000000000E+00 0.  1.
          1   -1    0    0  501    0  0.00000000000E+00 -0.00000000000E+00 -0.26588041457E+02  0.26588041457E+02  0.00000000000E+00 0. -1.
         23    2    1    2    0    0 -0.18995164779E+02 -0.37582828526E+02  0.28833167168E+03  0.31707271327E+03  0.12500666913E+03 0.  0.
          5    1    3    3  502    0  0.33213339145E+02 -0.59659904391E+02  0.10689462978E+03  0.12692904303E+03  0.47000000000E+01 0. -1.
         -5    1    3    3    0  502 -0.52208503924E+02  0.22077075865E+02  0.18143704190E+03  0.19014367024E+03  0.47000000000E+01 0. -1.
        -11    1    1    2    0    0  0.35789192582E+01  0.61809233734E+02  0.85567526842E+02  0.10561719409E+03  0.00000000000E+00 0. -1.
         11    1    1    2    0    0  0.15416245521E+02 -0.24226405208E+02  0.91822022130E+02  0.96207396199E+02  0.00000000000E+00 0.  1.
<mgrwt>
<rscale>  0 0.12191797E+03</rscale>
<asrwt>0</asrwt>
<pdfrwt beam="2">  1        1 0.40904683E-02 0.13190888E+03</pdfrwt>
<pdfrwt beam="1">  1       -1 0.75739880E-01 0.13190888E+03</pdfrwt>
<totfact> 0.38543905E+03</totfact>
</mgrwt>
</event>
<event>
 7    1  0.6387485E-006  0.1620677E+03  0.7546771E-02  0.1193901E+00
          2   -1    0    0  501    0  0.00000000000E+00  0.00000000000E+00  0.16585263409E+03  0.16585263409E+03  0.00000000000E+00 0. -1.
         -2   -1    0    0    0  501 -0.00000000000E+00 -0.00000000000E+00 -0.13923251760E+03  0.13923251760E+03  0.00000000000E+00 0.  1.
         23    2    1    2    0    0  0.10031879314E+03 -0.24027451312E+02 -0.11936483962E+02  0.16250662614E+03  0.12499898086E+03 0.  0.
          5    1    3    3  502    0  0.49487343608E+01  0.24072230096E+02 -0.44232444190E+02  0.50818907432E+02  0.47000000000E+01 0. -1.
         -5    1    3    3    0  502  0.95370058776E+02 -0.48099681408E+02  0.32295960228E+02  0.11168771870E+03  0.47000000000E+01 0. -1.
        -11    1    1    2    0    0 -0.98687935562E+02 -0.10267218329E+02  0.13633721286E+02  0.10015289688E+03  0.00000000000E+00 0.  1.
         11    1    1    2    0    0 -0.16308575743E+01  0.34294669641E+02  0.24922879167E+02  0.42425628672E+02  0.00000000000E+00 0. -1.
<mgrwt>
<rscale>  0 0.15547594E+03</rscale>
<asrwt>0</asrwt>
<pdfrwt beam="1">  1        2 0.25515790E-01 0.16206765E+03</pdfrwt>
<pdfrwt beam="2">  1       -2 0.21420387E-01 0.16206765E+03</pdfrwt>
<totfact> 0.38045606E+03</totfact>
</mgrwt>
</event>
<event>
 7    1  0.6387485E-006  0.3024704E+03  0.7546771E-02  0.1085523E+00
         -2   -1    0    0    0  501 -0.00000000000E+00  0.00000000000E+00  0.16121077312E+03  0.16121077312E+03  0.00000000000E+00 0.  1.
          2   -1    0    0  501    0  0.00000000000E+00 -0.00000000000E+00 -0.69135937461E+03  0.69135937461E+03  0.00000000000E+00 0. -1.
         23    2    1    2    0    0 -0.93268218398E+02  0.25908899905E+03 -0.73381189563E+02  0.31124454816E+03  0.12514911023E+03 0.  0.
          5    1    3    3  502    0 -0.55373258992E+02  0.29248829195E+02 -0.43390583779E+02  0.76331674823E+02  0.47000000000E+01 0. -1.
         -5    1    3    3    0  502 -0.37894959406E+02  0.22984016985E+03 -0.29990605784E+02  0.23491287334E+03  0.47000000000E+01 0. -1.
        -11    1    1    2    0    0  0.84252501081E+02 -0.18339526267E+03 -0.39359509424E+03  0.44232273796E+03  0.00000000000E+00 0. -1.
         11    1    1    2    0    0  0.90157173171E+01 -0.75693736372E+02 -0.63172317684E+02  0.99002861607E+02  0.00000000000E+00 0.  1.
<mgrwt>
<rscale>  0 0.29943533E+03</rscale>
<asrwt>0</asrwt>
<pdfrwt beam="2">  1        2 0.10636298E+00 0.30247044E+03</pdfrwt>
<pdfrwt beam="1">  1       -2 0.24801658E-01 0.30247044E+03</pdfrwt>
<totfact> 0.61595897E+02</totfact>
</mgrwt>
</event>
<event>
 7    1  0.6387485E-006  0.1425557E+03  0.7546771E-02  0.1220141E+00
         -3   -1    0    0    0  501 -0.00000000000E+00  0.00000000000E+00  0.50134411325E+03  0.50134411325E+03  0.00000000000E+00 0.  1.
          3   -1    0    0  501    0  0.00000000000E+00 -0.00000000000E+00 -0.34510195657E+02  0.34510195657E+02  0.00000000000E+00 0. -1.
         23    2    1    2    0    0  0.16678974235E+02  0.66477149708E+02  0.31251539200E+03  0.34349382014E+03  0.12499893850E+03 0.  0.
          5    1    3    3  502    0 -0.18394403158E+02  0.93224330919E+02  0.17765289595E+03  0.20152362487E+03  0.47000000000E+01 0.  1.
         -5    1    3    3    0  502  0.35073377393E+02 -0.26747181211E+02  0.13486249605E+03  0.14197019527E+03  0.47000000000E+01 0.  1.
        -11    1    1    2    0    0  0.78984421401E+01 -0.81376360136E+02  0.88199095924E+02  0.12026461616E+03  0.00000000000E+00 0.  1.
         11    1    1    2    0    0 -0.24577416375E+02  0.14899210428E+02  0.66119429673E+02  0.72095872610E+02  0.00000000000E+00 0. -1.
<mgrwt>
<rscale>  0 0.13505551E+03</rscale>
<asrwt>0</asrwt>
<pdfrwt beam="2">  1        3 0.53092612E-02 0.14255572E+03</pdfrwt>
<pdfrwt beam="1">  1       -3 0.77129858E-01 0.14255572E+03</pdfrwt>
<totfact> 0.77888405E+02</totfact>
</mgrwt>
</event>
<event>
 7    1  0.6387485E-006  0.1284353E+03  0.7546771E-02  0.1247496E+00
          1   -1    0    0  501    0  0.00000000000E+00  0.00000000000E+00  0.31017915166E+02  0.31017915166E+02  0.00000000000E+00 0. -1.
         -1   -1    0    0    0  501 -0.00000000000E+00 -0.00000000000E+00 -0.39522770408E+03  0.39522770408E+03  0.00000000000E+00 0.  1.
         23    2    1    2    0    0 -0.18115108344E+02  0.23332891105E+02 -0.25033733219E+03  0.28136169688E+03  0.12499217426E+03 0.  0.
          5    1    3    3  502    0 -0.32191671646E+02  0.15502348806E+02 -0.25967169886E+03  0.26216046180E+03  0.47000000000E+01 0.  1.
         -5    1    3    3    0  502  0.14076563302E+02  0.78305422986E+01  0.93343666772E+01  0.19201235073E+02  0.47000000000E+01 0.  1.
        -11    1    1    2    0    0  0.23294125899E+02  0.24446851334E+02 -0.77738679001E+02  0.84755926367E+02  0.00000000000E+00 0.  1.
         11    1    1    2    0    0 -0.51790175549E+01 -0.47779742439E+02 -0.36133777723E+02  0.60127995999E+02  0.00000000000E+00 0. -1.
<mgrwt>
<rscale>  0 0.11737212E+03</rscale>
<asrwt>0</asrwt>
<pdfrwt beam="1">  1        1 0.47719871E-02 0.12843529E+03</pdfrwt>
<pdfrwt beam="2">  1       -1 0.60804260E-01 0.12843529E+03</pdfrwt>
<totfact> 0.47868513E+03</totfact>
</mgrwt>
</event>
<event>
 7    1  0.6387485E-006  0.1322524E+03  0.7546771E-02  0.1237314E+00
          3   -1    0    0  501    0  0.00000000000E+00  0.00000000000E+00  0.16059796334E+02  0.16059796334E+02  0.00000000000E+00 0. -1.
         -3   -1    0    0    0  501 -0.00000000000E+00 -0.00000000000E+00 -0.90021820136E+03  0.90021820136E+03  0.00000000000E+00 0.  1.
         23    2    1    2    0    0 -0.15972827847E+02 -0.40098726258E+02 -0.61002112863E+03  0.62419265135E+03  0.12501059774E+03 0.  0.
          5    1    3    3  502    0  0.45003461928E+02  0.15989991794E+02 -0.26684811907E+03  0.27112912066E+03  0.47000000000E+01 0. -1.
         -5    1    3    3    0  502 -0.60976289775E+02 -0.56088718053E+02 -0.34317300956E+03  0.35306353069E+03  0.47000000000E+01 0. -1.
        -11    1    1    2    0    0  0.46040605332E+02  0.34026990011E+02 -0.99670761462E+02  0.11494274261E+03  0.00000000000E+00 0. -1.
         11    1    1    2    0    0 -0.30067777484E+02  0.60717362478E+01 -0.17446651494E+03  0.17714260373E+03  0.00000000000E+00 0.  1.
<mgrwt>
<rscale>  0 0.12357432E+03</rscale>
<asrwt>0</asrwt>
<pdfrwt beam="1">  1        3 0.24707380E-02 0.13225237E+03</pdfrwt>
<pdfrwt beam="2">  1       -3 0.13849510E+00 0.13225237E+03</pdfrwt>
<totfact> 0.66485130E+02</totfact>
</mgrwt>
</event>
<event>
 7    1  0.6387485E-006  0.1717911E+03  0.7546771E-02  0.1181820E+00
          1   -1    0    0  501    0  0.00000000000E+00  0.00000000000E+00  0.19155938560E+03  0.19155938560E+03  0.00000000000E+00 0. -1.
         -1   -1    0    0    0  501 -0.00000000000E+00 -0.00000000000E+00 -0.14013049590E+03  0.14013049590E+03  0.00000000000E+00 0.  1.
         23    2    1    2    0    0  0.10150695050E+03  0.59860335532E+02 -0.20930834094E+01  0.17180384133E+03  0.12500103250E+03 0.  0.
          5    1    3    3  502    0  0.30502224014E+02 -0.39147826102E+02 -0.15770831828E+01  0.49874995235E+02  0.47000000000E+01 0.  1.
         -5    1    3    3    0  502  0.71004726491E+02  0.99008161633E+02 -0.51600022654E+00  0.12192884610E+03  0.47000000000E+01 0.  1.
        -11    1    1    2    0    0 -0.13498970465E+02 -0.37613232483E+02 -0.18473377898E+02  0.44025482989E+02  0.00000000000E+00 0.  1.
         11    1    1    2    0    0 -0.88007980040E+02 -0.22247103049E+02  0.71995351009E+02  0.11586055719E+03  0.00000000000E+00 0. -1.
<mgrwt>
<rscale>  0 0.16624599E+03</rscale>
<asrwt>0</asrwt>
<pdfrwt beam="1">  1        1 0.29470675E-01 0.17179109E+03</pdfrwt>
<pdfrwt beam="2">  1       -1 0.21558538E-01 0.17179109E+03</pdfrwt>
<totfact> 0.27039141E+03</totfact>
</mgrwt>
</event>
<event>
 7    1  0.6387485E-006  0.1506531E+03  0.7546771E-02  0.1208197E+00
          2   -1    0    0  501    0  0.00000000000E+00  0.00000000000E+00  0.30787331067E+03  0.30787331067E+03  0.00000000000E+00 0. -1.
         -2   -1    0    0    0  501 -0.00000000000E+00 -0.00000000000E+00 -0.62049534680E+02  0.62049534680E+02  0.00000000000E+00 0.  1.
         23    2    1    2    0    0 -0.40176879435E+02  0.73839740159E+02  0.12387289236E+03  0.19504061209E+03  0.12501943063E+03 0.  0.
          5    1    3    3  502    0 -0.48269358005E+02 -0.15716111908E+02  0.80035260601E+02  0.94892887168E+02  0.47000000000E+01 0. -1.
         -5    1    3    3    0  502  0.80924785696E+01  0.89555852067E+02  0.43837631761E+02  0.10014772492E+03  0.47000000000E+01 0. -1.
        -11    1    1    2    0    0 -0.71953994494E+01 -0.48365919495E+02  0.10913589148E+03  0.11958962644E+03  0.00000000000E+00 0. -1.
         11    1    1    2    0    0  0.47372278885E+02 -0.25473820664E+02  0.12814992152E+02  0.55292606828E+02  0.00000000000E+00 0.  1.
<mgrwt>
<rscale>  0 0.14388372E+03</rscale>
<asrwt>0</asrwt>
<pdfrwt beam="1">  1        2 0.47365124E-01 0.15065307E+03</pdfrwt>
<pdfrwt beam="2">  1       -2 0.95460825E-02 0.15065307E+03</pdfrwt>
<totfact> 0.72833703E+03</totfact>
</mgrwt>
</event>
<event>
 7    1  0.8732489E-006  0.2397237E+03  0.7546771E-02  0.1122701E+00
          1   -1    0    0  501    0  0.00000000000E+00  0.00000000000E+00  0.13484318670E+04  0.13484318670E+04  0.00000000000E+00 0. -1.
         -1   -1    0    0    0  501 -0.00000000000E+00 -0.00000000000E+00 -0.42416380126E+02  0.42416380126E+02  0.00000000000E+00 0.  1.
         23    2    1    2    0    0 -0.74754476973E+02 -0.19040770526E+03  0.50334617353E+03  0.55751665900E+03  0.12499651438E+03 0.  0.
          5    1    3    3  502    0 -0.43535966178E+02 -0.15200559441E+03  0.47420124049E+03  0.49988997546E+03  0.47000000000E+01 0. -1.
         -5    1    3    3    0  502 -0.31218510795E+02 -0.38402110853E+02  0.29144933037E+02  0.57626683541E+02  0.47000000000E+01 0. -1.
        -11    1    1    2    0    0  0.11552153998E+01  0.86760361244E+02  0.45387414585E+03  0.46209353499E+03  0.00000000000E+00 0. -1.
         11    1    1    2    0    0  0.73599261573E+02  0.10364734402E+03  0.34879516747E+03  0.37123805311E+03  0.00000000000E+00 0.  1.
<mgrwt>
<rscale>  0 0.23568488E+03</rscale>
<asrwt>0</asrwt>
<pdfrwt beam="1">  1        1 0.20745102E+00 0.23972370E+03</pdfrwt>
<pdfrwt beam="2">  1       -1 0.65255980E-02 0.23972370E+03</pdfrwt>
<totfact> 0.10661707E+03</totfact>
</mgrwt>
</event>
<event>
 7    1  0.6387485E-006  0.1306864E+03  0.7546771E-02  0.1243367E+00
          2   -1    0    0  501    0  0.00000000000E+00  0.00000000000E+00  0.64741777269E+02  0.64741777269E+02  0.00000000000E+00 0.  1.
         -2   -1    0    0    0  501 -0.00000000000E+00 -0.00000000000E+00 -0.23020826543E+03  0.23020826543E+03  0.00000000000E+00 0. -1.
         23    2    1    2    0    0 -0.29427938731E+02  0.24207497963E+02 -0.15378905837E+03  0.20181674454E+03  0.12500766924E+03 0.  0.
          5    1    3    3  502    0 -0.32976923182E+02 -0.61782454501E+01  0.98461422148E+01  0.35280089228E+02  0.47000000000E+01 0.  1.
         -5    1    3    3    0  502  0.35489844512E+01  0.30385743413E+02 -0.16363520058E+03  0.16653665531E+03  0.47000000000E+01 0.  1.
        -11    1    1    2    0    0  0.12727250058E+02 -0.41176239685E+02  0.24687053970E+02  0.49668060586E+02  0.00000000000E+00 0.  1.
         11    1    1    2    0    0  0.16700688673E+02  0.16968741722E+02 -0.36364483768E+02  0.43465237575E+02  0.00000000000E+00 0. -1.
<mgrwt>
<rscale>  0 0.11983639E+03</rscale>
<asrwt>0</asrwt>
<pdfrwt beam="1">  1        2 0.99602737E-02 0.13068636E+03</pdfrwt>
<pdfrwt beam="2">  1       -2 0.35416655E-01 0.13068636E+03</pdfrwt>
<totfact> 0.45956929E+03</totfact>
</mgrwt>
</event>
<event>
 7    1  0.6387485E-006  0.2293485E+03  0.7546771E-02  0.1130705E+00
          2   -1    0    0  501    0  0.00000000000E+00  0.00000000000E+00  0.84622086521E+03  0.84622086521E+03  0.00000000000E+00 0. -1.
         -2   -1    0    0    0  501 -0.00000000000E+00 -0.00000000000E+00 -0.10528163489E+03  0.10528163489E+03  0.00000000000E+00 0.  1.
         23    2    1    2    0    0  0.62416314358E+02  0.18187757172E+03  0.57334071649E+02  0.23640623480E+03  0.12500185873E+03 0.  0.
          5    1    3    3  502    0 -0.15816460913E+02  0.56645407152E+01  0.38946960915E+02  0.42675557663E+02  0.47000000000E+01 0. -1.
         -5    1    3    3    0  502  0.78232775271E+02  0.17621303100E+03  0.18387110734E+02  0.19373067714E+03  0.47000000000E+01 0. -1.
        -11    1    1    2    0    0 -0.42024515914E+02 -0.15063228432E+03  0.63413484483E+03  0.65313332976E+03  0.00000000000E+00 0. -1.
         11    1    1    2    0    0 -0.20391798444E+02 -0.31245287400E+02  0.49470313839E+02  0.61962935533E+02  0.00000000000E+00 0.  1.
<mgrwt>
<rscale>  0 0.22431637E+03</rscale>
<asrwt>0</asrwt>
<pdfrwt beam="1">  1        2 0.13018782E+00 0.22934845E+03</pdfrwt>
<pdfrwt beam="2">  1       -2 0.16197175E-01 0.22934845E+03</pdfrwt>
<totfact> 0.99549009E+02</totfact>
</mgrwt>
</event>
<event>
 7    1  0.6387485E-006  0.1294956E+03  0.7546771E-02  0.1242618E+00
         -2   -1    0    0    0  501 -0.00000000000E+00  0.00000000000E+00  0.25036732219E+02  0.25036732219E+02  0.00000000000E+00 0.  1.
          2   -1    0    0  501    0  0.00000000000E+00 -0.00000000000E+00 -0.55530174792E+03  0.55530174792E+03  0.00000000000E+00 0. -1.
         23    2    1    2    0    0 -0.26095451929E+02 -0.21520282241E+02 -0.21835876931E+03  0.25386935660E+03  0.12500001169E+03 0.  0.
          5    1    3    3  502    0  0.45367744283E+02 -0.14923009848E+02 -0.43395382324E+02  0.64700677364E+02  0.47000000000E+01 0.  1.
         -5    1    3    3    0  502 -0.71463196212E+02 -0.65972723931E+01 -0.17496338699E+03  0.18916867923E+03  0.47000000000E+01 0.  1.
        -11    1    1    2    0    0  0.15249307950E+02  0.48792283481E+02 -0.27294174722E+03  0.27768764051E+03  0.00000000000E+00 0. -1.
         11    1    1    2    0    0  0.10846143978E+02 -0.27272001240E+02 -0.38964499173E+02  0.48781483031E+02  0.00000000000E+00 0.  1.
<mgrwt>
<rscale>  0 0.12029056E+03</rscale>
<asrwt>0</asrwt>
<pdfrwt beam="2">  1        2 0.85431032E-01 0.12949555E+03</pdfrwt>
<pdfrwt beam="1">  1       -2 0.38518052E-02 0.12949555E+03</pdfrwt>
<totfact> 0.15156637E+04</totfact>
</mgrwt>
</event>
<event>
 7    1  0.6387485E-006  0.1738285E+03  0.7546771E-02  0.1180024E+00
          2   -1    0    0  501    0  0.00000000000E+00  0.00000000000E+00  0.55983010854E+03  0.55983010854E+03  0.00000000000E+00 0. -1.
         -2   -1    0    0    0  501 -0.00000000000E+00 -0.00000000000E+00 -0.47270851769E+02  0.47270851769E+02  0.00000000000E+00 0.  1.
         23    2    1    2    0    0  0.42332810044E+02 -0.11313920043E+03  0.26585726640E+03  0.31764196375E+03  0.12499514214E+03 0.  0.
          5    1    3    3  502    0  0.51408664856E+02 -0.95124547378E+02  0.90543605325E+02  0.14110905287E+03  0.47000000000E+01 0.  1.
         -5    1    3    3    0  502 -0.90758548113E+01 -0.18014653052E+02  0.17531366107E+03  0.17653291088E+03  0.47000000000E+01 0.  1.
        -11    1    1    2    0    0  0.27435261244E+02  0.31826318301E+02  0.48653132953E+02  0.64286355024E+02  0.00000000000E+00 0.  1.
         11    1    1    2    0    0 -0.69768071288E+02  0.81312882129E+02  0.19804885742E+03  0.22517264154E+03  0.00000000000E+00 0. -1.
<mgrwt>
<rscale>  0 0.16793007E+03</rscale>
<asrwt>0</asrwt>
<pdfrwt beam="1">  1        2 0.86127704E-01 0.17382845E+03</pdfrwt>
<pdfrwt beam="2">  1       -2 0.72724391E-02 0.17382845E+03</pdfrwt>
<totfact> 0.58584079E+03</totfact>
</mgrwt>
</event>
<event>
 7    1  0.6387485E-006  0.1470408E+03  0.7546771E-02  0.1213042E+00
         -1   -1    0    0    0  501 -0.00000000000E+00  0.00000000000E+00  0.44731862429E+03  0.44731862429E+03  0.00000000000E+00 0.  1.
          1   -1    0    0  501    0  0.00000000000E+00 -0.00000000000E+00 -0.55089773532E+02  0.55089773532E+02  0.00000000000E+00 0. -1.
         23    2    1    2    0    0  0.26035836520E+02  0.72931384157E+02  0.33934005273E+03  0.36982788434E+03  0.12499656424E+03 0.  0.
          5    1    3    3  502    0  0.19004139265E+02 -0.31905544998E+01 -0.20603663405E+01  0.19941716493E+02  0.47000000000E+01 0.  1.
         -5    1    3    3    0  502  0.70316972552E+01  0.76121938656E+02  0.34140041907E+03  0.34988616785E+03  0.47000000000E+01 0.  1.
        -11    1    1    2    0    0 -0.49980564236E+02 -0.81283025550E+02  0.35398318123E+02  0.10177439742E+03  0.00000000000E+00 0. -1.
         11    1    1    2    0    0  0.23944727716E+02  0.83516413935E+01  0.17490479901E+02  0.30806116057E+02  0.00000000000E+00 0.  1.
<mgrwt>
<rscale>  0 0.14021324E+03</rscale>
<asrwt>0</asrwt>
<pdfrwt beam="2">  1        1 0.84753501E-02 0.14704079E+03</pdfrwt>
<pdfrwt beam="1">  1       -1 0.68818248E-01 0.14704079E+03</pdfrwt>
<totfact> 0.17427995E+03</totfact>
</mgrwt>
</event>
<event>
 7    1  0.6387485E-006  0.1523508E+03  0.7546771E-02  0.1206258E+00
         -1   -1    0    0    0  501 -0.00000000000E+00  0.00000000000E+00  0.38308502649E+03  0.38308502649E+03  0.00000000000E+00 0.  1.
          1   -1    0    0  501    0  0.00000000000E+00 -0.00000000000E+00 -0.54575322479E+02  0.54575322479E+02  0.00000000000E+00 0. -1.
         23    2    1    2    0    0  0.34489156299E+02  0.79967429293E+02  0.23663846238E+03  0.28144008772E+03  0.12500587767E+03 0.  0.
          5    1    3    3  502    0 -0.10245360814E+02 -0.11972808015E+02  0.13905179961E+03  0.14002074319E+03  0.47000000000E+01 0.  1.
         -5    1    3    3    0  502  0.44734517113E+02  0.91940237308E+02  0.97586662771E+02  0.14141934453E+03  0.47000000000E+01 0.  1.
        -11    1    1    2    0    0 -0.58795028262E+02 -0.69844158307E+02  0.92386008639E+02  0.12988547413E+03  0.00000000000E+00 0.  1.
         11    1    1    2    0    0  0.24305871962E+02 -0.10123270986E+02 -0.51476700288E+00  0.26334787115E+02  0.00000000000E+00 0. -1.
<mgrwt>
<rscale>  0 0.14538773E+03</rscale>
<asrwt>0</asrwt>
<pdfrwt beam="2">  1        1 0.83962037E-02 0.15235078E+03</pdfrwt>
<pdfrwt beam="1">  1       -1 0.58936156E-01 0.15235078E+03</pdfrwt>
<totfact> 0.23846162E+03</totfact>
</mgrwt>
</event>
<event>
 7    1  0.6387485E-006  0.1870633E+03  0.7546771E-02  0.1166178E+00
          2   -1    0    0  501    0  0.00000000000E+00  0.00000000000E+00  0.97547519494E+03  0.97547519494E+03  0.00000000000E+00 0. -1.
         -2   -1    0    0    0  501 -0.00000000000E+00 -0.00000000000E+00 -0.32033261770E+02  0.32033261770E+02  0.00000000000E+00 0.  1.
         23    2    1    2    0    0 -0.12806101481E+03 -0.54454949638E+02  0.50059153227E+03  0.53440113389E+03  0.12501089819E+03 0.  0.
          5    1    3    3  502    0 -0.10618308184E+03 -0.55791117878E+02  0.20204663010E+03  0.23501580040E+03  0.47000000000E+01 0. -1.
         -5    1    3    3    0  502 -0.21877932976E+02  0.13361682403E+01  0.29854490217E+03  0.29938533349E+03  0.47000000000E+01 0. -1.
        -11    1    1    2    0    0  0.71353506784E+02 -0.36672653090E+01  0.30374698496E+03  0.31203686102E+03  0.00000000000E+00 0.  1.
         11    1    1    2    0    0  0.56707508031E+02  0.58122214947E+02  0.13910341594E+03  0.16107046180E+03  0.00000000000E+00 0. -1.
<mgrwt>
<rscale>  0 0.18168916E+03</rscale>
<asrwt>0</asrwt>
<pdfrwt beam="1">  1        2 0.15007308E+00 0.18706333E+03</pdfrwt>
<pdfrwt beam="2">  1       -2 0.49281949E-02 0.18706333E+03</pdfrwt>
<totfact> 0.53682068E+03</totfact>
</mgrwt>
</event>
<event>
 7    1  0.6387485E-006  0.1252957E+03  0.7546771E-02  0.1248087E+00
          2   -1    0    0  501    0  0.00000000000E+00  0.00000000000E+00  0.70004238985E+03  0.70004238985E+03  0.00000000000E+00 0. -1.
         -2   -1    0    0    0  501 -0.00000000000E+00 -0.00000000000E+00 -0.17614144583E+02  0.17614144583E+02  0.00000000000E+00 0.  1.
         23    2    1    2    0    0 -0.32254276942E+01  0.77908090477E+01  0.34644788819E+03  0.36840893832E+03  0.12501162553E+03 0.  0.
          5    1    3    3  502    0  0.38014345443E+02  0.35458740692E+02  0.28262567776E+03  0.28740524783E+03  0.47000000000E+01 0.  1.
         -5    1    3    3    0  502 -0.41239773137E+02 -0.27667931644E+02  0.63822210425E+02  0.81003690493E+02  0.47000000000E+01 0.  1.
        -11    1    1    2    0    0  0.62122616135E+01 -0.49974746716E+02  0.22290660293E+03  0.22852444319E+03  0.00000000000E+00 0. -1.
         11    1    1    2    0    0 -0.29868339192E+01  0.42183937668E+02  0.11307375414E+03  0.12072315292E+03  0.00000000000E+00 0.  1.
<mgrwt>
<rscale>  0 0.11702510E+03</rscale>
<asrwt>0</asrwt>
<pdfrwt beam="1">  1        2 0.10769881E+00 0.12529568E+03</pdfrwt>
<pdfrwt beam="2">  1       -2 0.27098689E-02 0.12529568E+03</pdfrwt>
<totfact> 0.19441969E+04</totfact>
</mgrwt>
</event>
<event>
 7    1  0.6387485E-006  0.1374989E+03  0.7546771E-02  0.1228909E+00
          2   -1    0    0  501    0  0.00000000000E+00  0.00000000000E+00  0.22846085820E+03  0.22846085820E+03  0.00000000000E+00 0. -1.
         -2   -1    0    0    0  501 -0.00000000000E+00 -0.00000000000E+00 -0.78269467244E+02  0.78269467244E+02  0.00000000000E+00 0.  1.
         23    2    1    2    0    0  0.13703628723E+02 -0.55617627281E+02  0.20780721764E+02  0.13906039094E+03  0.12499937611E+03 0.  0.
          5    1    3    3  502    0  0.20248649893E+02 -0.89592459155E+02  0.38736418064E+02  0.99796876927E+02  0.47000000000E+01 0. -1.
         -5    1    3    3    0  502 -0.65450211697E+01  0.33974831875E+02 -0.17955696300E+02  0.39263514013E+02  0.47000000000E+01 0. -1.
        -11    1    1    2    0    0 -0.35731763738E+02  0.19504031279E+02  0.11352021204E+02  0.42261502119E+02  0.00000000000E+00 0.  1.
         11    1    1    2    0    0  0.22028135015E+02  0.36113596002E+02  0.11805864799E+03  0.12540843238E+03  0.00000000000E+00 0. -1.
<mgrwt>
<rscale>  0 0.12902559E+03</rscale>
<asrwt>0</asrwt>
<pdfrwt beam="1">  1        2 0.35147824E-01 0.13749892E+03</pdfrwt>
<pdfrwt beam="2">  1       -2 0.12041457E-01 0.13749892E+03</pdfrwt>
<totfact> 0.68879191E+03</totfact>
</mgrwt>
</event>
<event>
 6    1  0.6387485E-006  0.1792166E+03  0.7546771E-02  0.1177652E+00
          2   -1    0    0  501    0  0.00000000000E+00  0.00000000000E+00  0.53339945091E+03  0.53339945091E+03  0.00000000000E+00 0. -1.
         -2   -1    0    0    0  501 -0.00000000000E+00 -0.00000000000E+00 -0.62866959519E+02  0.62866959519E+02  0.00000000000E+00 0.  1.
          5    1    1    2  502    0 -0.51001705055E+01 -0.26887985780E+02  0.52718350367E+02  0.59584309880E+02  0.47000000000E+01 0. -1.
         -5    1    1    2    0  502 -0.30264739276E+02  0.13710929479E+03  0.64693841143E+02  0.15466834273E+03  0.47000000000E+01 0.  1.
        -11    1    1    2    0    0  0.12585313038E+02 -0.11340959324E+03  0.33094348591E+03  0.35006244702E+03  0.00000000000E+00 0. -1.
         11    1    1    2    0    0  0.22779596743E+02  0.31882842337E+01  0.22176813969E+02  0.31951310802E+02  0.00000000000E+00 0.  1.
<mgrwt>
<rscale>  0 0.17018817E+03</rscale>
<asrwt>0</asrwt>
<pdfrwt beam="1">  1        2 0.82061451E-01 0.17921656E+03</pdfrwt>
<pdfrwt beam="2">  1       -2 0.96718403E-02 0.17921656E+03</pdfrwt>
<totfact> 0.39707522E+03</totfact>
</mgrwt>
</event>
<event>
 7    1  0.6387485E-006  0.1368306E+03  0.7546771E-02  0.1228219E+00
          2   -1    0    0  501    0  0.00000000000E+00  0.00000000000E+00  0.75062081991E+02  0.75062081991E+02  0.00000000000E+00 0. -1.
         -2   -1    0    0    0  501 -0.00000000000E+00 -0.00000000000E+00 -0.24695915118E+03  0.24695915118E+03  0.00000000000E+00 0.  1.
         23    2    1    2    0    0 -0.83964542835E+01  0.55007301990E+02 -0.16168022781E+03  0.21180910431E+03  0.12500518744E+03 0.  0.
          5    1    3    3  502    0  0.19509688967E+02  0.54641294207E+02 -0.17207883851E+03  0.18165768814E+03  0.47000000000E+01 0. -1.
         -5    1    3    3    0  502 -0.27906143250E+02  0.36600778310E+00  0.10398610699E+02  0.30151416174E+02  0.47000000000E+01 0. -1.
        -11    1    1    2    0    0  0.86115643710E+01  0.18883636052E+02 -0.27376673997E+02  0.34354519799E+02  0.00000000000E+00 0.  1.
         11    1    1    2    0    0 -0.21511008756E+00 -0.73890938042E+02  0.17159832618E+02  0.75857609062E+02  0.00000000000E+00 0. -1.
<mgrwt>
<rscale>  0 0.12948699E+03</rscale>
<asrwt>0</asrwt>
<pdfrwt beam="1">  1        2 0.11548013E-01 0.13683055E+03</pdfrwt>
<pdfrwt beam="2">  1       -2 0.37993715E-01 0.13683055E+03</pdfrwt>
<totfact> 0.33782018E+03</totfact>
</mgrwt>
</event>
<event>
 7    1  0.6387485E-006  0.1310418E+03  0.7546771E-02  0.1238438E+00
          3   -1    0    0  501    0  0.00000000000E+00  0.00000000000E+00  0.80837869808E+02  0.80837869808E+02  0.00000000000E+00 0. -1.
         -3   -1    0    0    0  501 -0.00000000000E+00 -0.00000000000E+00 -0.19145190921E+03  0.19145190921E+03  0.00000000000E+00 0.  1.
         23    2    1    2    0    0 -0.39415816171E+01  0.39134442161E+02 -0.10986491313E+03  0.17100364525E+03  0.12499962770E+03 0.  0.
          5    1    3    3  502    0 -0.32056170205E+02  0.60278830915E+02 -0.15475112268E+02  0.70161988316E+02  0.47000000000E+01 0.  1.
         -5    1    3    3    0  502  0.28114588588E+02 -0.21144388755E+02 -0.94389800861E+02  0.10084165694E+03  0.47000000000E+01 0.  1.
        -11    1    1    2    0    0  0.89133117312E+01 -0.55390470696E+02 -0.32813365581E+02  0.64994371531E+02  0.00000000000E+00 0.  1.
         11    1    1    2    0    0 -0.49717301141E+01  0.16256028536E+02  0.32064239305E+02  0.36291762237E+02  0.00000000000E+00 0. -1.
<mgrwt>
<rscale>  0 0.12286887E+03</rscale>
<asrwt>0</asrwt>
<pdfrwt beam="1">  1        3 0.12436595E-01 0.13104178E+03</pdfrwt>
<pdfrwt beam="2">  1       -3 0.29454140E-01 0.13104178E+03</pdfrwt>
<totfact> 0.12996827E+03</totfact>
</mgrwt>
</event>
<event>
 7    1  0.6387485E-006  0.1627940E+03  0.7546771E-02  0.1192477E+00
         -2   -1    0    0    0  501 -0.00000000000E+00  0.00000000000E+00  0.25781244563E+02  0.25781244563E+02  0.00000000000E+00 0.  1.
          2   -1    0    0  501    0  0.00000000000E+00 -0.00000000000E+00 -0.90738738323E+03  0.90738738323E+03  0.00000000000E+00 0. -1.
         23    2    1    2    0    0 -0.39902104858E+02  0.96366072280E+02 -0.54246448643E+03  0.56636526940E+03  0.12499320575E+03 0.  0.
          5    1    3    3  502    0 -0.20890341113E+02  0.81690248950E+02 -0.53374643668E+03  0.54038602109E+03  0.47000000000E+01 0.  1.
         -5    1    3    3    0  502 -0.19011763745E+02  0.14675823330E+02 -0.87180497546E+01  0.25979248308E+02  0.47000000000E+01 0.  1.
        -11    1    1    2    0    0  0.42840163523E+02 -0.30950404877E+01 -0.72073682704E+02  0.83901577011E+02  0.00000000000E+00 0.  1.
         11    1    1    2    0    0 -0.29380586648E+01 -0.93271031793E+02 -0.26706796953E+03  0.28290178138E+03  0.00000000000E+00 0. -1.
<mgrwt>
<rscale>  0 0.15669679E+03</rscale>
<asrwt>0</asrwt>
<pdfrwt beam="2">  1        2 0.13959807E+00 0.16279404E+03</pdfrwt>
<pdfrwt beam="1">  1       -2 0.39663450E-02 0.16279404E+03</pdfrwt>
<totfact> 0.81542601E+03</totfact>
</mgrwt>
</event>
<event>
 7    1  0.6387485E-006  0.1359290E+03  0.7546771E-02  0.1230988E+00
          1   -1    0    0  501    0  0.00000000000E+00  0.00000000000E+00  0.38873731340E+02  0.38873731340E+02  0.00000000000E+00 0. -1.
         -1   -1    0    0    0  501 -0.00000000000E+00 -0.00000000000E+00 -0.40210660486E+03  0.40210660486E+03  0.00000000000E+00 0.  1.
         23    2    1    2    0    0  0.37416103208E+02  0.38059525863E+02 -0.25911325736E+03  0.29260275784E+03  0.12501280521E+03 0.  0.
          5    1    3    3  502    0 -0.24330112457E+01  0.63938108788E+02 -0.22487787274E+03  0.23385069799E+03  0.47000000000E+01 0. -1.
         -5    1    3    3    0  502  0.39849114454E+02 -0.25878582926E+02 -0.34235384617E+02  0.58752059852E+02  0.47000000000E+01 0. -1.
        -11    1    1    2    0    0 -0.49301217217E+01  0.21820235701E+02 -0.67340727995E+02  0.70959160318E+02  0.00000000000E+00 0. -1.
         11    1    1    2    0    0 -0.32485981486E+02 -0.59879761564E+02 -0.36778888169E+02  0.77418418048E+02  0.00000000000E+00 0.  1.
<mgrwt>
<rscale>  0 0.12764832E+03</rscale>
<asrwt>0</asrwt>
<pdfrwt beam="1">  1        1 0.59805743E-02 0.13592900E+03</pdfrwt>
<pdfrwt beam="2">  1       -1 0.61862553E-01 0.13592900E+03</pdfrwt>
<totfact> 0.34177872E+03</totfact>
</mgrwt>
</event>
<event>
 7    1  0.6387485E-006  0.1724945E+03  0.7546771E-02  0.1181778E+00
         -2   -1    0    0    0  501 -0.00000000000E+00  0.00000000000E+00  0.13187627481E+03  0.13187627481E+03  0.00000000000E+00 0.  1.
          2   -1    0    0  501    0  0.00000000000E+00 -0.00000000000E+00 -0.19648692126E+03  0.19648692126E+03  0.00000000000E+00 0. -1.
         23    2    1    2    0    0 -0.11880744303E+03 -0.35700671269E+01 -0.43636300827E+02  0.17792834273E+03  0.12500565787E+03 0.  0.
          5    1    3    3  502    0 -0.10782582664E+03 -0.49505957055E+02 -0.52183326928E+02  0.12970134265E+03  0.47000000000E+01 0.  1.
         -5    1    3    3    0  502 -0.10981616382E+02  0.45935889928E+02  0.85470261001E+01  0.48227000083E+02  0.47000000000E+01 0.  1.
        -11    1    1    2    0    0  0.46925984177E+02  0.51125912076E+01 -0.53650165561E+02  0.71459966727E+02  0.00000000000E+00 0. -1.
         11    1    1    2    0    0  0.71881458849E+02 -0.15425240807E+01  0.32675819936E+02  0.78974886612E+02  0.00000000000E+00 0.  1.
<mgrwt>
<rscale>  0 0.16628495E+03</rscale>
<asrwt>0</asrwt>
<pdfrwt beam="2">  1        2 0.30228757E-01 0.17249455E+03</pdfrwt>
<pdfrwt beam="1">  1       -2 0.20288658E-01 0.17249455E+03</pdfrwt>
<totfact> 0.34763350E+03</totfact>
</mgrwt>
</event>
<event>
 7    1  0.6387485E-006  0.1344934E+03  0.7546771E-02  0.1235946E+00
         -2   -1    0    0    0  501 -0.00000000000E+00  0.00000000000E+00  0.74979944330E+02  0.74979944330E+02  0.00000000000E+00 0.  1.
          2   -1    0    0  501    0  0.00000000000E+00 -0.00000000000E+00 -0.33265962703E+03  0.33265962703E+03  0.00000000000E+00 0. -1.
         23    2    1    2    0    0  0.34820471416E+02 -0.35388933834E+02 -0.29745901860E+01  0.13452628258E+03  0.12499452248E+03 0.  0.
          5    1    3    3  502    0 -0.34684137063E+01 -0.76617115966E+02  0.71235203779E+01  0.77168950330E+02  0.47000000000E+01 0.  1.
         -5    1    3    3    0  502  0.38288885122E+02  0.41228182131E+02 -0.10098110564E+02  0.57357332249E+02  0.47000000000E+01 0.  1.
        -11    1    1    2    0    0  0.24477587710E+02  0.23664850923E+02 -0.13210835357E+03  0.13642505104E+03  0.00000000000E+00 0.  1.
         11    1    1    2    0    0 -0.59298059126E+02  0.11724082912E+02 -0.12259673895E+03  0.13668823774E+03  0.00000000000E+00 0. -1.
<mgrwt>
<rscale>  0 0.12444077E+03</rscale>
<asrwt>0</asrwt>
<pdfrwt beam="2">  1        2 0.51178405E-01 0.13449339E+03</pdfrwt>
<pdfrwt beam="1">  1       -2 0.11535376E-01 0.13449339E+03</pdfrwt>
<totfact> 0.49412280E+03</totfact>
</mgrwt>
</event>
<event>
 7    1  0.6387485E-006  0.1316987E+03  0.7546771E-02  0.1238370E+00
         -1   -1    0    0    0  501 -0.00000000000E+00  0.00000000000E+00  0.68212202426E+02  0.68212202426E+02  0.00000000000E+00 0. -1.
          1   -1    0    0  501    0  0.00000000000E+00 -0.00000000000E+00 -0.19837503998E+03  0.19837503998E+03  0.00000000000E+00 0.  1.
         23    2    1    2    0    0 -0.40810127564E+02  0.73106748363E+01 -0.61476076500E+02  0.14534045131E+03  0.12500250528E+03 0.  0.
          5    1    3    3  502    0 -0.27079714290E+02 -0.55688145755E+02 -0.10436046888E+02  0.62972069827E+02  0.47000000000E+01 0.  1.
         -5    1    3    3    0  502 -0.13730413274E+02  0.62998820591E+02 -0.51040029612E+02  0.82368381478E+02  0.47000000000E+01 0.  1.
        -11    1    1    2    0    0  0.41006491388E+02 -0.32686355215E+02 -0.49845625063E+01  0.52676142765E+02  0.00000000000E+00 0. -1.
         11    1    1    2    0    0 -0.19636382381E+00  0.25375680379E+02 -0.63702198544E+02  0.68570648333E+02  0.00000000000E+00 0.  1.
<mgrwt>
<rscale>  0 0.12291169E+03</rscale>
<asrwt>0</asrwt>
<pdfrwt beam="2">  1        1 0.30519237E-01 0.13169867E+03</pdfrwt>
<pdfrwt beam="1">  1       -1 0.10494185E-01 0.13169867E+03</pdfrwt>
<totfact> 0.79174832E+03</totfact>
</mgrwt>
</event>
<event>
 7    1  0.6387485E-006  0.1256247E+03  0.7546771E-02  0.1249075E+00
         -1   -1    0    0    0  501 -0.00000000000E+00  0.00000000000E+00  0.28820823159E+02  0.28820823159E+02  0.00000000000E+00 0.  1.
          1   -1    0    0  501    0  0.00000000000E+00 -0.00000000000E+00 -0.41986888056E+03  0.41986888056E+03  0.00000000000E+00 0. -1.
         23    2    1    2    0    0  0.28016632453E+00 -0.12527579819E+02 -0.19751132972E+03  0.23407755381E+03  0.12499822831E+03 0.  0.
          5    1    3    3  502    0  0.29149610548E+02 -0.43221465243E+02 -0.18126735730E+03  0.18867363270E+03  0.47000000000E+01 0. -1.
         -5    1    3    3    0  502 -0.28869444224E+02  0.30693885424E+02 -0.16243972421E+02  0.45403921110E+02  0.47000000000E+01 0. -1.
        -11    1    1    2    0    0  0.37118622312E+01  0.32839110788E+02 -0.19090614786E+03  0.19374556101E+03  0.00000000000E+00 0. -1.
         11    1    1    2    0    0 -0.39920285558E+01 -0.20311530969E+02 -0.26305798173E+01  0.20866588904E+02  0.00000000000E+00 0.  1.
<mgrwt>
<rscale>  0 0.11644766E+03</rscale>
<asrwt>0</asrwt>
<pdfrwt beam="2">  1        1 0.64595208E-01 0.12562474E+03</pdfrwt>
<pdfrwt beam="1">  1       -1 0.44339731E-02 0.12562474E+03</pdfrwt>
<totfact> 0.11297477E+04</totfact>
</mgrwt>
</event>
<event>
 6    1  0.6387485E-006  0.6725857E+03  0.7546771E-02  0.9765298E-01
         -2   -1    0    0    0  501 -0.00000000000E+00  0.00000000000E+00  0.23632468756E+03  0.23632468756E+03  0.00000000000E+00 0.  1.
          2   -1    0    0  501    0  0.00000000000E+00 -0.00000000000E+00 -0.47854871412E+03  0.47854871412E+03  0.00000000000E+00 0. -1.
          5    1    1    2  502    0  0.80683385877E+02 -0.69631826342E+02  0.78727431581E+02  0.13258392995E+03  0.47000000000E+01 0. -1.
         -5    1    1    2    0  502  0.11091275414E+03  0.45376147116E+02  0.29529403387E+02  0.12350995678E+03  0.47000000000E+01 0.  1.
        -11    1    1    2    0    0 -0.73020438960E+02  0.12027290721E+03 -0.13703318421E+03  0.19640684888E+03  0.00000000000E+00 0.  1.
         11    1    1    2    0    0 -0.11857570106E+03 -0.96017227981E+02 -0.21344767732E+03  0.26237266608E+03  0.00000000000E+00 0. -1.
<mgrwt>
<rscale>  0 0.67258568E+03</rscale>
<asrwt>0</asrwt>
<pdfrwt beam="2">  1        2 0.73622878E-01 0.67258568E+03</pdfrwt>
<pdfrwt beam="1">  1       -2 0.36357645E-01 0.67258568E+03</pdfrwt>
<totfact> 0.46481758E+02</totfact>
</mgrwt>
</event>
<event>
 7    1  0.6387485E-006  0.1517652E+03  0.7546771E-02  0.1206269E+00
          2   -1    0    0  501    0  0.00000000000E+00  0.00000000000E+00  0.11331599241E+04  0.11331599241E+04  0.00000000000E+00 0. -1.
         -2   -1    0    0    0  501 -0.00000000000E+00 -0.00000000000E+00 -0.17267056461E+02  0.17267056461E+02  0.00000000000E+00 0.  1.
         23    2    1    2    0    0  0.25540665436E+02 -0.82192716582E+02  0.62766440739E+03  0.64575172873E+03  0.12499887443E+03 0.  0.
          5    1    3    3  502    0  0.72369836080E+02 -0.72764690616E+02  0.46130912775E+03  0.47261008740E+03  0.47000000000E+01 0. -1.
         -5    1    3    3    0  502 -0.46829170644E+02 -0.94280259664E+01  0.16635527965E+03  0.17314164133E+03  0.47000000000E+01 0. -1.
        -11    1    1    2    0    0 -0.60304027168E+02  0.63083596003E+02  0.36139994892E+03  0.37178762601E+03  0.00000000000E+00 0.  1.
         11    1    1    2    0    0  0.34763361732E+02  0.19109120579E+02  0.12682851131E+03  0.13288762579E+03  0.00000000000E+00 0. -1.
<mgrwt>
<rscale>  0 0.14537936E+03</rscale>
<asrwt>0</asrwt>
<pdfrwt beam="1">  1        2 0.17433224E+00 0.15176524E+03</pdfrwt>
<pdfrwt beam="2">  1       -2 0.26564711E-02 0.15176524E+03</pdfrwt>
<totfact> 0.10779680E+04</totfact>
</mgrwt>
</event>
<event>
 6    1  0.6387485E-006  0.2991942E+03  0.7546771E-02  0.1123169E+00
         -2   -1    0    0    0  501 -0.00000000000E+00  0.00000000000E+00  0.64210020645E+02  0.64210020645E+02  0.00000000000E+00 0.  1.
          2   -1    0    0  501    0  0.00000000000E+00 -0.00000000000E+00 -0.89267006271E+03  0.89267006271E+03  0.00000000000E+00 0. -1.
          5    1    1    2  502    0 -0.16715032534E+03 -0.24316223566E+02 -0.13274251278E+03  0.21487944222E+03  0.47000000000E+01 0. -1.
         -5    1    1    2    0  502  0.10556295599E+03  0.55797320252E+02 -0.19666802566E+03  0.23012449010E+03  0.47000000000E+01 0.  1.
        -11    1    1    2    0    0  0.23204475599E+02  0.31096842585E+02 -0.13330518950E+03  0.13883708026E+03  0.00000000000E+00 0.  1.
         11    1    1    2    0    0  0.38382893748E+02 -0.62577939271E+02 -0.36574431413E+03  0.37303907078E+03  0.00000000000E+00 0. -1.
<mgrwt>
<rscale>  0 0.23500060E+03</rscale>
<asrwt>0</asrwt>
<pdfrwt beam="2">  1        2 0.13733384E+00 0.29919425E+03</pdfrwt>
<pdfrwt beam="1">  1       -2 0.98784658E-02 0.29919425E+03</pdfrwt>
<totfact> 0.20781265E+03</totfact>
</mgrwt>
</event>
<event>
 7    1  0.6387485E-006  0.2107919E+03  0.7546771E-02  0.1144758E+00
          2   -1    0    0  501    0  0.00000000000E+00  0.00000000000E+00  0.13037382235E+04  0.13037382235E+04  0.00000000000E+00 0. -1.
         -2   -1    0    0    0  501 -0.00000000000E+00 -0.00000000000E+00 -0.31735703122E+02  0.31735703122E+02  0.00000000000E+00 0.  1.
         23    2    1    2    0    0 -0.15969591769E+03 -0.57448937189E+02  0.75418947198E+03  0.78309320854E+03  0.12502018681E+03 0.  0.
          5    1    3    3  502    0 -0.72815243381E+02  0.35305926215E+02  0.23627776888E+03  0.24979560077E+03  0.47000000000E+01 0.  1.
         -5    1    3    3    0  502 -0.86880674312E+02 -0.92754863405E+02  0.51791170310E+03  0.53329760778E+03  0.47000000000E+01 0.  1.
        -11    1    1    2    0    0  0.87493050733E+02  0.71473547472E+02  0.24442738314E+03  0.26927355522E+03  0.00000000000E+00 0.  1.
         11    1    1    2    0    0  0.72202866960E+02 -0.14024610282E+02  0.27338566526E+03  0.28310716285E+03  0.00000000000E+00 0. -1.
<mgrwt>
<rscale>  0 0.20601885E+03</rscale>
<asrwt>0</asrwt>
<pdfrwt beam="1">  1        2 0.20057507E+00 0.21079187E+03</pdfrwt>
<pdfrwt beam="2">  1       -2 0.48824169E-02 0.21079187E+03</pdfrwt>
<totfact> 0.35323508E+03</totfact>
</mgrwt>
</event>
<event>
 7    1  0.6387485E-006  0.1300197E+03  0.7546771E-02  0.1241488E+00
          1   -1    0    0  501    0  0.00000000000E+00  0.00000000000E+00  0.89695063888E+03  0.89695063888E+03  0.00000000000E+00 0. -1.
         -1   -1    0    0    0  501 -0.00000000000E+00 -0.00000000000E+00 -0.14469961515E+02  0.14469961515E+02  0.00000000000E+00 0.  1.
         23    2    1    2    0    0 -0.25970964628E+02 -0.24664238019E+02  0.52976692611E+03  0.54548887158E+03  0.12498918906E+03 0.  0.
          5    1    3    3  502    0 -0.53445438254E+01 -0.20574462266E+02  0.52219754113E+03  0.52265115957E+03  0.47000000000E+01 0.  1.
         -5    1    3    3    0  502 -0.20626420802E+02 -0.40897757536E+01  0.75693849849E+01  0.22837712010E+02  0.47000000000E+01 0.  1.
        -11    1    1    2    0    0 -0.32072336604E+02  0.18039647048E+02  0.10005900261E+03  0.10661082330E+03  0.00000000000E+00 0.  1.
         11    1    1    2    0    0  0.58043301232E+02  0.66245909718E+01  0.25265474865E+03  0.25932090551E+03  0.00000000000E+00 0. -1.
<mgrwt>
<rscale>  0 0.12098088E+03</rscale>
<asrwt>0</asrwt>
<pdfrwt beam="1">  1        1 0.13799236E+00 0.13001966E+03</pdfrwt>
<pdfrwt beam="2">  1       -1 0.22261486E-02 0.13001966E+03</pdfrwt>
<totfact> 0.10785182E+04</totfact>
</mgrwt>
</event>
<event>
 7    1  0.6387485E-006  0.1272497E+03  0.7546771E-02  0.1246475E+00
          2   -1    0    0  501    0  0.00000000000E+00  0.00000000000E+00  0.26621518385E+03  0.26621518385E+03  0.00000000000E+00 0. -1.
         -2   -1    0    0    0  501 -0.00000000000E+00 -0.00000000000E+00 -0.46042287336E+02  0.46042287336E+02  0.00000000000E+00 0.  1.
         23    2    1    2    0    0 -0.23800550535E+02  0.66881199691E+00  0.12071729327E+03  0.17539999621E+03  0.12500232102E+03 0.  0.
          5    1    3    3  502    0  0.28765699747E+02  0.45108735966E+02  0.76438220147E+02  0.93419243423E+02  0.47000000000E+01 0.  1.
         -5    1    3    3    0  502 -0.52566250282E+02 -0.44439923969E+02  0.44279073122E+02  0.81980752788E+02  0.47000000000E+01 0.  1.
        -11    1    1    2    0    0  0.34430758499E+02  0.33290473421E+02  0.86714063266E+02  0.99060898035E+02  0.00000000000E+00 0. -1.
         11    1    1    2    0    0 -0.10630207964E+02 -0.33959285418E+02  0.12741539979E+02  0.37796576941E+02  0.00000000000E+00 0.  1.
<mgrwt>
<rscale>  0 0.11797508E+03</rscale>
<asrwt>0</asrwt>
<pdfrwt beam="1">  1        2 0.40956181E-01 0.12724973E+03</pdfrwt>
<pdfrwt beam="2">  1       -2 0.70834290E-02 0.12724973E+03</pdfrwt>
<totfact> 0.13320523E+04</totfact>
</mgrwt>
</event>
<event>
 7    1  0.6387485E-006  0.1320716E+03  0.7546771E-02  0.1236862E+00
          2   -1    0    0  501    0  0.00000000000E+00  0.00000000000E+00  0.47602924518E+03  0.47602924518E+03  0.00000000000E+00 0. -1.
         -2   -1    0    0    0  501 -0.00000000000E+00 -0.00000000000E+00 -0.31238544387E+02  0.31238544387E+02  0.00000000000E+00 0.  1.
         23    2    1    2    0    0 -0.41622175795E+02 -0.92293135880E+01  0.17846648531E+03  0.22202072826E+03  0.12500132659E+03 0.  0.
          5    1    3    3  502    0  0.33987876101E+02 -0.74971786388E+01  0.88071224367E+01  0.36208269981E+02  0.47000000000E+01 0. -1.
         -5    1    3    3    0  502 -0.75610051896E+02 -0.17321349492E+01  0.16965936288E+03  0.18581245828E+03  0.47000000000E+01 0. -1.
        -11    1    1    2    0    0  0.32498228107E+02 -0.30035390665E+02  0.57443301296E+02  0.72512015462E+02  0.00000000000E+00 0.  1.
         11    1    1    2    0    0  0.91239476877E+01  0.39264704253E+02  0.20888091418E+03  0.21273504585E+03  0.00000000000E+00 0. -1.
<mgrwt>
<rscale>  0 0.12385989E+03</rscale>
<asrwt>0</asrwt>
<pdfrwt beam="1">  1        2 0.73235264E-01 0.13207164E+03</pdfrwt>
<pdfrwt beam="2">  1       -2 0.48059302E-02 0.13207164E+03</pdfrwt>
<totfact> 0.12937025E+04</totfact>
</mgrwt>
</event>
<event>
 7    1  0.6387485E-006  0.1685308E+03  0.7546771E-02  0.1186035E+00
         -1   -1    0    0    0  501 -0.00000000000E+00  0.00000000000E+00  0.64263831954E+03  0.64263831954E+03  0.00000000000E+00 0.  1.
          1   -1    0    0  501    0  0.00000000000E+00 -0.00000000000E+00 -0.47922128105E+02  0.47922128105E+02  0.00000000000E+00 0. -1.
         23    2    1    2    0    0 -0.90817709544E+02 -0.67304901761E+02  0.46936795582E+03  0.49870724547E+03  0.12499933028E+03 0.  0.
          5    1    3    3  502    0 -0.11298697586E+03 -0.20965941823E+02  0.28708424664E+03  0.30926539104E+03  0.47000000000E+01 0. -1.
         -5    1    3    3    0  502  0.22169266312E+02 -0.46338959938E+02  0.18228370918E+03  0.18944185443E+03  0.47000000000E+01 0. -1.
        -11    1    1    2    0    0  0.36725482005E+02  0.51306654683E+02  0.11950987397E+03  0.13514341945E+03  0.00000000000E+00 0.  1.
         11    1    1    2    0    0  0.54092227539E+02  0.15998247078E+02  0.58383616420E+01  0.56709782722E+02  0.00000000000E+00 0. -1.
<mgrwt>
<rscale>  0 0.16238023E+03</rscale>
<asrwt>0</asrwt>
<pdfrwt beam="2">  1        1 0.73726356E-02 0.16853082E+03</pdfrwt>
<pdfrwt beam="1">  1       -1 0.98867427E-01 0.16853082E+03</pdfrwt>
<totfact> 0.99529993E+02</totfact>
</mgrwt>
</event>
<event>
 7    1  0.6387485E-006  0.1256602E+03  0.7546771E-02  0.1249193E+00
          1   -1    0    0  501    0  0.00000000000E+00  0.00000000000E+00  0.10064099742E+03  0.10064099742E+03  0.00000000000E+00 0. -1.
         -1   -1    0    0    0  501 -0.00000000000E+00 -0.00000000000E+00 -0.12075496537E+03  0.12075496537E+03  0.00000000000E+00 0.  1.
         23    2    1    2    0    0 -0.42780478514E+01 -0.12087118473E+02 -0.27561027935E+02  0.12864716484E+03  0.12500433047E+03 0.  0.
          5    1    3    3  502    0  0.20320940528E+02 -0.62600602291E+02 -0.29397578448E+02  0.72236304236E+02  0.47000000000E+01 0.  1.
         -5    1    3    3    0  502 -0.24598988380E+02  0.50513483818E+02  0.18365505131E+01  0.56410860608E+02  0.47000000000E+01 0.  1.
        -11    1    1    2    0    0 -0.94668200988E+00  0.24551925053E+02  0.45860153404E+02  0.52027366846E+02  0.00000000000E+00 0. -1.
         11    1    1    2    0    0  0.52247298612E+01 -0.12464806581E+02 -0.38413093416E+02  0.40721431102E+02  0.00000000000E+00 0.  1.
<mgrwt>
<rscale>  0 0.11637890E+03</rscale>
<asrwt>0</asrwt>
<pdfrwt beam="1">  1        1 0.15483230E-01 0.12566019E+03</pdfrwt>
<pdfrwt beam="2">  1       -1 0.18577687E-01 0.12566019E+03</pdfrwt>
<totfact> 0.76391526E+03</totfact>
</mgrwt>
</event>
<event>
 6    1  0.6387485E-006  0.1721843E+03  0.7546771E-02  0.1193753E+00
          2   -1    0    0  501    0  0.00000000000E+00  0.00000000000E+00  0.16662079731E+03  0.16662079731E+03  0.00000000000E+00 0. -1.
         -2   -1    0    0    0  501 -0.00000000000E+00 -0.00000000000E+00 -0.12602616690E+03  0.12602616690E+03  0.00000000000E+00 0.  1.
          5    1    1    2  502    0  0.70763267829E+02  0.49533232416E+02  0.43507235082E+02  0.96829492883E+02  0.47000000000E+01 0. -1.
         -5    1    1    2    0  502 -0.61099839373E+02  0.20050996929E+02 -0.39108699681E+02  0.75410962333E+02  0.47000000000E+01 0.  1.
        -11    1    1    2    0    0 -0.35648643141E+02 -0.49854016544E+02 -0.11757660432E+02  0.62405859518E+02  0.00000000000E+00 0. -1.
         11    1    1    2    0    0  0.25985214684E+02 -0.19730212801E+02  0.47953755439E+02  0.58000649480E+02  0.00000000000E+00 0.  1.
<mgrwt>
<rscale>  0 0.15560220E+03</rscale>
<asrwt>0</asrwt>
<pdfrwt beam="1">  1        2 0.25633969E-01 0.17218428E+03</pdfrwt>
<pdfrwt beam="2">  1       -2 0.19388641E-01 0.17218428E+03</pdfrwt>
<totfact> 0.45002324E+03</totfact>
</mgrwt>
</event>
<event>
 6    1  0.6387485E-006  0.2246536E+03  0.7546771E-02  0.1142842E+00
          1   -1    0    0  501    0  0.00000000000E+00  0.00000000000E+00  0.13559047483E+03  0.13559047483E+03  0.00000000000E+00 0.  1.
         -1   -1    0    0    0  501 -0.00000000000E+00 -0.00000000000E+00 -0.44633190441E+03  0.44633190441E+03  0.00000000000E+00 0. -1.
          5    1    1    2  502    0  0.32307677846E+01  0.10626304870E+03 -0.23666957284E+03  0.25949344903E+03  0.47000000000E+01 0. -1.
         -5    1    1    2    0  502 -0.10679991087E+03  0.40203540460E+01 -0.10869813787E+03  0.15251150575E+03  0.47000000000E+01 0.  1.
        -11    1    1    2    0    0  0.33147021549E+02 -0.63050705840E+02 -0.13376419016E+02  0.72477894079E+02  0.00000000000E+00 0. -1.
         11    1    1    2    0    0  0.70422121541E+02 -0.47232696910E+02  0.48002700149E+02  0.97439530384E+02  0.00000000000E+00 0.  1.
<mgrwt>
<rscale>  0 0.20839722E+03</rscale>
<asrwt>0</asrwt>
<pdfrwt beam="1">  1        1 0.20860073E-01 0.22465357E+03</pdfrwt>
<pdfrwt beam="2">  1       -1 0.68666448E-01 0.22465357E+03</pdfrwt>
<totfact> 0.54018350E+02</totfact>
</mgrwt>
</event>
<event>
 7    1  0.6387485E-006  0.1365345E+03  0.7546771E-02  0.1231869E+00
         -2   -1    0    0    0  501 -0.00000000000E+00  0.00000000000E+00  0.33378919945E+02  0.33378919945E+02  0.00000000000E+00 0.  1.
          2   -1    0    0  501    0  0.00000000000E+00 -0.00000000000E+00 -0.51368577706E+03  0.51368577706E+03  0.00000000000E+00 0. -1.
         23    2    1    2    0    0  0.52119059501E+02 -0.17317734226E+02 -0.15773530377E+03  0.20861953022E+03  0.12500152820E+03 0.  0.
          5    1    3    3  502    0  0.30523189516E+02 -0.53575414299E+02 -0.20787369847E+02  0.65239519164E+02  0.47000000000E+01 0.  1.
         -5    1    3    3    0  502  0.21595869984E+02  0.36257680073E+02 -0.13694793392E+03  0.14338001105E+03  0.47000000000E+01 0.  1.
        -11    1    1    2    0    0 -0.21375985327E+02  0.43880725477E+02 -0.90306773356E+02  0.10265361236E+03  0.00000000000E+00 0.  1.
         11    1    1    2    0    0 -0.30743074173E+02 -0.26562991252E+02 -0.23226477999E+03  0.23579155442E+03  0.00000000000E+00 0. -1.
<mgrwt>
<rscale>  0 0.12706997E+03</rscale>
<asrwt>0</asrwt>
<pdfrwt beam="2">  1        2 0.79028588E-01 0.13653455E+03</pdfrwt>
<pdfrwt beam="1">  1       -2 0.51352180E-02 0.13653455E+03</pdfrwt>
<totfact> 0.10800879E+04</totfact>
</mgrwt>
</event>
<event>
 7    1  0.6387485E-006  0.2244989E+03  0.7546771E-02  0.1133633E+00
         -2   -1    0    0    0  501 -0.00000000000E+00  0.00000000000E+00  0.19731467169E+03  0.19731467169E+03  0.00000000000E+00 0.  1.
          2   -1    0    0  501    0  0.00000000000E+00 -0.00000000000E+00 -0.32453812580E+03  0.32453812580E+03  0.00000000000E+00 0. -1.
         23    2    1    2    0    0  0.12365795583E+03 -0.13958521988E+03  0.69833970447E+02  0.23510963888E+03  0.12499774085E+03 0.  0.
          5    1    3    3  502    0  0.79793613773E+02 -0.80555158486E+02  0.10395619640E+03  0.15389975675E+03  0.47000000000E+01 0.  1.
         -5    1    3    3    0  502  0.43864342054E+02 -0.59030061396E+02 -0.34122225952E+02  0.81209882134E+02  0.47000000000E+01 0.  1.
        -11    1    1    2    0    0 -0.42369328781E+02  0.63123741962E+02 -0.22007986487E+02  0.79146183040E+02  0.00000000000E+00 0.  1.
         11    1    1    2    0    0 -0.81288627046E+02  0.76461477920E+02 -0.17504943807E+03  0.20759697556E+03  0.00000000000E+00 0. -1.
<mgrwt>
<rscale>  0 0.22033546E+03</rscale>
<asrwt>0</asrwt>
<pdfrwt beam="2">  1        2 0.49928943E-01 0.22449891E+03</pdfrwt>
<pdfrwt beam="1">  1       -2 0.30356103E-01 0.22449891E+03</pdfrwt>
<totfact> 0.10033927E+03</totfact>
</mgrwt>
</event>
<event>
 7    1  0.6387485E-006  0.1324456E+03  0.7546771E-02  0.1235401E+00
         -1   -1    0    0    0  501 -0.00000000000E+00  0.00000000000E+00  0.30249877863E+02  0.30249877863E+02  0.00000000000E+00 0.  1.
          1   -1    0    0  501    0  0.00000000000E+00 -0.00000000000E+00 -0.47213632886E+03  0.47213632886E+03  0.00000000000E+00 0. -1.
         23    2    1    2    0    0  0.69303938311E+01 -0.43223584615E+02 -0.28042417921E+03  0.31012828367E+03  0.12500209367E+03 0.  0.
          5    1    3    3  502    0  0.28770338923E+02 -0.78752071279E+02 -0.13698488304E+03  0.16067535378E+03  0.47000000000E+01 0. -1.
         -5    1    3    3    0  502 -0.21839945092E+02  0.35528486664E+02 -0.14343929617E+03  0.14945292989E+03  0.47000000000E+01 0. -1.
        -11    1    1    2    0    0 -0.20578241742E+02  0.64679897248E+02 -0.14943644570E+03  0.16412862165E+03  0.00000000000E+00 0. -1.
         11    1    1    2    0    0  0.13647847910E+02 -0.21456312633E+02 -0.12025826093E+02  0.28129301407E+02  0.00000000000E+00 0.  1.
<mgrwt>
<rscale>  0 0.12478769E+03</rscale>
<asrwt>0</asrwt>
<pdfrwt beam="2">  1        1 0.72636364E-01 0.13244558E+03</pdfrwt>
<pdfrwt beam="1">  1       -1 0.46538270E-02 0.13244558E+03</pdfrwt>
<totfact> 0.90929761E+03</totfact>
</mgrwt>
</event>
<event>
 7    1  0.6387485E-006  0.1257755E+03  0.7546771E-02  0.1250700E+00
         -2   -1    0    0    0  501 -0.00000000000E+00  0.00000000000E+00  0.12127415888E+03  0.12127415888E+03  0.00000000000E+00 0.  1.
          2   -1    0    0  501    0  0.00000000000E+00 -0.00000000000E+00 -0.10976414573E+03  0.10976414573E+03  0.00000000000E+00 0. -1.
         23    2    1    2    0    0 -0.10692648188E+02 -0.90257351151E+01  0.47725152268E+02  0.13452572550E+03  0.12499473606E+03 0.  0.
          5    1    3    3  502    0  0.45722886238E+00  0.57019241154E+02  0.32036037672E+02  0.65572865041E+02  0.47000000000E+01 0. -1.
         -5    1    3    3    0  502 -0.11149877050E+02 -0.66044976269E+02  0.15689114595E+02  0.68952860458E+02  0.47000000000E+01 0. -1.
        -11    1    1    2    0    0  0.31654383420E+02  0.29738530332E+02 -0.48037260349E+02  0.64760779472E+02  0.00000000000E+00 0. -1.
         11    1    1    2    0    0 -0.20961735232E+02 -0.20712795217E+02  0.11822121227E+02  0.31751799633E+02  0.00000000000E+00 0.  1.
<mgrwt>
<rscale>  0 0.11550603E+03</rscale>
<asrwt>0</asrwt>
<pdfrwt beam="2">  1        2 0.16886792E-01 0.12577552E+03</pdfrwt>
<pdfrwt beam="1">  1       -2 0.18657563E-01 0.12577552E+03</pdfrwt>
<totfact> 0.75336537E+03</totfact>
</mgrwt>
</event>
<event>
 7    1  0.6387485E-006  0.1443860E+03  0.7546771E-02  0.1217536E+00
         -2   -1    0    0    0  501 -0.00000000000E+00  0.00000000000E+00  0.38125614026E+03  0.38125614026E+03  0.00000000000E+00 0.  1.
          2   -1    0    0  501    0  0.00000000000E+00 -0.00000000000E+00 -0.51173298207E+02  0.51173298207E+02  0.00000000000E+00 0. -1.
         23    2    1    2    0    0 -0.71938251014E+02  0.68446065369E+01  0.25671833276E+03  0.29453628209E+03  0.12500143397E+03 0.  0.
          5    1    3    3  502    0 -0.33329903070E+02 -0.35994965008E+01  0.25168545001E+03  0.25395175637E+03  0.47000000000E+01 0.  1.
         -5    1    3    3    0  502 -0.38608347945E+02  0.10444103038E+02  0.50328827428E+01  0.40584525721E+02  0.47000000000E+01 0.  1.
        -11    1    1    2    0    0  0.13853259939E+02  0.38668788397E+02  0.38426729226E+02  0.56247680184E+02  0.00000000000E+00 0. -1.
         11    1    1    2    0    0  0.58084991075E+02 -0.45513394934E+02  0.34937780068E+02  0.81645476192E+02  0.00000000000E+00 0.  1.
<mgrwt>
<rscale>  0 0.13691923E+03</rscale>
<asrwt>0</asrwt>
<pdfrwt beam="2">  1        2 0.78728154E-02 0.14438601E+03</pdfrwt>
<pdfrwt beam="1">  1       -2 0.58654789E-01 0.14438601E+03</pdfrwt>
<totfact> 0.23237060E+03</totfact>
</mgrwt>
</event>
<event>
 7    1  0.6387485E-006  0.2365117E+03  0.7546771E-02  0.1125071E+00
         -1   -1    0    0    0  501 -0.00000000000E+00  0.00000000000E+00  0.21623086547E+03  0.21623086547E+03  0.00000000000E+00 0.  1.
          1   -1    0    0  501    0  0.00000000000E+00 -0.00000000000E+00 -0.66249166674E+03  0.66249166674E+03  0.00000000000E+00 0. -1.
         23    2    1    2    0    0  0.17463445220E+03  0.99066530635E+02  0.12434878717E+03  0.26720854748E+03  0.12500567021E+03 0.  0.
          5    1    3    3  502    0  0.25624768603E+02  0.26353888630E+00  0.78304163194E+02  0.82524724733E+02  0.47000000000E+01 0.  1.
         -5    1    3    3    0  502  0.14900968360E+03  0.98802991749E+02  0.46044623980E+02  0.18468382274E+03  0.47000000000E+01 0.  1.
        -11    1    1    2    0    0 -0.12195331683E+03 -0.81972513605E+02 -0.50348624246E+03  0.52449070613E+03  0.00000000000E+00 0. -1.
         11    1    1    2    0    0 -0.52681135376E+02 -0.17094017031E+02 -0.67123345985E+02  0.87023278603E+02  0.00000000000E+00 0.  1.
<mgrwt>
<rscale>  0 0.23224351E+03</rscale>
<asrwt>0</asrwt>
<pdfrwt beam="2">  1        1 0.10192179E+00 0.23651171E+03</pdfrwt>
<pdfrwt beam="1">  1       -1 0.33266287E-01 0.23651171E+03</pdfrwt>
<totfact> 0.26452788E+02</totfact>
</mgrwt>
</event>
<event>
 7    1  0.6387485E-006  0.1909441E+03  0.7546771E-02  0.1162263E+00
         -2   -1    0    0    0  501 -0.00000000000E+00  0.00000000000E+00  0.27416511445E+02  0.27416511445E+02  0.00000000000E+00 0. -1.
          2   -1    0    0  501    0  0.00000000000E+00 -0.00000000000E+00 -0.11991372137E+04  0.11991372137E+04  0.00000000000E+00 0.  1.
         23    2    1    2    0    0 -0.13451039816E+03 -0.52359095824E+02 -0.64402668088E+03  0.67173656459E+03  0.12500049752E+03 0.  0.
          5    1    3    3  502    0 -0.13961551029E+03 -0.53752196567E+02 -0.39190687323E+03  0.41951743305E+03  0.47000000000E+01 0. -1.
         -5    1    3    3    0  502  0.51051121300E+01  0.13931007431E+01 -0.25211980766E+03  0.25221913153E+03  0.47000000000E+01 0. -1.
        -11    1    1    2    0    0  0.65076544833E+02  0.66418542808E+02 -0.21583771840E+03  0.23501553183E+03  0.00000000000E+00 0.  1.
         11    1    1    2    0    0  0.69433853329E+02 -0.14059446984E+02 -0.31185630300E+03  0.31980162876E+03  0.00000000000E+00 0. -1.
<mgrwt>
<rscale>  0 0.18584514E+03</rscale>
<asrwt>0</asrwt>
<pdfrwt beam="2">  1        2 0.18448268E+00 0.19094409E+03</pdfrwt>
<pdfrwt beam="1">  1       -2 0.42179242E-02 0.19094409E+03</pdfrwt>
<totfact> 0.50252185E+03</totfact>
</mgrwt>
</event>
<event>
 7    1  0.6387485E-006  0.2312504E+03  0.7546771E-02  0.1126935E+00
          4   -1    0    0  501    0  0.00000000000E+00  0.00000000000E+00  0.50015148619E+02  0.50015148619E+02  0.00000000000E+00 0. -1.
         -4   -1    0    0    0  501 -0.00000000000E+00 -0.00000000000E+00 -0.14126991042E+04  0.14126991042E+04  0.00000000000E+00 0.  1.
         23    2    1    2    0    0  0.10902894563E+03  0.16108456453E+03 -0.10647911200E+04  0.10896131777E+04  0.12506478217E+03 0.  0.
          5    1    3    3  502    0  0.88663461962E+02  0.10456048546E+03 -0.41606573950E+03  0.43809461786E+03  0.47000000000E+01 0.  1.
         -5    1    3    3    0  502  0.20365483666E+02  0.56524079074E+02 -0.64872538053E+03  0.65151855982E+03  0.47000000000E+01 0.  1.
        -11    1    1    2    0    0 -0.61677294872E+00 -0.63053229704E+02 -0.16074105870E+03  0.17266666770E+03  0.00000000000E+00 0.  1.
         11    1    1    2    0    0 -0.10841217268E+03 -0.98031334829E+02 -0.13715177685E+03  0.20043440744E+03  0.00000000000E+00 0. -1.
<mgrwt>
<rscale>  0 0.22958043E+03</rscale>
<asrwt>0</asrwt>
<pdfrwt beam="1">  1        4 0.76946389E-02 0.23125040E+03</pdfrwt>
<pdfrwt beam="2">  1       -4 0.21733830E+00 0.23125040E+03</pdfrwt>
<totfact> 0.24020070E+01</totfact>
</mgrwt>
</event>
<event>
 7    1  0.6387485E-006  0.1573418E+03  0.7546771E-02  0.1199734E+00
         -1   -1    0    0    0  501 -0.00000000000E+00  0.00000000000E+00  0.19137654717E+03  0.19137654717E+03  0.00000000000E+00 0.  1.
          1   -1    0    0  501    0  0.00000000000E+00 -0.00000000000E+00 -0.11543019912E+03  0.11543019912E+03  0.00000000000E+00 0. -1.
         23    2    1    2    0    0 -0.86978808507E+02 -0.39570498535E+02  0.76005762321E+02  0.17473783504E+03  0.12500119042E+03 0.  0.
          5    1    3    3  502    0 -0.34152811367E+02 -0.54369129137E+02  0.96486019503E+02  0.11599163197E+03  0.47000000000E+01 0. -1.
         -5    1    3    3    0  502 -0.52825997140E+02  0.14798630602E+02 -0.20480257182E+02  0.58746203076E+02  0.47000000000E+01 0. -1.
        -11    1    1    2    0    0  0.19478507219E+02  0.56888122949E+02 -0.12138527155E+02  0.61343415438E+02  0.00000000000E+00 0. -1.
         11    1    1    2    0    0  0.67500301288E+02 -0.17317624414E+02  0.12079112882E+02  0.70725495808E+02  0.00000000000E+00 0.  1.
<mgrwt>
<rscale>  0 0.15060285E+03</rscale>
<asrwt>0</asrwt>
<pdfrwt beam="2">  1        1 0.17758492E-01 0.15734178E+03</pdfrwt>
<pdfrwt beam="1">  1       -1 0.29442546E-01 0.15734178E+03</pdfrwt>
<totfact> 0.30599083E+03</totfact>
</mgrwt>
</event>
<event>
 7    1  0.6387485E-006  0.1155789E+03  0.7546771E-02  0.1257952E+00
          1   -1    0    0  501    0  0.00000000000E+00  0.00000000000E+00  0.98243401947E+02  0.98243401947E+02  0.00000000000E+00 0. -1.
         -1   -1    0    0    0  501 -0.00000000000E+00 -0.00000000000E+00 -0.31083354679E+03  0.31083354679E+03  0.00000000000E+00 0.  1.
         23    2    1    2    0    0 -0.11011537739E+02 -0.26458178214E+02 -0.27014789188E+03  0.29383389816E+03  0.11196958098E+03 0.  0.
          5    1    3    3  502    0  0.21298703964E+02 -0.26640851928E+02 -0.16655578010E+02  0.38247458227E+02  0.47000000000E+01 0. -1.
         -5    1    3    3    0  502 -0.32310241703E+02  0.18267371336E+00 -0.25349231387E+03  0.25558643994E+03  0.47000000000E+01 0.  1.
        -11    1    1    2    0    0  0.44734928096E+02 -0.12044983397E+02  0.15054670948E+02  0.48712816939E+02  0.00000000000E+00 0. -1.
         11    1    1    2    0    0 -0.33723390357E+02  0.38503161611E+02  0.42503076085E+02  0.66530233638E+02  0.00000000000E+00 0.  1.
<mgrwt>
<rscale>  0 0.11142566E+03</rscale>
<asrwt>0</asrwt>
<pdfrwt beam="1">  1        1 0.15114370E-01 0.11557887E+03</pdfrwt>
<pdfrwt beam="2">  1       -1 0.47820545E-01 0.11557887E+03</pdfrwt>
<totfact> 0.16002843E+03</totfact>
</mgrwt>
</event>
<event>
 7    1  0.6387485E-006  0.1463256E+03  0.7546771E-02  0.1214638E+00
         -1   -1    0    0    0  501 -0.00000000000E+00  0.00000000000E+00  0.10757753281E+03  0.10757753281E+03  0.00000000000E+00 0.  1.
          1   -1    0    0  501    0  0.00000000000E+00 -0.00000000000E+00 -0.16512217609E+03  0.16512217609E+03  0.00000000000E+00 0. -1.
         23    2    1    2    0    0 -0.28474288568E+02  0.70499640561E+02 -0.20099332759E+02  0.14769959335E+03  0.12502080734E+03 0.  0.
          5    1    3    3  502    0  0.46598648099E+02  0.68916408567E+01 -0.96328804943E+00  0.47349198961E+02  0.47000000000E+01 0. -1.
         -5    1    3    3    0  502 -0.75072936667E+02  0.63607999704E+02 -0.19136044710E+02  0.10035039439E+03  0.47000000000E+01 0. -1.
        -11    1    1    2    0    0 -0.38545064655E+01 -0.14591233101E+02  0.28780501938E+02  0.32497362898E+02  0.00000000000E+00 0.  1.
         11    1    1    2    0    0  0.32328795033E+02 -0.55908407459E+02 -0.66225812454E+02  0.92502752652E+02  0.00000000000E+00 0. -1.
<mgrwt>
<rscale>  0 0.13903166E+03</rscale>
<asrwt>0</asrwt>
<pdfrwt beam="2">  1        1 0.25403412E-01 0.14632562E+03</pdfrwt>
<pdfrwt beam="1">  1       -1 0.16550390E-01 0.14632562E+03</pdfrwt>
<totfact> 0.49384747E+03</totfact>
</mgrwt>
</event>
<event>
 7    1  0.6387485E-006  0.1912206E+03  0.7546771E-02  0.1163093E+00
         -2   -1    0    0    0  501 -0.00000000000E+00  0.00000000000E+00  0.13234063654E+03  0.13234063654E+03  0.00000000000E+00 0.  1.
          2   -1    0    0  501    0  0.00000000000E+00 -0.00000000000E+00 -0.32674227460E+03  0.32674227460E+03  0.00000000000E+00 0. -1.
         23    2    1    2    0    0  0.11221162937E+03  0.91368675533E+02  0.14079776943E+02  0.19173824451E+03  0.12500251859E+03 0.  0.
          5    1    3    3  502    0  0.13637196092E+03  0.74981501924E+02  0.29379849629E+02  0.15844495233E+03  0.47000000000E+01 0.  1.
         -5    1    3    3    0  502 -0.24160331553E+02  0.16387173609E+02 -0.15300072685E+02  0.33293292174E+02  0.47000000000E+01 0.  1.
        -11    1    1    2    0    0 -0.36775481371E+02 -0.71073888000E+02 -0.14910355312E+03  0.16922116634E+03  0.00000000000E+00 0. -1.
         11    1    1    2    0    0 -0.75436147996E+02 -0.20294787533E+02 -0.59377861886E+02  0.98123500282E+02  0.00000000000E+00 0.  1.
<mgrwt>
<rscale>  0 0.18495350E+03</rscale>
<asrwt>0</asrwt>
<pdfrwt beam="2">  1        2 0.50268042E-01 0.19122059E+03</pdfrwt>
<pdfrwt beam="1">  1       -2 0.20360098E-01 0.19122059E+03</pdfrwt>
<totfact> 0.20068731E+03</totfact>
</mgrwt>
</event>
<event>
 7    1  0.6387485E-006  0.2045497E+03  0.7546771E-02  0.1149858E+00
         -1   -1    0    0    0  501 -0.00000000000E+00  0.00000000000E+00  0.14869065110E+03  0.14869065110E+03  0.00000000000E+00 0. -1.
          1   -1    0    0  501    0  0.00000000000E+00 -0.00000000000E+00 -0.31895893499E+03  0.31895893499E+03  0.00000000000E+00 0.  1.
         23    2    1    2    0    0 -0.15588738856E+03  0.43765137719E+02  0.14643905343E+02  0.20507323801E+03  0.12499729514E+03 0.  0.
          5    1    3    3  502    0 -0.16276432513E+03  0.21240916746E+02  0.41167116440E+02  0.16929330629E+03  0.47000000000E+01 0. -1.
         -5    1    3    3    0  502  0.68769365665E+01  0.22524220973E+02 -0.26523211097E+02  0.35779931720E+02  0.47000000000E+01 0. -1.
        -11    1    1    2    0    0  0.11174055402E+03 -0.24827735115E+02 -0.18129042009E+03  0.21440285507E+03  0.00000000000E+00 0.  1.
         11    1    1    2    0    0  0.44146834544E+02 -0.18937402603E+02 -0.36217691378E+01  0.48173493015E+02  0.00000000000E+00 0. -1.
<mgrwt>
<rscale>  0 0.19985936E+03</rscale>
<asrwt>0</asrwt>
<pdfrwt beam="2">  1        1 0.49070605E-01 0.20454972E+03</pdfrwt>
<pdfrwt beam="1">  1       -1 0.22875485E-01 0.20454972E+03</pdfrwt>
<totfact> 0.13034783E+03</totfact>
</mgrwt>
</event>
<event>
 7    1  0.6387485E-006  0.1327190E+03  0.7546771E-02  0.1236426E+00
          1   -1    0    0  501    0  0.00000000000E+00  0.00000000000E+00  0.79714070059E+03  0.79714070059E+03  0.00000000000E+00 0.  1.
         -1   -1    0    0    0  501 -0.00000000000E+00 -0.00000000000E+00 -0.17307226896E+02  0.17307226896E+02  0.00000000000E+00 0. -1.
         23    2    1    2    0    0  0.29798786175E+02 -0.33201158866E+02  0.47076598308E+03  0.48911648954E+03  0.12499617957E+03 0.  0.
          5    1    3    3  502    0  0.31238220156E+02  0.41194914609E+02  0.12404577610E+03  0.13447041294E+03  0.47000000000E+01 0.  1.
         -5    1    3    3    0  502 -0.14394339810E+01 -0.74396073475E+02  0.34672020697E+03  0.35464607659E+03  0.47000000000E+01 0.  1.
        -11    1    1    2    0    0 -0.61644264893E+02  0.22980319355E+02  0.16967640126E+03  0.18198404220E+03  0.00000000000E+00 0. -1.
         11    1    1    2    0    0  0.31845478718E+02  0.10220839510E+02  0.13939108936E+03  0.14334739575E+03  0.00000000000E+00 0.  1.
<mgrwt>
<rscale>  0 0.12413617E+03</rscale>
<asrwt>0</asrwt>
<pdfrwt beam="1">  1        1 0.12263700E+00 0.13271899E+03</pdfrwt>
<pdfrwt beam="2">  1       -1 0.26626509E-02 0.13271899E+03</pdfrwt>
<totfact> 0.99982048E+03</totfact>
</mgrwt>
</event>
<event>
 7    1  0.6387485E-006  0.2518436E+03  0.7546771E-02  0.1114567E+00
          2   -1    0    0  501    0  0.00000000000E+00  0.00000000000E+00  0.54322927616E+03  0.54322927616E+03  0.00000000000E+00 0.  1.
         -2   -1    0    0    0  501 -0.00000000000E+00 -0.00000000000E+00 -0.11190155052E+03  0.11190155052E+03  0.00000000000E+00 0. -1.
         23    2    1    2    0    0 -0.20410993278E+03  0.78360516295E+02  0.26578395698E+03  0.36615066264E+03  0.12499584310E+03 0.  0.
          5    1    3    3  502    0 -0.93703361855E+02  0.68865985043E+02  0.21431515360E+03  0.24387685209E+03  0.47000000000E+01 0. -1.
         -5    1    3    3    0  502 -0.11040657092E+03  0.94945312520E+01  0.51468803377E+02  0.12227381056E+03  0.47000000000E+01 0. -1.
        -11    1    1    2    0    0  0.95626632077E+02 -0.45572945575E+02  0.13501355919E+03  0.17161004427E+03  0.00000000000E+00 0.  1.
         11    1    1    2    0    0  0.10848330070E+03 -0.32787570720E+02  0.30530209471E+02  0.11737011977E+03  0.00000000000E+00 0. -1.
<mgrwt>
<rscale>  0 0.24801228E+03</rscale>
<asrwt>0</asrwt>
<pdfrwt beam="1">  1        2 0.83573733E-01 0.25184359E+03</pdfrwt>
<pdfrwt beam="2">  1       -2 0.17215623E-01 0.25184359E+03</pdfrwt>
<totfact> 0.15361145E+03</totfact>
</mgrwt>
</event>
<event>
 7    1  0.6387485E-006  0.1592760E+03  0.7546771E-02  0.1197573E+00
         -2   -1    0    0    0  501 -0.00000000000E+00  0.00000000000E+00  0.48943599379E+02  0.48943599379E+02  0.00000000000E+00 0.  1.
          2   -1    0    0  501    0  0.00000000000E+00 -0.00000000000E+00 -0.47139920570E+03  0.47139920570E+03  0.00000000000E+00 0. -1.
         23    2    1    2    0    0 -0.81968333072E+02  0.55004416032E+02 -0.15920377647E+03  0.22519923796E+03  0.12499824368E+03 0.  0.
          5    1    3    3  502    0 -0.25820791065E+02  0.69249321560E+01 -0.14778241752E+03  0.15025445372E+03  0.47000000000E+01 0.  1.
         -5    1    3    3    0  502 -0.56147542007E+02  0.48079483876E+02 -0.11421358954E+02  0.74944784232E+02  0.47000000000E+01 0.  1.
        -11    1    1    2    0    0  0.20632968692E+02  0.24992080373E+02 -0.71792588101E+02  0.78768643410E+02  0.00000000000E+00 0. -1.
         11    1    1    2    0    0  0.61335364380E+02 -0.79996496405E+02 -0.19145924174E+03  0.21637492371E+03  0.00000000000E+00 0.  1.
<mgrwt>
<rscale>  0 0.15238433E+03</rscale>
<asrwt>0</asrwt>
<pdfrwt beam="2">  1        2 0.72522954E-01 0.15927603E+03</pdfrwt>
<pdfrwt beam="1">  1       -2 0.75297846E-02 0.15927603E+03</pdfrwt>
<totfact> 0.66916487E+03</totfact>
</mgrwt>
</event>
<event>
 7    1  0.6387485E-006  0.1268119E+03  0.7546771E-02  0.1245950E+00
          2   -1    0    0  501    0  0.00000000000E+00  0.00000000000E+00  0.25388234689E+03  0.25388234689E+03  0.00000000000E+00 0. -1.
         -2   -1    0    0    0  501 -0.00000000000E+00 -0.00000000000E+00 -0.54310241167E+02  0.54310241167E+02  0.00000000000E+00 0.  1.
         23    2    1    2    0    0  0.22100747613E+02  0.82789727460E+00  0.63926631842E+02  0.14201364429E+03  0.12486846058E+03 0.  0.
          5    1    3    3  502    0 -0.56126510266E+01  0.19832498815E+02 -0.33072094707E+02  0.39251538939E+02  0.47000000000E+01 0. -1.
         -5    1    3    3    0  502  0.27713398640E+02 -0.19004601541E+02  0.96998726549E+02  0.10276210535E+03  0.47000000000E+01 0. -1.
        -11    1    1    2    0    0  0.10580639441E+02 -0.38957406973E+02  0.33898943351E+02  0.52714019477E+02  0.00000000000E+00 0.  1.
         11    1    1    2    0    0 -0.32681387054E+02  0.38129509699E+02  0.10174653053E+03  0.11346492429E+03  0.00000000000E+00 0. -1.
<mgrwt>
<rscale>  0 0.11828682E+03</rscale>
<asrwt>0</asrwt>
<pdfrwt beam="1">  1        2 0.39058822E-01 0.12681191E+03</pdfrwt>
<pdfrwt beam="2">  1       -2 0.83554219E-02 0.12681191E+03</pdfrwt>
<totfact> 0.10863123E+04</totfact>
</mgrwt>
</event>
<event>
 7    1  0.6387485E-006  0.1634089E+03  0.7546771E-02  0.1192841E+00
          4   -1    0    0  501    0  0.00000000000E+00  0.00000000000E+00  0.31794143527E+02  0.31794143527E+02  0.00000000000E+00 0. -1.
         -4   -1    0    0    0  501 -0.00000000000E+00 -0.00000000000E+00 -0.71028388253E+03  0.71028388253E+03  0.00000000000E+00 0.  1.
         23    2    1    2    0    0 -0.98197708221E+02 -0.37902345414E+02 -0.37714671757E+03  0.41102567421E+03  0.12499232216E+03 0.  0.
          5    1    3    3  502    0 -0.24385485302E+02  0.13368735470E+02 -0.56249556619E+01  0.28759435107E+02  0.47000000000E+01 0. -1.
         -5    1    3    3    0  502 -0.73812222919E+02 -0.51271080884E+02 -0.37152176191E+03  0.38226623910E+03  0.47000000000E+01 0. -1.
        -11    1    1    2    0    0  0.20392374355E+02  0.42560231575E+02 -0.53987795268E+02  0.71707072743E+02  0.00000000000E+00 0. -1.
         11    1    1    2    0    0  0.77805333866E+02 -0.46578861614E+01 -0.24735522616E+03  0.25934527910E+03  0.00000000000E+00 0.  1.
<mgrwt>
<rscale>  0 0.15638385E+03</rscale>
<asrwt>0</asrwt>
<pdfrwt beam="1">  1        4 0.48914073E-02 0.16340887E+03</pdfrwt>
<pdfrwt beam="2">  1       -4 0.10927443E+00 0.16340887E+03</pdfrwt>
<totfact> 0.29600979E+02</totfact>
</mgrwt>
</event>
<event>
 7    1  0.6387485E-006  0.1258733E+03  0.7546771E-02  0.1248223E+00
         -1   -1    0    0    0  501 -0.00000000000E+00  0.00000000000E+00  0.89785472615E+02  0.89785472615E+02  0.00000000000E+00 0.  1.
          1   -1    0    0  501    0  0.00000000000E+00 -0.00000000000E+00 -0.15439107444E+03  0.15439107444E+03  0.00000000000E+00 0. -1.
         23    2    1    2    0    0  0.54681207785E+01  0.15277977828E+02  0.71719579694E+01  0.12607743725E+03  0.12482293960E+03 0.  0.
          5    1    3    3  502    0 -0.36135862004E+02 -0.15453156743E+02  0.46401630572E+02  0.60990178683E+02  0.47000000000E+01 0. -1.
         -5    1    3    3    0  502  0.41603982783E+02  0.30731134571E+02 -0.39229672602E+02  0.65087258568E+02  0.47000000000E+01 0. -1.
        -11    1    1    2    0    0  0.12786549033E+02  0.21284045377E+02  0.99302640640E+01  0.26741663526E+02  0.00000000000E+00 0.  1.
         11    1    1    2    0    0 -0.18254669811E+02 -0.36562023205E+02 -0.81707823857E+02  0.91357446277E+02  0.00000000000E+00 0. -1.
<mgrwt>
<rscale>  0 0.11694509E+03</rscale>
<asrwt>0</asrwt>
<pdfrwt beam="2">  1        1 0.23752473E-01 0.12587328E+03</pdfrwt>
<pdfrwt beam="1">  1       -1 0.13813150E-01 0.12587328E+03</pdfrwt>
<totfact> 0.70644582E+03</totfact>
</mgrwt>
</event>
<event>
 6    1  0.6387485E-006  0.3377195E+03  0.7546771E-02  0.1093618E+00
         -1   -1    0    0    0  501 -0.00000000000E+00  0.00000000000E+00  0.23094159786E+03  0.23094159786E+03  0.00000000000E+00 0.  1.
          1   -1    0    0  501    0  0.00000000000E+00 -0.00000000000E+00 -0.27741101070E+03  0.27741101070E+03  0.00000000000E+00 0. -1.
          5    1    1    2  502    0  0.10106473814E+03 -0.14801667250E+03 -0.13822509046E+03  0.22638746049E+03  0.47000000000E+01 0. -1.
         -5    1    1    2    0  502 -0.19488538758E+02  0.37629083696E+02  0.10464502481E+03  0.11299744378E+03  0.47000000000E+01 0.  1.
        -11    1    1    2    0    0 -0.10239054534E+03  0.79102429427E+02 -0.19393359795E+02  0.13083241388E+03  0.00000000000E+00 0. -1.
         11    1    1    2    0    0  0.20814345954E+02  0.31285159377E+02  0.65040126135E+01  0.38135290412E+02  0.00000000000E+00 0.  1.
<mgrwt>
<rscale>  0 0.28382540E+03</rscale>
<asrwt>0</asrwt>
<pdfrwt beam="2">  1        1 0.42678617E-01 0.33771955E+03</pdfrwt>
<pdfrwt beam="1">  1       -1 0.35529477E-01 0.33771955E+03</pdfrwt>
<totfact> 0.73923848E+02</totfact>
</mgrwt>
</event>
<event>
 7    1  0.6387485E-006  0.1515831E+03  0.7546771E-02  0.1208108E+00
          1   -1    0    0  501    0  0.00000000000E+00  0.00000000000E+00  0.33362148972E+03  0.33362148972E+03  0.00000000000E+00 0. -1.
         -1   -1    0    0    0  501 -0.00000000000E+00 -0.00000000000E+00 -0.10360008033E+03  0.10360008033E+03  0.00000000000E+00 0.  1.
         23    2    1    2    0    0 -0.38833143478E+02 -0.76455706330E+02 -0.25311278247E+02  0.15368180991E+03  0.12499579924E+03 0.  0.
          5    1    3    3  502    0 -0.13208496400E+02 -0.71477980802E+02 -0.70444815053E+02  0.10133177233E+03  0.47000000000E+01 0. -1.
         -5    1    3    3    0  502 -0.25624647078E+02 -0.49777255283E+01  0.45133536806E+02  0.52350037573E+02  0.47000000000E+01 0. -1.
        -11    1    1    2    0    0  0.67973694614E+01 -0.14048830076E+02  0.66434297681E+01  0.16961987418E+02  0.00000000000E+00 0.  1.
         11    1    1    2    0    0  0.32035774016E+02  0.90504536406E+02  0.24868925787E+03  0.26657777272E+03  0.00000000000E+00 0. -1.
<mgrwt>
<rscale>  0 0.14395230E+03</rscale>
<asrwt>0</asrwt>
<pdfrwt beam="1">  1        1 0.51326382E-01 0.15158311E+03</pdfrwt>
<pdfrwt beam="2">  1       -1 0.15938474E-01 0.15158311E+03</pdfrwt>
<totfact> 0.21879830E+03</totfact>
</mgrwt>
</event>
<event>
 7    1  0.6387485E-006  0.1334982E+03  0.7546771E-02  0.1236190E+00
          1   -1    0    0  501    0  0.00000000000E+00  0.00000000000E+00  0.34684770841E+03  0.34684770841E+03  0.00000000000E+00 0. -1.
         -1   -1    0    0    0  501 -0.00000000000E+00 -0.00000000000E+00 -0.42285941696E+02  0.42285941696E+02  0.00000000000E+00 0.  1.
         23    2    1    2    0    0  0.23777921827E+02 -0.40416315029E+02  0.12204311207E+03  0.18087642384E+03  0.12499156535E+03 0.  0.
          5    1    3    3  502    0  0.21560039194E+02  0.35823560321E+02  0.87345881009E+02  0.96951305785E+02  0.47000000000E+01 0.  1.
         -5    1    3    3    0  502  0.22178826334E+01 -0.76239875350E+02  0.34697231065E+02  0.83925118054E+02  0.47000000000E+01 0.  1.
        -11    1    1    2    0    0 -0.34818435656E+02  0.29145470140E+01  0.15865320744E+03  0.16245509618E+03  0.00000000000E+00 0. -1.
         11    1    1    2    0    0  0.11040513829E+02  0.37501768015E+02  0.23865447200E+02  0.45802130081E+02  0.00000000000E+00 0.  1.
<mgrwt>
<rscale>  0 0.12428551E+03</rscale>
<asrwt>0</asrwt>
<pdfrwt beam="1">  1        1 0.53361184E-01 0.13349816E+03</pdfrwt>
<pdfrwt beam="2">  1       -1 0.65055297E-02 0.13349816E+03</pdfrwt>
<totfact> 0.81716029E+03</totfact>
</mgrwt>
</event>
