<event>
 8    1  0.6692409E-009  0.1091860E+03  0.7561462E-02  0.1262085E+00
          2   -1    0    0  501    0  0.00000000000E+00  0.00000000000E+00  0.63670413012E+03  0.63670413012E+03  0.00000000000E+00 0. -1.
         -2   -1    0    0    0  501 -0.00000000000E+00 -0.00000000000E+00 -0.27717210102E+02  0.27717210102E+02  0.00000000000E+00 0.  1.
         25    2    1    2    0    0 -0.88401554695E+01 -0.60909015921E+02  0.45046668861E+03  0.47154448013E+03  0.12508358256E+03 0.  0.
         23    2    1    2    0    0  0.88401554695E+01  0.60909015921E+02  0.15852023141E+03  0.19287686009E+03  0.91020672505E+02 0.  0.
          5    1    3    3  502    0  0.45221183758E+02 -0.55262546712E+02  0.35005499396E+03  0.35728822501E+03  0.41800000000E+01 0. -1.
         -5    1    3    3    0  502 -0.54061339228E+02 -0.56464692089E+01  0.10041169465E+03  0.11425625513E+03  0.41800000000E+01 0. -1.
        -11    1    4    4    0    0 -0.25474775454E+02  0.50344588788E+02  0.14306152774E+03  0.15378602838E+03  0.00000000000E+00 0.  1.
         11    1    4    4    0    0  0.34314930923E+02  0.10564427134E+02  0.15458703669E+02  0.39090831714E+02  0.00000000000E+00 0. -1.
</event>
<event>
 8    1  0.6692409E-009  0.1455757E+03  0.7561462E-02  0.1206017E+00
          2   -1    0    0  501    0  0.00000000000E+00  0.00000000000E+00  0.33181844706E+03  0.33181844706E+03  0.00000000000E+00 0.  1.
         -2   -1    0    0    0  501 -0.00000000000E+00 -0.00000000000E+00 -0.70034814415E+02  0.70034814415E+02  0.00000000000E+00 0. -1.
         25    2    1    2    0    0  0.48790143854E+02  0.88815192629E+02  0.16781947805E+03  0.23255495074E+03  0.12509920593E+03 0.  0.
         23    2    1    2    0    0 -0.48790143854E+02 -0.88815192629E+02  0.93964154595E+02  0.16929831073E+03  0.97795905275E+02 0.  0.
          5    1    3    3  502    0  0.48817887009E+02 -0.11227445574E+02  0.20184744911E+02  0.54167683662E+02  0.41800000000E+01 0. -1.
         -5    1    3    3    0  502 -0.27743155403E-01  0.10004263820E+03  0.14763473314E+03  0.17838726708E+03  0.41800000000E+01 0. -1.
        -11    1    4    4    0    0 -0.14553850288E+02 -0.10276160414E+03  0.71668521247E+02  0.12612747037E+03  0.00000000000E+00 0.  1.
         11    1    4    4    0    0 -0.34236293566E+02  0.13946411512E+02  0.22295633348E+02  0.43170840362E+02  0.00000000000E+00 0. -1.
</event>
<event>
 8    1  0.6692409E-009  0.1548999E+03  0.7561462E-02  0.1194578E+00
         -1   -1    0    0    0  501 -0.00000000000E+00  0.00000000000E+00  0.12454815876E+02  0.12454815876E+02  0.00000000000E+00 0.  1.
          1   -1    0    0  501    0  0.00000000000E+00 -0.00000000000E+00 -0.22138372787E+04  0.22138372787E+04  0.00000000000E+00 0. -1.
         25    2    1    2    0    0 -0.18648994135E+02 -0.11103632696E+03 -0.15439133851E+04  0.15530591793E+04  0.12508965941E+03 0.  0.
         23    2    1    2    0    0  0.18648994135E+02  0.11103632696E+03 -0.65746907766E+03  0.67323291520E+03  0.91104989603E+02 0.  0.
          5    1    3    3  502    0 -0.69151628735E+02 -0.78894079207E+02 -0.82690841608E+03  0.83354737387E+03  0.41800000000E+01 0.  1.
         -5    1    3    3    0  502  0.50502634600E+02 -0.32142247754E+02 -0.71700496904E+03  0.71951180548E+03  0.41800000000E+01 0.  1.
        -11    1    4    4    0    0 -0.29860387848E+02  0.84245488326E+02 -0.41326211119E+03  0.42281735728E+03  0.00000000000E+00 0. -1.
         11    1    4    4    0    0  0.48509381984E+02  0.26790838635E+02 -0.24420696647E+03  0.25041555792E+03  0.00000000000E+00 0.  1.
</event>
<event>
 8    1  0.6692409E-009  0.8600157E+02  0.7561462E-02  0.1312834E+00
         -1   -1    0    0    0  501 -0.00000000000E+00  0.00000000000E+00  0.16898370188E+02  0.16898370188E+02  0.00000000000E+00 0.  1.
          1   -1    0    0  501    0  0.00000000000E+00 -0.00000000000E+00 -0.10297073967E+04  0.10297073967E+04  0.00000000000E+00 0. -1.
         25    2    1    2    0    0 -0.11445931251E+02 -0.48810719559E+02 -0.78337768140E+03  0.79488392817E+03  0.12508545823E+03 0.  0.
         23    2    1    2    0    0  0.11445931251E+02  0.48810719559E+02 -0.22943134508E+03  0.25172183868E+03  0.90618134392E+02 0.  0.
          5    1    3    3  502    0 -0.14580138454E+02 -0.58357993570E+02 -0.15358405714E+03  0.16499627528E+03  0.41800000000E+01 0. -1.
         -5    1    3    3    0  502  0.31342072025E+01  0.95472740113E+01 -0.62979362426E+03  0.62988765289E+03  0.41800000000E+01 0. -1.
        -11    1    4    4    0    0  0.46586394224E+02  0.46160649533E+02 -0.17493121110E+03  0.18682084013E+03  0.00000000000E+00 0. -1.
         11    1    4    4    0    0 -0.35140462973E+02  0.26500700255E+01 -0.54500133978E+02  0.64900998550E+02  0.00000000000E+00 0.  1.
</event>
<event>
 8    1  0.6692409E-009  0.1328357E+03  0.7561462E-02  0.1223308E+00
          2   -1    0    0  501    0  0.00000000000E+00  0.00000000000E+00  0.40250633522E+03  0.40250633522E+03  0.00000000000E+00 0.  1.
         -2   -1    0    0    0  501 -0.00000000000E+00 -0.00000000000E+00 -0.58128704249E+02  0.58128704249E+02  0.00000000000E+00 0. -1.
         25    2    1    2    0    0  0.45775120231E+02 -0.83417259539E+02  0.11444481340E+03  0.19442752948E+03  0.12510255027E+03 0.  0.
         23    2    1    2    0    0 -0.45775120231E+02  0.83417259539E+02  0.22993281757E+03  0.26620750999E+03  0.94570275242E+02 0.  0.
          5    1    3    3  502    0 -0.28257658934E+02 -0.40947059312E+02 -0.20311344006E+01  0.49967538080E+02  0.41800000000E+01 0. -1.
         -5    1    3    3    0  502  0.74032779165E+02 -0.42470200226E+02  0.11647594781E+03  0.14445999140E+03  0.41800000000E+01 0. -1.
        -11    1    4    4    0    0  0.14699815479E+02  0.65630771088E+02  0.15016688361E+03  0.16454049842E+03  0.00000000000E+00 0. -1.
         11    1    4    4    0    0 -0.60474935710E+02  0.17786488451E+02  0.79765933959E+02  0.10166701157E+03  0.00000000000E+00 0.  1.
</event>
<event>
 8    1  0.6692409E-009  0.8701803E+02  0.7561462E-02  0.1310238E+00
         -2   -1    0    0    0  501 -0.00000000000E+00  0.00000000000E+00  0.65548322301E+03  0.65548322301E+03  0.00000000000E+00 0.  1.
          2   -1    0    0  501    0  0.00000000000E+00 -0.00000000000E+00 -0.23417215424E+02  0.23417215424E+02  0.00000000000E+00 0. -1.
         25    2    1    2    0    0 -0.36648100141E+02 -0.14741992191E+02  0.34732078983E+03  0.37126702888E+03  0.12508823330E+03 0.  0.
         23    2    1    2    0    0  0.36648100141E+02  0.14741992191E+02  0.28474521776E+03  0.30763340955E+03  0.10953568395E+03 0.  0.
          5    1    3    3  502    0 -0.32252741240E+01  0.13079454871E+02 -0.59476097487E+01  0.15307546982E+02  0.41800000000E+01 0. -1.
         -5    1    3    3    0  502 -0.33422826017E+02 -0.27821447061E+02  0.35326839958E+03  0.35595948190E+03  0.41800000000E+01 0. -1.
        -11    1    4    4    0    0  0.70269604994E+02  0.33387653856E+02  0.19882686158E+03  0.21350567604E+03  0.00000000000E+00 0.  1.
         11    1    4    4    0    0 -0.33621504854E+02 -0.18645661665E+02  0.85918356179E+02  0.94127733512E+02  0.00000000000E+00 0. -1.
</event>
<event>
 8    1  0.6692409E-009  0.1037320E+03  0.7561462E-02  0.1272638E+00
          2   -1    0    0  501    0  0.00000000000E+00  0.00000000000E+00  0.43631021798E+03  0.43631021798E+03  0.00000000000E+00 0. -1.
         -2   -1    0    0    0  501 -0.00000000000E+00 -0.00000000000E+00 -0.26870866211E+02  0.26870866211E+02  0.00000000000E+00 0.  1.
         25    2    1    2    0    0  0.13333549040E+02 -0.39584917921E+01  0.23717800682E+03  0.26850011729E+03  0.12508178477E+03 0.  0.
         23    2    1    2    0    0 -0.13333549040E+02  0.39584917921E+01  0.17226134495E+03  0.19468096690E+03  0.89628425850E+02 0.  0.
          5    1    3    3  502    0 -0.26540147318E+02 -0.50186378244E+02  0.68501849246E+02  0.89067545890E+02  0.41800000000E+01 0.  1.
         -5    1    3    3    0  502  0.39873696358E+02  0.46227886452E+02  0.16867615757E+03  0.17943257140E+03  0.41800000000E+01 0.  1.
        -11    1    4    4    0    0 -0.47255473042E+02  0.20614828576E+02  0.82443247927E+02  0.97236515869E+02  0.00000000000E+00 0.  1.
         11    1    4    4    0    0  0.33921924002E+02 -0.16656336784E+02  0.89818097022E+02  0.97444451026E+02  0.00000000000E+00 0. -1.
</event>
<event>
 8    1  0.6692409E-009  0.1285368E+03  0.7561462E-02  0.1229643E+00
          1   -1    0    0  501    0  0.00000000000E+00  0.00000000000E+00  0.41182537646E+03  0.41182537646E+03  0.00000000000E+00 0. -1.
         -1   -1    0    0    0  501 -0.00000000000E+00 -0.00000000000E+00 -0.56296800998E+02  0.56296800998E+02  0.00000000000E+00 0.  1.
         25    2    1    2    0    0 -0.63914758907E+02  0.85024814559E+02  0.19819910742E+03  0.25737856554E+03  0.12508606765E+03 0.  0.
         23    2    1    2    0    0  0.63914758907E+02 -0.85024814559E+02  0.15732946804E+03  0.21074361191E+03  0.91356406197E+02 0.  0.
          5    1    3    3  502    0 -0.51836434540E+02  0.93522865731E+02  0.21152497451E+03  0.23705237734E+03  0.41800000000E+01 0. -1.
         -5    1    3    3    0  502 -0.12078324367E+02 -0.84980511722E+01 -0.13325867087E+02  0.20326188203E+02  0.41800000000E+01 0. -1.
        -11    1    4    4    0    0  0.44531797473E+02  0.29515380780E+01  0.81805569219E+02  0.93187680079E+02  0.00000000000E+00 0. -1.
         11    1    4    4    0    0  0.19382961434E+02 -0.87976352637E+02  0.75523898817E+02  0.11755593184E+03  0.00000000000E+00 0.  1.
</event>
<event>
 8    1  0.6692409E-009  0.7553959E+02  0.7561462E-02  0.1342208E+00
          1   -1    0    0  501    0  0.00000000000E+00  0.00000000000E+00  0.41638463480E+03  0.41638463480E+03  0.00000000000E+00 0. -1.
         -1   -1    0    0    0  501 -0.00000000000E+00 -0.00000000000E+00 -0.38192667385E+02  0.38192667385E+02  0.00000000000E+00 0.  1.
         25    2    1    2    0    0 -0.35602133731E+02  0.24298904969E+02  0.29523563070E+03  0.32352354759E+03  0.12508181123E+03 0.  0.
         23    2    1    2    0    0  0.35602133731E+02 -0.24298904969E+02  0.82956336709E+02  0.13105375459E+03  0.91844347039E+02 0.  0.
          5    1    3    3  502    0  0.33639266258E+02 -0.15797148118E+01  0.20018293442E+03  0.20303885186E+03  0.41800000000E+01 0.  1.
         -5    1    3    3    0  502 -0.69241399989E+02  0.25878619780E+02  0.95052696281E+02  0.12048469573E+03  0.41800000000E+01 0.  1.
        -11    1    4    4    0    0  0.13077598339E+02 -0.86283002964E+01 -0.19484109585E+02  0.25002033330E+02  0.00000000000E+00 0.  1.
         11    1    4    4    0    0  0.22524535392E+02 -0.15670604672E+02  0.10244044629E+03  0.10605172126E+03  0.00000000000E+00 0. -1.
</event>
<event>
 7    1  0.6692409E-009  0.1994567E+03  0.7561462E-02  0.1150198E+00
         -2   -1    0    0    0  501 -0.00000000000E+00  0.00000000000E+00  0.10557015739E+03  0.10557015739E+03  0.00000000000E+00 0.  1.
          2   -1    0    0  501    0  0.00000000000E+00 -0.00000000000E+00 -0.48154751316E+03  0.48154751316E+03  0.00000000000E+00 0. -1.
         23    2    1    2    0    0  0.64058009442E+02 -0.17055513653E+03 -0.85628521118E+02  0.22227483401E+03  0.94241047508E+02 0.  0.
          5    1    1    2  502    0 -0.28474599440E+02 -0.90574509075E+01 -0.13878693371E+02  0.33210401381E+02  0.41800000000E+01 0.  1.
         -5    1    1    2    0  502 -0.35583410002E+02  0.17961258743E+03 -0.27647014128E+03  0.33163243516E+03  0.41800000000E+01 0.  1.
        -11    1    3    3    0    0  0.52305854005E+02 -0.16398924948E+03 -0.42785739671E+02  0.17736683971E+03  0.00000000000E+00 0.  1.
         11    1    3    3    0    0  0.11752155437E+02 -0.65658870465E+01 -0.42842781447E+02  0.44907994302E+02  0.00000000000E+00 0. -1.
</event>
<event>
 8    1  0.6692409E-009  0.8986420E+02  0.7561462E-02  0.1303181E+00
          1   -1    0    0  501    0  0.00000000000E+00  0.00000000000E+00  0.57058532831E+03  0.57058532831E+03  0.00000000000E+00 0. -1.
         -1   -1    0    0    0  501 -0.00000000000E+00 -0.00000000000E+00 -0.20539801082E+02  0.20539801082E+02  0.00000000000E+00 0.  1.
         25    2    1    2    0    0  0.66171402885E+01 -0.87556150947E+01  0.34100002235E+03  0.36338342701E+03  0.12508418143E+03 0.  0.
         23    2    1    2    0    0 -0.66171402885E+01  0.87556150947E+01  0.20904550488E+03  0.22774170238E+03  0.89698453455E+02 0.  0.
          5    1    3    3  502    0 -0.14760033568E+02 -0.56426678481E+02  0.92623682254E+02  0.10953742534E+03  0.41800000000E+01 0. -1.
         -5    1    3    3    0  502  0.21377173857E+02  0.47671063386E+02  0.24837634009E+03  0.25384600167E+03  0.41800000000E+01 0. -1.
        -11    1    4    4    0    0 -0.32604256771E+02  0.22335009175E+02  0.40214458562E+02  0.56383445016E+02  0.00000000000E+00 0.  1.
         11    1    4    4    0    0  0.25987116483E+02 -0.13579394080E+02  0.16883104632E+03  0.17135825737E+03  0.00000000000E+00 0. -1.
</event>
<event>
 8    1  0.6692409E-009  0.1242842E+03  0.7561462E-02  0.1236192E+00
          2   -1    0    0  501    0  0.00000000000E+00  0.00000000000E+00  0.66325048463E+03  0.66325048463E+03  0.00000000000E+00 0. -1.
         -2   -1    0    0    0  501 -0.00000000000E+00 -0.00000000000E+00 -0.35851279648E+02  0.35851279648E+02  0.00000000000E+00 0.  1.
         25    2    1    2    0    0 -0.77268465326E+02  0.27280931632E+02  0.50669259690E+03  0.52829568771E+03  0.12507709994E+03 0.  0.
         23    2    1    2    0    0  0.77268465326E+02 -0.27280931632E+02  0.12070660808E+03  0.17080607657E+03  0.88825478299E+02 0.  0.
          5    1    3    3  502    0  0.17368030523E+02  0.27913943984E+02  0.28887785900E+03  0.29077263725E+03  0.41800000000E+01 0. -1.
         -5    1    3    3    0  502 -0.94636495849E+02 -0.63301235171E+00  0.21781473790E+03  0.23752305046E+03  0.41800000000E+01 0. -1.
        -11    1    4    4    0    0  0.38842803576E+02  0.31813350509E+02  0.54469666420E+02  0.74079668062E+02  0.00000000000E+00 0.  1.
         11    1    4    4    0    0  0.38425661750E+02 -0.59094282141E+02  0.66236941661E+02  0.96726408511E+02  0.00000000000E+00 0. -1.
</event>
<event>
 8    1  0.6692409E-009  0.1137381E+03  0.7561462E-02  0.1253800E+00
          1   -1    0    0  501    0  0.00000000000E+00  0.00000000000E+00  0.24415164153E+02  0.24415164153E+02  0.00000000000E+00 0. -1.
         -1   -1    0    0    0  501 -0.00000000000E+00 -0.00000000000E+00 -0.62469406560E+03  0.62469406560E+03  0.00000000000E+00 0.  1.
         25    2    1    2    0    0 -0.43486978917E+01  0.59096158589E+02 -0.31717123703E+03  0.34606128179E+03  0.12509816153E+03 0.  0.
         23    2    1    2    0    0  0.43486978917E+01 -0.59096158589E+02 -0.28310766441E+03  0.30304794796E+03  0.90425892215E+02 0.  0.
          5    1    3    3  502    0 -0.28140972406E+02 -0.23350218837E+02 -0.18355337160E+03  0.18720699686E+03  0.41800000000E+01 0.  1.
         -5    1    3    3    0  502  0.23792274514E+02  0.82446377426E+02 -0.13361786544E+03  0.15885428493E+03  0.41800000000E+01 0.  1.
        -11    1    4    4    0    0  0.18665390944E+02 -0.78475342580E+02 -0.24523498579E+03  0.25816075316E+03  0.00000000000E+00 0.  1.
         11    1    4    4    0    0 -0.14316693052E+02  0.19379183991E+02 -0.37872678618E+02  0.44887194808E+02  0.00000000000E+00 0. -1.
</event>
<event>
 8    1  0.6692409E-009  0.1402322E+03  0.7561462E-02  0.1213017E+00
         -1   -1    0    0    0  501 -0.00000000000E+00  0.00000000000E+00  0.31047123657E+03  0.31047123657E+03  0.00000000000E+00 0.  1.
          1   -1    0    0  501    0  0.00000000000E+00 -0.00000000000E+00 -0.72394253414E+02  0.72394253414E+02  0.00000000000E+00 0. -1.
         25    2    1    2    0    0 -0.66345280357E+02 -0.79115021643E+02  0.11868128366E+03  0.20098293822E+03  0.12509201209E+03 0.  0.
         23    2    1    2    0    0  0.66345280357E+02  0.79115021643E+02  0.11939569950E+03  0.18188255176E+03  0.90360647976E+02 0.  0.
          5    1    3    3  502    0 -0.87504655861E+02 -0.30610664601E+02  0.11499990610E+03  0.14777187955E+03  0.41800000000E+01 0. -1.
         -5    1    3    3    0  502  0.21159375504E+02 -0.48504357042E+02  0.36813775633E+01  0.53211058668E+02  0.41800000000E+01 0. -1.
        -11    1    4    4    0    0 -0.18507641415E+02  0.33433362386E+02  0.18844015989E+02  0.42607739318E+02  0.00000000000E+00 0. -1.
         11    1    4    4    0    0  0.84852921772E+02  0.45681659257E+02  0.10055168351E+03  0.13927481245E+03  0.00000000000E+00 0.  1.
</event>
<event>
 8    1  0.6692409E-009  0.1047971E+03  0.7561462E-02  0.1270520E+00
          2   -1    0    0  501    0  0.00000000000E+00  0.00000000000E+00  0.69984009376E+03  0.69984009376E+03  0.00000000000E+00 0.  1.
         -2   -1    0    0    0  501 -0.00000000000E+00 -0.00000000000E+00 -0.23476445265E+02  0.23476445265E+02  0.00000000000E+00 0. -1.
         25    2    1    2    0    0 -0.57586869847E+02  0.27914508565E+02  0.44820090338E+03  0.46970992562E+03  0.12509155474E+03 0.  0.
         23    2    1    2    0    0  0.57586869847E+02 -0.27914508565E+02  0.22816274512E+03  0.25360661341E+03  0.90347156780E+02 0.  0.
          5    1    3    3  502    0 -0.39489558928E+02  0.55855718817E+02  0.10833644275E+03  0.12819338445E+03  0.41800000000E+01 0.  1.
         -5    1    3    3    0  502 -0.18097310919E+02 -0.27941210252E+02  0.33986446063E+03  0.34151654117E+03  0.41800000000E+01 0.  1.
        -11    1    4    4    0    0  0.36688512843E+02  0.29073100697E+02  0.70130307009E+02  0.84318160084E+02  0.00000000000E+00 0.  1.
         11    1    4    4    0    0  0.20898357004E+02 -0.56987609262E+02  0.15803243811E+03  0.16928845333E+03  0.00000000000E+00 0. -1.
</event>
<event>
 8    1  0.6692409E-009  0.1189557E+03  0.7561462E-02  0.1244830E+00
         -3   -1    0    0    0  501 -0.00000000000E+00  0.00000000000E+00  0.22190691488E+03  0.22190691488E+03  0.00000000000E+00 0.  1.
          3   -1    0    0  501    0  0.00000000000E+00 -0.00000000000E+00 -0.15053590849E+03  0.15053590849E+03  0.00000000000E+00 0. -1.
         25    2    1    2    0    0 -0.81190825844E+02  0.63799576858E+02  0.14397663320E+03  0.21688568495E+03  0.12509113966E+03 0.  0.
         23    2    1    2    0    0  0.81190825844E+02 -0.63799576858E+02 -0.72605626803E+02  0.15555713842E+03  0.90907150770E+02 0.  0.
          5    1    3    3  502    0 -0.40799522834E+02  0.75578655152E+01  0.14145111119E+03  0.14747071456E+03  0.41800000000E+01 0. -1.
         -5    1    3    3    0  502 -0.40391303010E+02  0.56241711343E+02  0.25255220070E+01  0.69414970396E+02  0.41800000000E+01 0. -1.
        -11    1    4    4    0    0  0.52064980453E+02 -0.78512963077E+02 -0.24348769302E+02  0.97303186624E+02  0.00000000000E+00 0. -1.
         11    1    4    4    0    0  0.29125845392E+02  0.14713386219E+02 -0.48256857501E+02  0.58253951795E+02  0.00000000000E+00 0.  1.
</event>
<event>
 8    1  0.6692409E-009  0.8558035E+02  0.7561462E-02  0.1313922E+00
          3   -1    0    0  501    0  0.00000000000E+00  0.00000000000E+00  0.60936158436E+03  0.60936158436E+03  0.00000000000E+00 0. -1.
         -3   -1    0    0    0  501 -0.00000000000E+00 -0.00000000000E+00 -0.25659764127E+02  0.25659764127E+02  0.00000000000E+00 0.  1.
         25    2    1    2    0    0 -0.14954540731E+02  0.51473802034E+01  0.47905531759E+03  0.49536887267E+03  0.12508472682E+03 0.  0.
         23    2    1    2    0    0  0.14954540731E+02 -0.51473802034E+01  0.10464650264E+03  0.13965247582E+03  0.91114157385E+02 0.  0.
          5    1    3    3  502    0  0.50320044770E+02 -0.72882299269E+01  0.12331110041E+03  0.13344783657E+03  0.41800000000E+01 0.  1.
         -5    1    3    3    0  502 -0.65274585501E+02  0.12435610130E+02  0.35574421718E+03  0.36192103609E+03  0.41800000000E+01 0.  1.
        -11    1    4    4    0    0 -0.97111282692E+01 -0.21758006255E+02 -0.64178085449E+01  0.24676002816E+02  0.00000000000E+00 0.  1.
         11    1    4    4    0    0  0.24665669001E+02  0.16610626051E+02  0.11106431119E+03  0.11497647300E+03  0.00000000000E+00 0. -1.
</event>
<event>
 8    1  0.6692409E-009  0.5905714E+02  0.7561462E-02  0.1401832E+00
         -3   -1    0    0    0  501 -0.00000000000E+00  0.00000000000E+00  0.63945624611E+02  0.63945624611E+02  0.00000000000E+00 0.  1.
          3   -1    0    0  501    0  0.00000000000E+00 -0.00000000000E+00 -0.21394972416E+03  0.21394972416E+03  0.00000000000E+00 0. -1.
         25    2    1    2    0    0  0.41900920122E+02  0.84031395575E+01 -0.83882355663E+02  0.15655579432E+03  0.12508863770E+03 0.  0.
         23    2    1    2    0    0 -0.41900920122E+02 -0.84031395575E+01 -0.66121743891E+02  0.12133955446E+03  0.92330399106E+02 0.  0.
          5    1    3    3  502    0  0.12506447960E+02  0.75692419399E+01 -0.11355692071E+03  0.11457028980E+03  0.41800000000E+01 0. -1.
         -5    1    3    3    0  502  0.29394472162E+02  0.83389761753E+00  0.29674565046E+02  0.41985504518E+02  0.41800000000E+01 0. -1.
        -11    1    4    4    0    0  0.15366362084E+02 -0.29291304953E+00 -0.61415866833E+02  0.63309711582E+02  0.00000000000E+00 0. -1.
         11    1    4    4    0    0 -0.57267282206E+02 -0.81102265079E+01 -0.47058770585E+01  0.58029842875E+02  0.00000000000E+00 0.  1.
</event>
<event>
 8    1  0.6692409E-009  0.1266814E+03  0.7561462E-02  0.1232465E+00
         -1   -1    0    0    0  501 -0.00000000000E+00  0.00000000000E+00  0.45062026930E+02  0.45062026930E+02  0.00000000000E+00 0.  1.
          1   -1    0    0  501    0  0.00000000000E+00 -0.00000000000E+00 -0.41785448871E+03  0.41785448871E+03  0.00000000000E+00 0. -1.
         25    2    1    2    0    0 -0.64015107304E+02  0.47259723076E+02 -0.16139932833E+03  0.21915439026E+03  0.12508992044E+03 0.  0.
         23    2    1    2    0    0  0.64015107304E+02 -0.47259723076E+02 -0.21139313345E+03  0.24376212538E+03  0.91659704963E+02 0.  0.
          5    1    3    3  502    0  0.35636833770E+02  0.17935536956E+02 -0.70236600684E+02  0.80884608441E+02  0.41800000000E+01 0. -1.
         -5    1    3    3    0  502 -0.99651941073E+02  0.29324186120E+02 -0.91162727650E+02  0.13826978182E+03  0.41800000000E+01 0. -1.
        -11    1    4    4    0    0 -0.75368037800E+01 -0.36090879906E+02 -0.27119529269E+02  0.45769246131E+02  0.00000000000E+00 0.  1.
         11    1    4    4    0    0  0.71551911084E+02 -0.11168843170E+02 -0.18427360418E+03  0.19799287925E+03  0.00000000000E+00 0. -1.
</event>
<event>
 8    1  0.6692409E-009  0.8133922E+02  0.7561462E-02  0.1325293E+00
          1   -1    0    0  501    0  0.00000000000E+00  0.00000000000E+00  0.17596054906E+03  0.17596054906E+03  0.00000000000E+00 0. -1.
         -1   -1    0    0    0  501 -0.00000000000E+00 -0.00000000000E+00 -0.73511086097E+02  0.73511086097E+02  0.00000000000E+00 0.  1.
         25    2    1    2    0    0 -0.21721977010E+02  0.34292825888E+02  0.44234511127E+02  0.13875127352E+03  0.12508949491E+03 0.  0.
         23    2    1    2    0    0  0.21721977010E+02 -0.34292825888E+02  0.58214951833E+02  0.11072036163E+03  0.84983384675E+02 0.  0.
          5    1    3    3  502    0 -0.33550538963E+02 -0.83491955189E+01  0.76347631546E+02  0.83915320253E+02  0.41800000000E+01 0. -1.
         -5    1    3    3    0  502  0.11828561953E+02  0.42642021407E+02 -0.32113120419E+02  0.54835953266E+02  0.41800000000E+01 0. -1.
        -11    1    4    4    0    0  0.26208753096E+02  0.17437217761E+02 -0.15900335571E+01  0.31519573423E+02  0.00000000000E+00 0.  1.
         11    1    4    4    0    0 -0.44867760855E+01 -0.51730043650E+02  0.59804985390E+02  0.79200788211E+02  0.00000000000E+00 0. -1.
</event>
<event>
 7    1  0.6692409E-009  0.9047840E+02  0.7561462E-02  0.1301697E+00
         -1   -1    0    0    0  501 -0.00000000000E+00  0.00000000000E+00  0.13432217489E+02  0.13432217489E+02  0.00000000000E+00 0.  1.
          1   -1    0    0  501    0  0.00000000000E+00 -0.00000000000E+00 -0.11022063378E+04  0.11022063378E+04  0.00000000000E+00 0. -1.
         23    2    1    2    0    0  0.72914951099E+01  0.21932784575E+01 -0.22195813278E+03  0.23978664441E+03  0.90411535538E+02 0.  0.
          5    1    1    2  502    0  0.51911057658E+02  0.70904383182E+01 -0.21739102485E+03  0.22365456023E+03  0.41800000000E+01 0.  1.
         -5    1    1    2    0  502 -0.59202552768E+02 -0.92837167758E+01 -0.64942496270E+03  0.65219735068E+03  0.41800000000E+01 0.  1.
        -11    1    3    3    0    0 -0.32690487707E-01  0.34853861232E+02 -0.33376189417E+02  0.48257255738E+02  0.00000000000E+00 0.  1.
         11    1    3    3    0    0  0.73241855976E+01 -0.32660582774E+02 -0.18858194337E+03  0.19152938867E+03  0.00000000000E+00 0. -1.
</event>
<event>
 8    1  0.6692409E-009  0.1122072E+03  0.7561462E-02  0.1256536E+00
         -4   -1    0    0    0  501 -0.00000000000E+00  0.00000000000E+00  0.35782969949E+03  0.35782969949E+03  0.00000000000E+00 0. -1.
          4   -1    0    0  501    0  0.00000000000E+00 -0.00000000000E+00 -0.55981553214E+02  0.55981553214E+02  0.00000000000E+00 0.  1.
         25    2    1    2    0    0 -0.21878501450E+02 -0.53924319930E+02  0.62210461296E+02  0.15134482831E+03  0.12509442217E+03 0.  0.
         23    2    1    2    0    0  0.21878501450E+02  0.53924319930E+02  0.23963768498E+03  0.26246642439E+03  0.89866026751E+02 0.  0.
          5    1    3    3  502    0  0.41985434858E+02 -0.11181598852E+02 -0.11117820384E+02  0.45043126259E+02  0.41800000000E+01 0. -1.
         -5    1    3    3    0  502 -0.63863936308E+02 -0.42742721078E+02  0.73328281679E+02  0.10630170206E+03  0.41800000000E+01 0. -1.
        -11    1    4    4    0    0  0.51109070280E+02  0.54301674487E+02  0.19812279629E+03  0.21169187827E+03  0.00000000000E+00 0. -1.
         11    1    4    4    0    0 -0.29230568829E+02 -0.37735455752E+00  0.41514888695E+02  0.50774546122E+02  0.00000000000E+00 0.  1.
</event>
<event>
 8    1  0.6692409E-009  0.1183957E+03  0.7561462E-02  0.1245767E+00
          2   -1    0    0  501    0  0.00000000000E+00  0.00000000000E+00  0.50545759047E+02  0.50545759047E+02  0.00000000000E+00 0. -1.
         -2   -1    0    0    0  501 -0.00000000000E+00 -0.00000000000E+00 -0.31601635767E+03  0.31601635767E+03  0.00000000000E+00 0.  1.
         25    2    1    2    0    0  0.10261903496E+01 -0.56229730187E+02 -0.10014812957E+03  0.16982251999E+03  0.12508878773E+03 0.  0.
         23    2    1    2    0    0 -0.10261903496E+01  0.56229730187E+02 -0.16532246905E+03  0.19673959673E+03  0.90620717960E+02 0.  0.
          5    1    3    3  502    0 -0.58041728801E+02 -0.13765980452E+02 -0.66895336893E+02  0.89726267046E+02  0.41800000000E+01 0. -1.
         -5    1    3    3    0  502  0.59067919151E+02 -0.42463749735E+02 -0.33252792674E+02  0.80096252940E+02  0.41800000000E+01 0. -1.
        -11    1    4    4    0    0 -0.42359081410E+02  0.43874726584E+02 -0.75176265104E+02  0.96802656192E+02  0.00000000000E+00 0. -1.
         11    1    4    4    0    0  0.41332891061E+02  0.12355003603E+02 -0.90146203949E+02  0.99936940537E+02  0.00000000000E+00 0.  1.
</event>
<event>
 8    1  0.6692409E-009  0.1416423E+03  0.7561462E-02  0.1211136E+00
          1   -1    0    0  501    0  0.00000000000E+00  0.00000000000E+00  0.10031045781E+04  0.10031045781E+04  0.00000000000E+00 0. -1.
         -1   -1    0    0    0  501 -0.00000000000E+00 -0.00000000000E+00 -0.28336557099E+02  0.28336557099E+02  0.00000000000E+00 0.  1.
         25    2    1    2    0    0  0.15673836367E+02  0.12781998869E+03  0.52006494935E+03  0.55018002522E+03  0.12508752915E+03 0.  0.
         23    2    1    2    0    0 -0.15673836367E+02 -0.12781998869E+03  0.45470307168E+03  0.48126111001E+03  0.90960177881E+02 0.  0.
          5    1    3    3  502    0  0.59662075977E+01  0.65419678259E+02  0.45379346139E+03  0.45854259119E+03  0.41800000000E+01 0. -1.
         -5    1    3    3    0  502  0.97076287695E+01  0.62400310430E+02  0.66271487958E+02  0.91637434023E+02  0.41800000000E+01 0. -1.
        -11    1    4    4    0    0  0.34741620256E+01  0.12283581412E+02  0.75070226198E+02  0.76147849842E+02  0.00000000000E+00 0. -1.
         11    1    4    4    0    0 -0.19147998393E+02 -0.14010357010E+03  0.37963284548E+03  0.40511326017E+03  0.00000000000E+00 0.  1.
</event>
<event>
 8    1  0.6692409E-009  0.1190352E+03  0.7561462E-02  0.1244697E+00
          2   -1    0    0  501    0  0.00000000000E+00  0.00000000000E+00  0.23206423289E+02  0.23206423289E+02  0.00000000000E+00 0. -1.
         -2   -1    0    0    0  501 -0.00000000000E+00 -0.00000000000E+00 -0.69630730488E+03  0.69630730488E+03  0.00000000000E+00 0.  1.
         25    2    1    2    0    0 -0.57071541720E+02 -0.33509282731E+02 -0.38691757360E+03  0.41198730214E+03  0.12509314714E+03 0.  0.
         23    2    1    2    0    0  0.57071541720E+02  0.33509282731E+02 -0.28618330800E+03  0.30752642603E+03  0.91058135438E+02 0.  0.
          5    1    3    3  502    0 -0.10279949624E+02 -0.66933555425E+02 -0.11086393277E+03  0.12997716028E+03  0.41800000000E+01 0. -1.
         -5    1    3    3    0  502 -0.46791592096E+02  0.33424272693E+02 -0.27605364082E+03  0.28201014185E+03  0.41800000000E+01 0. -1.
        -11    1    4    4    0    0 -0.61565750299E+01 -0.25408703555E+02 -0.66196569111E+02  0.71172265627E+02  0.00000000000E+00 0. -1.
         11    1    4    4    0    0  0.63228116750E+02  0.58917986286E+02 -0.21998673889E+03  0.23635416041E+03  0.00000000000E+00 0.  1.
</event>
<event>
 8    1  0.6692409E-009  0.1815078E+03  0.7561462E-02  0.1166352E+00
          1   -1    0    0  501    0  0.00000000000E+00  0.00000000000E+00  0.35931072998E+03  0.35931072998E+03  0.00000000000E+00 0. -1.
         -1   -1    0    0    0  501 -0.00000000000E+00 -0.00000000000E+00 -0.18060177291E+03  0.18060177291E+03  0.00000000000E+00 0.  1.
         25    2    1    2    0    0 -0.11609420243E+03 -0.10803130174E+03 -0.84837472736E+02  0.21907364111E+03  0.12508891819E+03 0.  0.
         23    2    1    2    0    0  0.11609420243E+03  0.10803130174E+03  0.26354642981E+03  0.32083886178E+03  0.91281041665E+02 0.  0.
          5    1    3    3  502    0  0.21363494119E+02  0.63914663805E+01 -0.14010627736E+02  0.26664954773E+02  0.41800000000E+01 0.  1.
         -5    1    3    3    0  502 -0.13745769655E+03 -0.11442276812E+03 -0.70826845000E+02  0.19240868634E+03  0.41800000000E+01 0.  1.
        -11    1    4    4    0    0  0.51350867469E+01  0.17457789999E+02  0.10747448002E+03  0.10900416232E+03  0.00000000000E+00 0. -1.
         11    1    4    4    0    0  0.11095911568E+03  0.90573511742E+02  0.15607194979E+03  0.21183469945E+03  0.00000000000E+00 0.  1.
</event>
<event>
 8    1  0.6692409E-009  0.6722256E+02  0.7561462E-02  0.1369801E+00
          1   -1    0    0  501    0  0.00000000000E+00  0.00000000000E+00  0.44546773177E+02  0.44546773177E+02  0.00000000000E+00 0. -1.
         -1   -1    0    0    0  501 -0.00000000000E+00 -0.00000000000E+00 -0.28243562473E+03  0.28243562473E+03  0.00000000000E+00 0.  1.
         25    2    1    2    0    0  0.84182495359E-01 -0.11626731617E+02 -0.94842470850E+02  0.15741771843E+03  0.12510018315E+03 0.  0.
         23    2    1    2    0    0 -0.84182495359E-01  0.11626731617E+02 -0.14304638070E+03  0.16956467947E+03  0.90303518857E+02 0.  0.
          5    1    3    3  502    0  0.28241092436E+01  0.36334746610E+02  0.13293160377E+02  0.39017559086E+02  0.41800000000E+01 0. -1.
         -5    1    3    3    0  502 -0.27399267482E+01 -0.47961478227E+02 -0.10813563123E+03  0.11840015935E+03  0.41800000000E+01 0. -1.
        -11    1    4    4    0    0  0.18992183731E+02  0.20975915105E+02 -0.14545736432E+03  0.14818413172E+03  0.00000000000E+00 0.  1.
         11    1    4    4    0    0 -0.19076366227E+02 -0.93491834875E+01  0.24109836197E+01  0.21380547755E+02  0.00000000000E+00 0. -1.
</event>
<event>
 8    1  0.6692409E-009  0.7471105E+02  0.7561462E-02  0.1344768E+00
          1   -1    0    0  501    0  0.00000000000E+00  0.00000000000E+00  0.70088905737E+02  0.70088905737E+02  0.00000000000E+00 0. -1.
         -1   -1    0    0    0  501 -0.00000000000E+00 -0.00000000000E+00 -0.22806982199E+03  0.22806982199E+03  0.00000000000E+00 0.  1.
         25    2    1    2    0    0  0.55085406747E+02 -0.32828983877E+02 -0.99865295457E+02  0.17243314219E+03  0.12509183455E+03 0.  0.
         23    2    1    2    0    0 -0.55085406747E+02  0.32828983877E+02 -0.58115620798E+02  0.12572558553E+03  0.91199524441E+02 0.  0.
          5    1    3    3  502    0  0.41383045059E+02  0.71984522995E+01  0.18928124904E+02  0.46261435843E+02  0.41800000000E+01 0.  1.
         -5    1    3    3    0  502  0.13702361688E+02 -0.40027436177E+02 -0.11879342036E+03  0.12617170635E+03  0.41800000000E+01 0.  1.
        -11    1    4    4    0    0 -0.31692376816E+02  0.23747546453E+02  0.19508052388E+02  0.44146538016E+02  0.00000000000E+00 0. -1.
         11    1    4    4    0    0 -0.23393029931E+02  0.90814374238E+01 -0.77623673186E+02  0.81579047518E+02  0.00000000000E+00 0.  1.
</event>
<event>
 7    1  0.6692409E-009  0.1013273E+03  0.7561462E-02  0.1277529E+00
          2   -1    0    0  501    0  0.00000000000E+00  0.00000000000E+00  0.45389187604E+03  0.45389187604E+03  0.00000000000E+00 0. -1.
         -2   -1    0    0    0  501 -0.00000000000E+00 -0.00000000000E+00 -0.28142363541E+02  0.28142363541E+02  0.00000000000E+00 0.  1.
         23    2    1    2    0    0 -0.14144986882E+01  0.28298999935E+02  0.18887764699E+03  0.21257983914E+03  0.93341246362E+02 0.  0.
          5    1    1    2  502    0  0.46296632863E+02 -0.42060170918E+02  0.20005949179E+03  0.20965139840E+03  0.41800000000E+01 0.  1.
         -5    1    1    2    0  502 -0.44882134174E+02  0.13761170983E+02  0.36812373707E+02  0.59803002039E+02  0.41800000000E+01 0.  1.
        -11    1    3    3    0    0 -0.18098538940E+02  0.56908259589E+02  0.15034311442E+03  0.16176884488E+03  0.00000000000E+00 0. -1.
         11    1    3    3    0    0  0.16684040252E+02 -0.28609259654E+02  0.38534532573E+02  0.50810994260E+02  0.00000000000E+00 0.  1.
</event>
<event>
 8    1  0.6692409E-009  0.1219142E+03  0.7561462E-02  0.1239972E+00
         -1   -1    0    0    0  501 -0.00000000000E+00  0.00000000000E+00  0.44005813561E+02  0.44005813561E+02  0.00000000000E+00 0.  1.
          1   -1    0    0  501    0  0.00000000000E+00 -0.00000000000E+00 -0.61901234459E+03  0.61901234459E+03  0.00000000000E+00 0. -1.
         25    2    1    2    0    0 -0.30912744298E+02 -0.79686366079E+02 -0.48875277741E+03  0.51169608349E+03  0.12509232486E+03 0.  0.
         23    2    1    2    0    0  0.30912744298E+02  0.79686366079E+02 -0.86253753617E+02  0.15132207465E+03  0.90294770422E+02 0.  0.
          5    1    3    3  502    0 -0.76194276638E+02 -0.59598063527E+02 -0.25612449429E+03  0.27381513096E+03  0.41800000000E+01 0. -1.
         -5    1    3    3    0  502  0.45281532340E+02 -0.20088302553E+02 -0.23262828312E+03  0.23788095253E+03  0.41800000000E+01 0. -1.
        -11    1    4    4    0    0  0.40801272176E+02  0.42925539450E+02 -0.24454444957E+01  0.59273315641E+02  0.00000000000E+00 0.  1.
         11    1    4    4    0    0 -0.98885278782E+01  0.36760826629E+02 -0.83808309121E+02  0.92048759013E+02  0.00000000000E+00 0. -1.
</event>
<event>
 8    1  0.6692409E-009  0.2173902E+03  0.7561462E-02  0.1135844E+00
          2   -1    0    0  501    0  0.00000000000E+00  0.00000000000E+00  0.50752814341E+02  0.50752814341E+02  0.00000000000E+00 0. -1.
         -2   -1    0    0    0  501 -0.00000000000E+00 -0.00000000000E+00 -0.11279136504E+04  0.11279136504E+04  0.00000000000E+00 0.  1.
         25    2    1    2    0    0 -0.17366836390E+03 -0.11047366408E+03 -0.40842072516E+03  0.47415203939E+03  0.12509011408E+03 0.  0.
         23    2    1    2    0    0  0.17366836390E+03  0.11047366408E+03 -0.66874011087E+03  0.70451442533E+03  0.82232040791E+02 0.  0.
          5    1    3    3  502    0 -0.79897159892E+02 -0.10867869948E+02 -0.26005158712E+03  0.27229757091E+03  0.41800000000E+01 0. -1.
         -5    1    3    3    0  502 -0.93771204003E+02 -0.99605794127E+02 -0.14836913804E+03  0.20185446848E+03  0.41800000000E+01 0. -1.
        -11    1    4    4    0    0  0.85740424908E+02  0.14404544116E+02 -0.33942611530E+03  0.35038407370E+03  0.00000000000E+00 0.  1.
         11    1    4    4    0    0  0.87927938987E+02  0.96069119959E+02 -0.32931399557E+03  0.35413035163E+03  0.00000000000E+00 0. -1.
</event>
<event>
 8    1  0.6692409E-009  0.1163299E+03  0.7561462E-02  0.1249277E+00
          2   -1    0    0  501    0  0.00000000000E+00  0.00000000000E+00  0.47397385339E+02  0.47397385339E+02  0.00000000000E+00 0. -1.
         -2   -1    0    0    0  501 -0.00000000000E+00 -0.00000000000E+00 -0.35745228561E+03  0.35745228561E+03  0.00000000000E+00 0.  1.
         25    2    1    2    0    0  0.20927490611E+02  0.38324810222E+02 -0.83030610030E+02  0.15636089725E+03  0.12509155465E+03 0.  0.
         23    2    1    2    0    0 -0.20927490611E+02 -0.38324810222E+02 -0.22702429025E+03  0.24848877371E+03  0.91103739524E+02 0.  0.
          5    1    3    3  502    0  0.57349269744E+02 -0.21674086777E+02 -0.46934159795E+02  0.77323945408E+02  0.41800000000E+01 0. -1.
         -5    1    3    3    0  502 -0.36421779133E+02  0.59998896998E+02 -0.36096450234E+02  0.79036951838E+02  0.41800000000E+01 0. -1.
        -11    1    4    4    0    0 -0.57982573297E+01  0.30184525638E+02 -0.75110700456E+02  0.81156285641E+02  0.00000000000E+00 0.  1.
         11    1    4    4    0    0 -0.15129233281E+02 -0.68509335860E+02 -0.15191358979E+03  0.16733248807E+03  0.00000000000E+00 0. -1.
</event>
<event>
 8    1  0.6692409E-009  0.1080059E+03  0.7561462E-02  0.1264308E+00
         -2   -1    0    0    0  501 -0.00000000000E+00  0.00000000000E+00  0.94987091128E+02  0.94987091128E+02  0.00000000000E+00 0.  1.
          2   -1    0    0  501    0  0.00000000000E+00 -0.00000000000E+00 -0.18603464274E+03  0.18603464274E+03  0.00000000000E+00 0. -1.
         25    2    1    2    0    0  0.34632593991E+02 -0.43552866570E+02 -0.10600761885E+03  0.17314525717E+03  0.12508155769E+03 0.  0.
         23    2    1    2    0    0 -0.34632593991E+02  0.43552866570E+02  0.14960067245E+02  0.10787647669E+03  0.91199023342E+02 0.  0.
          5    1    3    3  502    0  0.76230742804E+02 -0.27260589359E+02 -0.33156562716E+02  0.87584792811E+02  0.41800000000E+01 0.  1.
         -5    1    3    3    0  502 -0.41598148813E+02 -0.16292277211E+02 -0.72851056136E+02  0.85560464360E+02  0.41800000000E+01 0.  1.
        -11    1    4    4    0    0 -0.34310343322E+02  0.62407943540E+02  0.35851653666E+02  0.79732629120E+02  0.00000000000E+00 0.  1.
         11    1    4    4    0    0 -0.32225066867E+00 -0.18855076970E+02 -0.20891586421E+02  0.28143847573E+02  0.00000000000E+00 0. -1.
</event>
<event>
 8    1  0.6692409E-009  0.1264573E+03  0.7561462E-02  0.1232809E+00
          2   -1    0    0  501    0  0.00000000000E+00  0.00000000000E+00  0.61141471700E+03  0.61141471700E+03  0.00000000000E+00 0. -1.
         -2   -1    0    0    0  501 -0.00000000000E+00 -0.00000000000E+00 -0.44408980450E+02  0.44408980450E+02  0.00000000000E+00 0.  1.
         25    2    1    2    0    0 -0.64243380847E+02  0.85481086436E+02  0.42722771917E+03  0.45782691814E+03  0.12509090624E+03 0.  0.
         23    2    1    2    0    0  0.64243380847E+02 -0.85481086436E+02  0.13977801738E+03  0.19799677931E+03  0.90722667255E+02 0.  0.
          5    1    3    3  502    0 -0.81540445533E+02  0.67182731535E+02  0.17609410741E+03  0.20539953929E+03  0.41800000000E+01 0.  1.
         -5    1    3    3    0  502  0.17297064686E+02  0.18298354901E+02  0.25113361176E+03  0.25242737885E+03  0.41800000000E+01 0.  1.
        -11    1    4    4    0    0  0.17141600324E+02  0.64864342800E+01 -0.60250484441E+01  0.19292731795E+02  0.00000000000E+00 0.  1.
         11    1    4    4    0    0  0.47101780523E+02 -0.91967520716E+02  0.14580306582E+03  0.17870404751E+03  0.00000000000E+00 0. -1.
</event>
<event>
 8    1  0.6692409E-009  0.9446309E+02  0.7561462E-02  0.1292390E+00
         -2   -1    0    0    0  501 -0.00000000000E+00  0.00000000000E+00  0.11304217260E+03  0.11304217260E+03  0.00000000000E+00 0.  1.
          2   -1    0    0  501    0  0.00000000000E+00 -0.00000000000E+00 -0.16300829904E+03  0.16300829904E+03  0.00000000000E+00 0. -1.
         25    2    1    2    0    0  0.17882691468E+02 -0.78327251172E+02 -0.39600866206E+02  0.15384853608E+03  0.12508474934E+03 0.  0.
         23    2    1    2    0    0 -0.17882691468E+02  0.78327251172E+02 -0.10365260230E+02  0.12220193557E+03  0.91492762048E+02 0.  0.
          5    1    3    3  502    0  0.55682682902E+01 -0.57027852531E+02  0.40276847540E+02  0.70163227006E+02  0.41800000000E+01 0. -1.
         -5    1    3    3    0  502  0.12314423178E+02 -0.21299398641E+02 -0.79877713747E+02  0.83685309070E+02  0.41800000000E+01 0. -1.
        -11    1    4    4    0    0 -0.14997899488E+02 -0.10076439926E+02 -0.26716222739E+02  0.32252568705E+02  0.00000000000E+00 0. -1.
         11    1    4    4    0    0 -0.28847919796E+01  0.88403691098E+02  0.16350962509E+02  0.89949366865E+02  0.00000000000E+00 0.  1.
</event>
<event>
 8    1  0.6692409E-009  0.1066605E+03  0.7561462E-02  0.1266882E+00
          1   -1    0    0  501    0  0.00000000000E+00  0.00000000000E+00  0.80954228394E+03  0.80954228394E+03  0.00000000000E+00 0. -1.
         -1   -1    0    0    0  501 -0.00000000000E+00 -0.00000000000E+00 -0.16802356869E+02  0.16802356869E+02  0.00000000000E+00 0.  1.
         25    2    1    2    0    0 -0.39637878281E+02  0.10763311688E+02  0.51813483042E+03  0.53460098715E+03  0.12508997841E+03 0.  0.
         23    2    1    2    0    0  0.39637878281E+02 -0.10763311688E+02  0.27460509665E+03  0.29174365366E+03  0.89551047273E+02 0.  0.
          5    1    3    3  502    0 -0.71312189703E+01 -0.56303021136E+02  0.21347004299E+03  0.22092491061E+03  0.41800000000E+01 0.  1.
         -5    1    3    3    0  502 -0.32506659311E+02  0.67066332823E+02  0.30466478743E+03  0.31367607654E+03  0.41800000000E+01 0.  1.
        -11    1    4    4    0    0 -0.10045875419E+02  0.20665864627E+02  0.20075254042E+02  0.30512512165E+02  0.00000000000E+00 0.  1.
         11    1    4    4    0    0  0.49683753700E+02 -0.31429176315E+02  0.25452984261E+03  0.26123114149E+03  0.00000000000E+00 0. -1.
</event>
<event>
 8    1  0.6692409E-009  0.8782392E+02  0.7561462E-02  0.1308209E+00
          1   -1    0    0  501    0  0.00000000000E+00  0.00000000000E+00  0.81586763379E+03  0.81586763379E+03  0.00000000000E+00 0. -1.
         -1   -1    0    0    0  501 -0.00000000000E+00 -0.00000000000E+00 -0.15711642220E+02  0.15711642220E+02  0.00000000000E+00 0.  1.
         25    2    1    2    0    0 -0.10624695679E+02 -0.24930828785E+02  0.52383760839E+03  0.53924764152E+03  0.12509096103E+03 0.  0.
         23    2    1    2    0    0  0.10624695679E+02  0.24930828785E+02  0.27631838318E+03  0.29233163449E+03  0.91495930299E+02 0.  0.
          5    1    3    3  502    0  0.30794979861E+02  0.26364110798E+02  0.36430999680E+03  0.36658238268E+03  0.41800000000E+01 0.  1.
         -5    1    3    3    0  502 -0.41419675540E+02 -0.51294939583E+02  0.15952761160E+03  0.17266525884E+03  0.41800000000E+01 0.  1.
        -11    1    4    4    0    0  0.80019734933E+01  0.46459662071E+02  0.26231037422E+03  0.26651315953E+03  0.00000000000E+00 0. -1.
         11    1    4    4    0    0  0.26227221861E+01 -0.21528833286E+02  0.14008008954E+02  0.25818474958E+02  0.00000000000E+00 0.  1.
</event>
<event>
 8    1  0.6692409E-009  0.1282409E+03  0.7561462E-02  0.1230089E+00
         -2   -1    0    0    0  501 -0.00000000000E+00  0.00000000000E+00  0.67473570893E+02  0.67473570893E+02  0.00000000000E+00 0.  1.
          2   -1    0    0  501    0  0.00000000000E+00 -0.00000000000E+00 -0.27280093082E+03  0.27280093082E+03  0.00000000000E+00 0. -1.
         25    2    1    2    0    0 -0.41504570989E+00  0.80895560648E+02 -0.11762995667E+03  0.18981046323E+03  0.12508773421E+03 0.  0.
         23    2    1    2    0    0  0.41504570989E+00 -0.80895560648E+02 -0.87697403264E+02  0.15046403849E+03  0.91675123908E+02 0.  0.
          5    1    3    3  502    0  0.52885524119E+02  0.75043145583E+02 -0.92686223551E+02  0.13052417706E+03  0.41800000000E+01 0. -1.
         -5    1    3    3    0  502 -0.53300569829E+02  0.58524150654E+01 -0.24943733116E+02  0.59286286171E+02  0.41800000000E+01 0. -1.
        -11    1    4    4    0    0  0.37890563333E+02 -0.35399476247E+02 -0.97877077433E+01  0.52769469688E+02  0.00000000000E+00 0.  1.
         11    1    4    4    0    0 -0.37475517624E+02 -0.45496084401E+02 -0.77909695521E+02  0.97694568801E+02  0.00000000000E+00 0. -1.
</event>
<event>
 8    1  0.6692409E-009  0.6036514E+02  0.7561462E-02  0.1396306E+00
          1   -1    0    0  501    0  0.00000000000E+00  0.00000000000E+00  0.43060497074E+03  0.43060497074E+03  0.00000000000E+00 0. -1.
         -1   -1    0    0    0  501 -0.00000000000E+00 -0.00000000000E+00 -0.28199473351E+02  0.28199473351E+02  0.00000000000E+00 0.  1.
         25    2    1    2    0    0 -0.74742179295E+01  0.28348696873E+02  0.23438128777E+03  0.26728458329E+03  0.12508776063E+03 0.  0.
         23    2    1    2    0    0  0.74742179295E+01 -0.28348696873E+02  0.16802420962E+03  0.19151986080E+03  0.87110329554E+02 0.  0.
          5    1    3    3  502    0  0.52568899320E+01  0.17073140555E+02  0.24573153278E+03  0.24641547359E+03  0.41800000000E+01 0.  1.
         -5    1    3    3    0  502 -0.12731107861E+02  0.11275556318E+02 -0.11350245017E+02  0.20869109698E+02  0.41800000000E+01 0.  1.
        -11    1    4    4    0    0 -0.19407967641E+02  0.21049908478E+02  0.95769204898E+02  0.99957533292E+02  0.00000000000E+00 0. -1.
         11    1    4    4    0    0  0.26882185571E+02 -0.49398605351E+02  0.72255004726E+02  0.91562327513E+02  0.00000000000E+00 0.  1.
</event>
<event>
 8    1  0.6692409E-009  0.8081164E+02  0.7561462E-02  0.1326764E+00
          1   -1    0    0  501    0  0.00000000000E+00  0.00000000000E+00  0.61239160529E+02  0.61239160529E+02  0.00000000000E+00 0. -1.
         -1   -1    0    0    0  501 -0.00000000000E+00 -0.00000000000E+00 -0.21859966446E+03  0.21859966446E+03  0.00000000000E+00 0.  1.
         25    2    1    2    0    0  0.12235775699E+02  0.37698484862E+02 -0.80239127496E+02  0.15380718629E+03  0.12508973981E+03 0.  0.
         23    2    1    2    0    0 -0.12235775699E+02 -0.37698484862E+02 -0.77121376431E+02  0.12603163869E+03  0.91462436447E+02 0.  0.
          5    1    3    3  502    0  0.36017891566E+02  0.20996751093E+02  0.22077969146E+02  0.47360966956E+02  0.41800000000E+01 0.  1.
         -5    1    3    3    0  502 -0.23782115867E+02  0.16701733769E+02 -0.10231709664E+03  0.10644621934E+03  0.41800000000E+01 0.  1.
        -11    1    4    4    0    0  0.34669848261E+02 -0.21213730674E+02 -0.61870865509E+02  0.74027189237E+02  0.00000000000E+00 0.  1.
         11    1    4    4    0    0 -0.46905623960E+02 -0.16484754188E+02 -0.15250510923E+02  0.52004449455E+02  0.00000000000E+00 0. -1.
</event>
<event>
 8    1  0.6692409E-009  0.7855822E+02  0.7561462E-02  0.1333194E+00
          1   -1    0    0  501    0  0.00000000000E+00  0.00000000000E+00  0.14316811961E+03  0.14316811961E+03  0.00000000000E+00 0. -1.
         -1   -1    0    0    0  501 -0.00000000000E+00 -0.00000000000E+00 -0.91270052959E+02  0.91270052959E+02  0.00000000000E+00 0.  1.
         25    2    1    2    0    0  0.33701296706E+02 -0.76636499783E+01  0.20456994829E+02  0.13137948847E+03  0.12509025711E+03 0.  0.
         23    2    1    2    0    0 -0.33701296706E+02  0.76636499783E+01  0.31441071824E+02  0.10305868410E+03  0.91858817975E+02 0.  0.
          5    1    3    3  502    0  0.25164914679E+02 -0.31118162500E+02 -0.45496508886E+02  0.60737284175E+02  0.41800000000E+01 0.  1.
         -5    1    3    3    0  502  0.85363820273E+01  0.23454512522E+02  0.65953503715E+02  0.70642204297E+02  0.41800000000E+01 0.  1.
        -11    1    4    4    0    0  0.16246995172E+02 -0.26480935324E+02 -0.63670603597E+01  0.31713471040E+02  0.00000000000E+00 0.  1.
         11    1    4    4    0    0 -0.49948291878E+02  0.34144585302E+02  0.37808132184E+02  0.71345213058E+02  0.00000000000E+00 0. -1.
</event>
<event>
 8    1  0.6692409E-009  0.1081072E+03  0.7561462E-02  0.1264116E+00
          1   -1    0    0  501    0  0.00000000000E+00  0.00000000000E+00  0.12898489975E+03  0.12898489975E+03  0.00000000000E+00 0. -1.
         -1   -1    0    0    0  501 -0.00000000000E+00 -0.00000000000E+00 -0.96416950015E+02  0.96416950015E+02  0.00000000000E+00 0.  1.
         25    2    1    2    0    0 -0.47689559469E+01  0.23589741872E+02  0.15792173329E+02  0.12836437452E+03  0.12509516796E+03 0.  0.
         23    2    1    2    0    0  0.47689559469E+01 -0.23589741872E+02  0.16775776407E+02  0.97037475242E+02  0.92496627316E+02 0.  0.
          5    1    3    3  502    0 -0.25306124306E+02 -0.43507523151E+02  0.26860983392E+02  0.57203927548E+02  0.41800000000E+01 0.  1.
         -5    1    3    3    0  502  0.20537168359E+02  0.67097265023E+02 -0.11068810063E+02  0.71160446977E+02  0.41800000000E+01 0.  1.
        -11    1    4    4    0    0 -0.36791132883E+02  0.14011939189E+02  0.97035461189E+01  0.40547265086E+02  0.00000000000E+00 0. -1.
         11    1    4    4    0    0  0.41560088830E+02 -0.37601681061E+02  0.70722302883E+01  0.56490210156E+02  0.00000000000E+00 0.  1.
</event>
<event>
 8    1  0.6692409E-009  0.1123073E+03  0.7561462E-02  0.1256356E+00
         -2   -1    0    0    0  501 -0.00000000000E+00  0.00000000000E+00  0.69787609487E+02  0.69787609487E+02  0.00000000000E+00 0.  1.
          2   -1    0    0  501    0  0.00000000000E+00 -0.00000000000E+00 -0.21061654138E+03  0.21061654138E+03  0.00000000000E+00 0. -1.
         25    2    1    2    0    0  0.49777442188E+02 -0.18279268136E+02 -0.92854000494E+02  0.16456501720E+03  0.12509138293E+03 0.  0.
         23    2    1    2    0    0 -0.49777442188E+02  0.18279268136E+02 -0.47974931401E+02  0.11583913367E+03  0.91132790211E+02 0.  0.
          5    1    3    3  502    0 -0.22595144070E+02 -0.50382874572E+02 -0.49105095311E+02  0.74011873177E+02  0.41800000000E+01 0. -1.
         -5    1    3    3    0  502  0.72372586258E+02  0.32103606436E+02 -0.43748905183E+02  0.90553144023E+02  0.41800000000E+01 0. -1.
        -11    1    4    4    0    0 -0.11582463249E+02 -0.27792887912E+02  0.10771303337E+02  0.31978415361E+02  0.00000000000E+00 0.  1.
         11    1    4    4    0    0 -0.38194978939E+02  0.46072156049E+02 -0.58746234738E+02  0.83860718307E+02  0.00000000000E+00 0. -1.
</event>
<event>
 8    1  0.6692409E-009  0.1926439E+03  0.7561462E-02  0.1156098E+00
         -1   -1    0    0    0  501 -0.00000000000E+00  0.00000000000E+00  0.35164671384E+02  0.35164671384E+02  0.00000000000E+00 0.  1.
          1   -1    0    0  501    0  0.00000000000E+00 -0.00000000000E+00 -0.12782291320E+04  0.12782291320E+04  0.00000000000E+00 0. -1.
         25    2    1    2    0    0  0.60530160098E+02  0.17152543736E+03 -0.62387040874E+03  0.66177526245E+03  0.12508930868E+03 0.  0.
         23    2    1    2    0    0 -0.60530160098E+02 -0.17152543736E+03 -0.61919405184E+03  0.65161854090E+03  0.90114222320E+02 0.  0.
          5    1    3    3  502    0  0.24667402344E+02  0.10809918594E+03 -0.53687279895E+03  0.54821874228E+03  0.41800000000E+01 0. -1.
         -5    1    3    3    0  502  0.35862757754E+02  0.63426251425E+02 -0.86997609794E+02  0.11355652017E+03  0.41800000000E+01 0. -1.
        -11    1    4    4    0    0 -0.58523509041E+02 -0.42549095391E+02 -0.26364402563E+03  0.27339275572E+03  0.00000000000E+00 0.  1.
         11    1    4    4    0    0 -0.20066510576E+01 -0.12897634197E+03 -0.35555002621E+03  0.37822578518E+03  0.00000000000E+00 0. -1.
</event>
<event>
 8    1  0.6692409E-009  0.7086778E+02  0.7561462E-02  0.1357167E+00
          1   -1    0    0  501    0  0.00000000000E+00  0.00000000000E+00  0.52773302925E+02  0.52773302925E+02  0.00000000000E+00 0. -1.
         -1   -1    0    0    0  501 -0.00000000000E+00 -0.00000000000E+00 -0.28958151554E+03  0.28958151554E+03  0.00000000000E+00 0.  1.
         25    2    1    2    0    0  0.62591708416E+00  0.47715192956E+02 -0.18254953079E+03  0.22638161346E+03  0.12508865778E+03 0.  0.
         23    2    1    2    0    0 -0.62591708416E+00 -0.47715192956E+02 -0.54258681820E+02  0.11597320501E+03  0.90711897325E+02 0.  0.
          5    1    3    3  502    0 -0.93503867052E+01  0.29489624476E+02 -0.19781464870E+03  0.20026276569E+03  0.41800000000E+01 0.  1.
         -5    1    3    3    0  502  0.99763037893E+01  0.18225568481E+02  0.15265117905E+02  0.26118847762E+02  0.41800000000E+01 0.  1.
        -11    1    4    4    0    0 -0.34572107074E+02 -0.52657475410E+01 -0.50584181988E+02  0.61495675881E+02  0.00000000000E+00 0.  1.
         11    1    4    4    0    0  0.33946189990E+02 -0.42449445415E+02 -0.36744998316E+01  0.54477529128E+02  0.00000000000E+00 0. -1.
</event>
<event>
 8    1  0.6692409E-009  0.1503562E+03  0.7561462E-02  0.1200036E+00
         -2   -1    0    0    0  501 -0.00000000000E+00  0.00000000000E+00  0.23680792315E+02  0.23680792315E+02  0.00000000000E+00 0.  1.
          2   -1    0    0  501    0  0.00000000000E+00 -0.00000000000E+00 -0.11826164718E+04  0.11826164718E+04  0.00000000000E+00 0. -1.
         25    2    1    2    0    0 -0.12372370085E+03 -0.25640571337E+02 -0.63141607116E+03  0.65597196338E+03  0.12509184133E+03 0.  0.
         23    2    1    2    0    0  0.12372370085E+03  0.25640571337E+02 -0.52751960830E+03  0.55032530072E+03  0.92822445640E+02 0.  0.
          5    1    3    3  502    0 -0.93012928685E+02 -0.50923331929E+02 -0.23873877393E+03  0.26126282785E+03  0.41800000000E+01 0. -1.
         -5    1    3    3    0  502 -0.30710772162E+02  0.25282760592E+02 -0.39267729723E+03  0.39470913553E+03  0.41800000000E+01 0. -1.
        -11    1    4    4    0    0  0.57664863591E+02  0.57339626729E+02 -0.32290174033E+03  0.33298438881E+03  0.00000000000E+00 0. -1.
         11    1    4    4    0    0  0.66058837255E+02 -0.31699055392E+02 -0.20461786798E+03  0.21734091191E+03  0.00000000000E+00 0.  1.
</event>
<event>
 8    1  0.6692409E-009  0.1016762E+03  0.7561462E-02  0.1276810E+00
          2   -1    0    0  501    0  0.00000000000E+00  0.00000000000E+00  0.86350882481E+03  0.86350882481E+03  0.00000000000E+00 0. -1.
         -2   -1    0    0    0  501 -0.00000000000E+00 -0.00000000000E+00 -0.15315671224E+02  0.15315671224E+02  0.00000000000E+00 0.  1.
         25    2    1    2    0    0  0.59240217150E+01 -0.30130384892E+02  0.57004050504E+03  0.58441153336E+03  0.12509088218E+03 0.  0.
         23    2    1    2    0    0 -0.59240217150E+01  0.30130384892E+02  0.27815264855E+03  0.29441296268E+03  0.91472195627E+02 0.  0.
          5    1    3    3  502    0 -0.38466065252E+02 -0.47280003502E+02  0.15460453672E+03  0.16623799831E+03  0.41800000000E+01 0. -1.
         -5    1    3    3    0  502  0.44390086967E+02  0.17149618610E+02  0.41543596832E+03  0.41817353505E+03  0.41800000000E+01 0. -1.
        -11    1    4    4    0    0 -0.30917734329E+02  0.52511448296E+02  0.14913153217E+03  0.16110112472E+03  0.00000000000E+00 0.  1.
         11    1    4    4    0    0  0.24993712614E+02 -0.22381063404E+02  0.12902111638E+03  0.13331183796E+03  0.00000000000E+00 0. -1.
</event>
<event>
 8    1  0.6692409E-009  0.1154303E+03  0.7561462E-02  0.1250832E+00
         -1   -1    0    0    0  501 -0.00000000000E+00  0.00000000000E+00  0.24668721837E+03  0.24668721837E+03  0.00000000000E+00 0.  1.
          1   -1    0    0  501    0  0.00000000000E+00 -0.00000000000E+00 -0.56684869814E+02  0.56684869814E+02  0.00000000000E+00 0. -1.
         25    2    1    2    0    0 -0.47367645315E+02  0.13648121592E+02  0.12049113917E+03  0.18054038220E+03  0.12508696950E+03 0.  0.
         23    2    1    2    0    0  0.47367645315E+02 -0.13648121592E+02  0.69511209379E+02  0.12283170598E+03  0.88463861090E+02 0.  0.
          5    1    3    3  502    0 -0.61555761268E+02  0.59266524856E+02  0.87212692848E+02  0.12216856759E+03  0.41800000000E+01 0.  1.
         -5    1    3    3    0  502  0.14188115953E+02 -0.45618403264E+02  0.33278446325E+02  0.58371814607E+02  0.41800000000E+01 0.  1.
        -11    1    4    4    0    0  0.48474063297E+02  0.27806428617E+02  0.22764350688E+02  0.60341925286E+02  0.00000000000E+00 0.  1.
         11    1    4    4    0    0 -0.11064179814E+01 -0.41454550209E+02  0.46746858691E+02  0.62489780695E+02  0.00000000000E+00 0. -1.
</event>
<event>
 8    1  0.6692409E-009  0.1218949E+03  0.7561462E-02  0.1240003E+00
          4   -1    0    0  501    0  0.00000000000E+00  0.00000000000E+00  0.17588964657E+03  0.17588964657E+03  0.00000000000E+00 0. -1.
         -4   -1    0    0    0  501 -0.00000000000E+00 -0.00000000000E+00 -0.86570908884E+02  0.86570908884E+02  0.00000000000E+00 0.  1.
         25    2    1    2    0    0 -0.38921913488E+02  0.42548473734E+02  0.64923922869E+02  0.15227882601E+03  0.12509371337E+03 0.  0.
         23    2    1    2    0    0  0.38921913488E+02 -0.42548473734E+02  0.24394814820E+02  0.11018172945E+03  0.90662111972E+02 0.  0.
          5    1    3    3  502    0 -0.56305836085E+02  0.78527329057E+02  0.53408958654E+02  0.11048474035E+03  0.41800000000E+01 0. -1.
         -5    1    3    3    0  502  0.17383922598E+02 -0.35978855323E+02  0.11514964215E+02  0.41794085659E+02  0.41800000000E+01 0. -1.
        -11    1    4    4    0    0  0.64763851167E+02 -0.10312245367E+02  0.20370240711E+02  0.68670557949E+02  0.00000000000E+00 0. -1.
         11    1    4    4    0    0 -0.25841937679E+02 -0.32236228367E+02  0.40245741084E+01  0.41511171497E+02  0.00000000000E+00 0.  1.
</event>
<event>
 8    1  0.6692409E-009  0.1246293E+03  0.7561462E-02  0.1235650E+00
         -1   -1    0    0    0  501 -0.00000000000E+00  0.00000000000E+00  0.22613333542E+02  0.22613333542E+02  0.00000000000E+00 0.  1.
          1   -1    0    0  501    0  0.00000000000E+00 -0.00000000000E+00 -0.91177250564E+03  0.91177250564E+03  0.00000000000E+00 0. -1.
         25    2    1    2    0    0 -0.42416901869E+02 -0.73426742883E+02 -0.60994227285E+03  0.62838611540E+03  0.12509537835E+03 0.  0.
         23    2    1    2    0    0  0.42416901869E+02  0.73426742883E+02 -0.27921689924E+03  0.30599972377E+03  0.92103604671E+02 0.  0.
          5    1    3    3  502    0 -0.36807907986E+02  0.22333376428E+02 -0.32117207649E+03  0.32407186997E+03  0.41800000000E+01 0.  1.
         -5    1    3    3    0  502 -0.56089938830E+01 -0.95760119310E+02 -0.28877019637E+03  0.30431424543E+03  0.41800000000E+01 0.  1.
        -11    1    4    4    0    0 -0.19175512126E+02  0.25712692164E+02 -0.16271542083E+03  0.16584676958E+03  0.00000000000E+00 0. -1.
         11    1    4    4    0    0  0.61592413995E+02  0.47714050719E+02 -0.11650147841E+03  0.14015295419E+03  0.00000000000E+00 0.  1.
</event>
<event>
 8    1  0.6692409E-009  0.8265890E+02  0.7561462E-02  0.1321671E+00
         -3   -1    0    0    0  501 -0.00000000000E+00  0.00000000000E+00  0.27992070879E+03  0.27992070879E+03  0.00000000000E+00 0.  1.
          3   -1    0    0  501    0  0.00000000000E+00 -0.00000000000E+00 -0.51404696956E+02  0.51404696956E+02  0.00000000000E+00 0. -1.
         25    2    1    2    0    0 -0.52722174832E+02 -0.17006736160E+02  0.14466777704E+03  0.19910995876E+03  0.12508858129E+03 0.  0.
         23    2    1    2    0    0  0.52722174832E+02  0.17006736160E+02  0.83848234796E+02  0.13221544699E+03  0.85915895802E+02 0.  0.
          5    1    3    3  502    0 -0.76292283625E+02 -0.34383489091E+01  0.15241091868E+03  0.17052535095E+03  0.41800000000E+01 0. -1.
         -5    1    3    3    0  502  0.23570108793E+02 -0.13568387251E+02 -0.77431416373E+01  0.28584607808E+02  0.41800000000E+01 0. -1.
        -11    1    4    4    0    0  0.39905947849E+02 -0.14565161341E+00  0.98495860547E+02  0.10627295250E+03  0.00000000000E+00 0.  1.
         11    1    4    4    0    0  0.12816226983E+02  0.17152387773E+02 -0.14647625751E+02  0.25942494493E+02  0.00000000000E+00 0. -1.
</event>
<event>
 8    1  0.6692409E-009  0.1531132E+03  0.7561462E-02  0.1196699E+00
          1   -1    0    0  501    0  0.00000000000E+00  0.00000000000E+00  0.47754629332E+03  0.47754629332E+03  0.00000000000E+00 0. -1.
         -1   -1    0    0    0  501 -0.00000000000E+00 -0.00000000000E+00 -0.56172815057E+02  0.56172815057E+02  0.00000000000E+00 0.  1.
         25    2    1    2    0    0 -0.71327449255E+02  0.85844215790E+02  0.30395835981E+03  0.34712336921E+03  0.12508842694E+03 0.  0.
         23    2    1    2    0    0  0.71327449255E+02 -0.85844215790E+02  0.11741511846E+03  0.18659573917E+03  0.92600353299E+02 0.  0.
          5    1    3    3  502    0 -0.66582347755E+02  0.11709015016E+03  0.22974000075E+03  0.26634799162E+03  0.41800000000E+01 0.  1.
         -5    1    3    3    0  502 -0.47451014994E+01 -0.31245934373E+02  0.74218359059E+02  0.80775377588E+02  0.41800000000E+01 0.  1.
        -11    1    4    4    0    0  0.67451613239E+02 -0.15597440178E+02  0.83578412526E+02  0.10852811299E+03  0.00000000000E+00 0.  1.
         11    1    4    4    0    0  0.38758360158E+01 -0.70246775612E+02  0.33836705930E+02  0.78067626177E+02  0.00000000000E+00 0. -1.
</event>
<event>
 8    1  0.6692409E-009  0.1147692E+03  0.7561462E-02  0.1251984E+00
          1   -1    0    0  501    0  0.00000000000E+00  0.00000000000E+00  0.38632375519E+03  0.38632375519E+03  0.00000000000E+00 0. -1.
         -1   -1    0    0    0  501 -0.00000000000E+00 -0.00000000000E+00 -0.60921386325E+02  0.60921386325E+02  0.00000000000E+00 0.  1.
         25    2    1    2    0    0 -0.76562854460E+02 -0.54057209452E+02  0.25588690495E+03  0.29984599477E+03  0.12508181274E+03 0.  0.
         23    2    1    2    0    0  0.76562854460E+02  0.54057209452E+02  0.69515463910E+02  0.14739914674E+03  0.90055850225E+02 0.  0.
          5    1    3    3  502    0 -0.81502354040E+02 -0.64044319952E+02  0.10194928528E+03  0.14544909007E+03  0.41800000000E+01 0.  1.
         -5    1    3    3    0  502  0.49394995802E+01  0.99871105003E+01  0.15393761968E+03  0.15439690471E+03  0.41800000000E+01 0.  1.
        -11    1    4    4    0    0  0.79478198063E+02  0.23046972410E+02  0.14263323363E+02  0.83972550860E+02  0.00000000000E+00 0.  1.
         11    1    4    4    0    0 -0.29153436026E+01  0.31010237042E+02  0.55252140547E+02  0.63426595878E+02  0.00000000000E+00 0. -1.
</event>
<event>
 8    1  0.6692409E-009  0.9572096E+02  0.7561462E-02  0.1289561E+00
          1   -1    0    0  501    0  0.00000000000E+00  0.00000000000E+00  0.21420616583E+03  0.21420616583E+03  0.00000000000E+00 0. -1.
         -1   -1    0    0    0  501 -0.00000000000E+00 -0.00000000000E+00 -0.76713170118E+02  0.76713170118E+02  0.00000000000E+00 0.  1.
         25    2    1    2    0    0 -0.13135565235E+02 -0.21001091074E+02  0.47347894498E+01  0.12760734998E+03  0.12509048180E+03 0.  0.
         23    2    1    2    0    0  0.13135565235E+02  0.21001091074E+02  0.13275820626E+03  0.16331198597E+03  0.91828506097E+02 0.  0.
          5    1    3    3  502    0 -0.37708640136E+02 -0.65933879336E+02  0.48343072910E+01  0.76223755563E+02  0.41800000000E+01 0.  1.
         -5    1    3    3    0  502  0.24573074900E+02  0.44932788262E+02 -0.99517841252E-01  0.51383594413E+02  0.41800000000E+01 0.  1.
        -11    1    4    4    0    0 -0.21385305924E+02 -0.34815492457E+01  0.11565232557E+03  0.11766440798E+03  0.00000000000E+00 0. -1.
         11    1    4    4    0    0  0.34520871160E+02  0.24482640320E+02  0.17105880691E+02  0.45647577996E+02  0.00000000000E+00 0.  1.
</event>
<event>
 8    1  0.6692409E-009  0.3390463E+03  0.7561462E-02  0.1067203E+00
         -2   -1    0    0    0  501 -0.00000000000E+00  0.00000000000E+00  0.16412421803E+03  0.16412421803E+03  0.00000000000E+00 0. -1.
          2   -1    0    0  501    0  0.00000000000E+00 -0.00000000000E+00 -0.75756909683E+03  0.75756909683E+03  0.00000000000E+00 0.  1.
         25    2    1    2    0    0  0.47004349418E+02  0.32971760908E+03 -0.35214464615E+03  0.50057518668E+03  0.12508619068E+03 0.  0.
         23    2    1    2    0    0 -0.47004349418E+02 -0.32971760908E+03 -0.24130023265E+03  0.42111812817E+03  0.90507264882E+02 0.  0.
          5    1    3    3  502    0  0.48461837830E+02  0.22292396277E+03 -0.31171385177E+03  0.38629864184E+03  0.41800000000E+01 0.  1.
         -5    1    3    3    0  502 -0.14574884114E+01  0.10679364632E+03 -0.40430794386E+02  0.11427654484E+03  0.41800000000E+01 0.  1.
        -11    1    4    4    0    0 -0.17531244405E+02 -0.30222483551E+03 -0.22686691671E+03  0.37830648108E+03  0.00000000000E+00 0.  1.
         11    1    4    4    0    0 -0.29473105013E+02 -0.27492773579E+02 -0.14433315933E+02  0.42811647095E+02  0.00000000000E+00 0. -1.
</event>
<event>
 8    1  0.6692409E-009  0.1822440E+03  0.7561462E-02  0.1165649E+00
          2   -1    0    0  501    0  0.00000000000E+00  0.00000000000E+00  0.51406921919E+03  0.51406921919E+03  0.00000000000E+00 0. -1.
         -2   -1    0    0    0  501 -0.00000000000E+00 -0.00000000000E+00 -0.84106766567E+02  0.84106766567E+02  0.00000000000E+00 0.  1.
         25    2    1    2    0    0  0.13818877601E+03  0.11043971569E+03  0.19551364244E+03  0.29183125512E+03  0.12508728339E+03 0.  0.
         23    2    1    2    0    0 -0.13818877601E+03 -0.11043971569E+03  0.23444881019E+03  0.30634473064E+03  0.87107868625E+02 0.  0.
          5    1    3    3  502    0  0.37581008331E+02  0.29478146359E+02  0.14564813934E+03  0.15333670856E+03  0.41800000000E+01 0. -1.
         -5    1    3    3    0  502  0.10060776768E+03  0.80961569329E+02  0.49865503098E+02  0.13849454655E+03  0.41800000000E+01 0. -1.
        -11    1    4    4    0    0 -0.60637149303E+02 -0.11654521383E+02  0.12638669153E+03  0.14066373925E+03  0.00000000000E+00 0. -1.
         11    1    4    4    0    0 -0.77551626709E+02 -0.98785194306E+02  0.10806211866E+03  0.16568099139E+03  0.00000000000E+00 0.  1.
</event>
<event>
 8    1  0.6692409E-009  0.1251672E+03  0.7561462E-02  0.1234808E+00
          2   -1    0    0  501    0  0.00000000000E+00  0.00000000000E+00  0.62862311653E+03  0.62862311653E+03  0.00000000000E+00 0. -1.
         -2   -1    0    0    0  501 -0.00000000000E+00 -0.00000000000E+00 -0.27818890799E+02  0.27818890799E+02  0.00000000000E+00 0.  1.
         25    2    1    2    0    0  0.52582441832E+02  0.44604317532E+02  0.30966522768E+03  0.34101930176E+03  0.12508857905E+03 0.  0.
         23    2    1    2    0    0 -0.52582441832E+02 -0.44604317532E+02  0.29113899805E+03  0.31542270557E+03  0.99875465810E+02 0.  0.
          5    1    3    3  502    0  0.37730169364E+02 -0.33418759529E+02  0.19512949704E+03  0.20157721147E+03  0.41800000000E+01 0. -1.
         -5    1    3    3    0  502  0.14852272468E+02  0.78023077061E+02  0.11453573064E+03  0.13944209029E+03  0.41800000000E+01 0. -1.
        -11    1    4    4    0    0 -0.81687509300E+02 -0.26186464855E+02  0.18702570794E+03  0.20576004362E+03  0.00000000000E+00 0. -1.
         11    1    4    4    0    0  0.29105067468E+02 -0.18417852677E+02  0.10411329011E+03  0.10966266195E+03  0.00000000000E+00 0.  1.
</event>
<event>
 8    1  0.6692409E-009  0.8641412E+02  0.7561462E-02  0.1311775E+00
         -1   -1    0    0    0  501 -0.00000000000E+00  0.00000000000E+00  0.27339212091E+03  0.27339212091E+03  0.00000000000E+00 0.  1.
          1   -1    0    0  501    0  0.00000000000E+00 -0.00000000000E+00 -0.54286502088E+02  0.54286502088E+02  0.00000000000E+00 0. -1.
         25    2    1    2    0    0 -0.23715790711E+02 -0.44879271216E+02  0.15515808471E+03  0.20566210795E+03  0.12508510575E+03 0.  0.
         23    2    1    2    0    0  0.23715790711E+02  0.44879271216E+02  0.63947534112E+02  0.12201651505E+03  0.90676100007E+02 0.  0.
          5    1    3    3  502    0  0.15436364045E+02 -0.54109177089E+02  0.15528703014E+03  0.16521990955E+03  0.41800000000E+01 0.  1.
         -5    1    3    3    0  502 -0.39152154755E+02  0.92299058734E+01 -0.12894543303E+00  0.40442198399E+02  0.41800000000E+01 0.  1.
        -11    1    4    4    0    0 -0.18108919497E+02  0.21271515815E+02 -0.13390388573E+02  0.30979232665E+02  0.00000000000E+00 0. -1.
         11    1    4    4    0    0  0.41824710208E+02  0.23607755401E+02  0.77337922685E+02  0.91037282386E+02  0.00000000000E+00 0.  1.
</event>
<event>
 8    1  0.6692409E-009  0.1380090E+03  0.7561462E-02  0.1216033E+00
         -1   -1    0    0    0  501 -0.00000000000E+00  0.00000000000E+00  0.13548382767E+03  0.13548382767E+03  0.00000000000E+00 0.  1.
          1   -1    0    0  501    0  0.00000000000E+00 -0.00000000000E+00 -0.24920643654E+03  0.24920643654E+03  0.00000000000E+00 0. -1.
         25    2    1    2    0    0  0.77499243632E+02 -0.45403864107E+02 -0.18024126378E+03  0.23706898150E+03  0.12508854936E+03 0.  0.
         23    2    1    2    0    0 -0.77499243632E+02  0.45403864107E+02  0.66518654915E+02  0.14762128270E+03  0.96434786336E+02 0.  0.
          5    1    3    3  502    0  0.10479172864E+03 -0.13345307659E+02 -0.96017656451E+02  0.14281549769E+03  0.41800000000E+01 0. -1.
         -5    1    3    3    0  502 -0.27292485012E+02 -0.32058556448E+02 -0.84223607332E+02  0.94253483817E+02  0.41800000000E+01 0. -1.
        -11    1    4    4    0    0 -0.49528722551E+02 -0.22611106074E+02  0.45984451623E+02  0.71266585905E+02  0.00000000000E+00 0.  1.
         11    1    4    4    0    0 -0.27970521081E+02  0.68014970181E+02  0.20534203291E+02  0.76354696798E+02  0.00000000000E+00 0. -1.
</event>
<event>
 8    1  0.6692409E-009  0.9465587E+02  0.7561462E-02  0.1291953E+00
         -3   -1    0    0    0  501 -0.00000000000E+00  0.00000000000E+00  0.44304867060E+03  0.44304867060E+03  0.00000000000E+00 0.  1.
          3   -1    0    0  501    0  0.00000000000E+00 -0.00000000000E+00 -0.31289359425E+02  0.31289359425E+02  0.00000000000E+00 0. -1.
         25    2    1    2    0    0 -0.22708653895E+02  0.20531720630E+02  0.23964933483E+03  0.27206071505E+03  0.12509194411E+03 0.  0.
         23    2    1    2    0    0  0.22708653895E+02 -0.20531720630E+02  0.17210997635E+03  0.20227731497E+03  0.10176951252E+03 0.  0.
          5    1    3    3  502    0 -0.64877917764E+00  0.59296280854E+02  0.21021440231E+03  0.21845831908E+03  0.41800000000E+01 0. -1.
         -5    1    3    3    0  502 -0.22059874718E+02 -0.38764560224E+02  0.29434932517E+02  0.53602395975E+02  0.41800000000E+01 0. -1.
        -11    1    4    4    0    0 -0.13499601916E+01 -0.48304363708E+02  0.15382158238E+03  0.16123341202E+03  0.00000000000E+00 0.  1.
         11    1    4    4    0    0  0.24058614087E+02  0.27772643078E+02  0.18288393968E+02  0.41043902949E+02  0.00000000000E+00 0. -1.
</event>
<event>
 8    1  0.6692409E-009  0.1372322E+03  0.7561462E-02  0.1217102E+00
          2   -1    0    0  501    0  0.00000000000E+00  0.00000000000E+00  0.25064138305E+04  0.25064138305E+04  0.00000000000E+00 0.  1.
         -2   -1    0    0    0  501 -0.00000000000E+00 -0.00000000000E+00 -0.91272999809E+01  0.91272999809E+01  0.00000000000E+00 0. -1.
         25    2    1    2    0    0 -0.64172364529E+02  0.46985713430E+02  0.18517019632E+04  0.18576256240E+04  0.12508816300E+03 0.  0.
         23    2    1    2    0    0  0.64172364529E+02 -0.46985713430E+02  0.64558456726E+03  0.65791550649E+03  0.98730089455E+02 0.  0.
          5    1    3    3  502    0  0.14298222435E+02 -0.32822257816E+02  0.49194213195E+03  0.49326085732E+03  0.41800000000E+01 0.  1.
         -5    1    3    3    0  502 -0.78470586964E+02  0.79807971246E+02  0.13597598313E+04  0.13643647666E+04  0.41800000000E+01 0.  1.
        -11    1    4    4    0    0  0.83623601748E+02 -0.94682296847E+01  0.40568808390E+03  0.41432520507E+03  0.00000000000E+00 0.  1.
         11    1    4    4    0    0 -0.19451237220E+02 -0.37517483745E+02  0.23989648336E+03  0.24359030142E+03  0.00000000000E+00 0. -1.
</event>
<event>
 8    1  0.6692409E-009  0.1170777E+03  0.7561462E-02  0.1247997E+00
          2   -1    0    0  501    0  0.00000000000E+00  0.00000000000E+00  0.17310710130E+03  0.17310710130E+03  0.00000000000E+00 0.  1.
         -2   -1    0    0    0  501 -0.00000000000E+00 -0.00000000000E+00 -0.11023360512E+03  0.11023360512E+03  0.00000000000E+00 0. -1.
         25    2    1    2    0    0  0.39044350860E-01 -0.74264768665E+02  0.74610717702E+02  0.16349108903E+03  0.12508924657E+03 0.  0.
         23    2    1    2    0    0 -0.39044350860E-01  0.74264768665E+02 -0.11737221528E+02  0.11984961739E+03  0.93332261469E+02 0.  0.
          5    1    3    3  502    0  0.50157313971E+02  0.17262930926E+01  0.45383035100E+02  0.67792540205E+02  0.41800000000E+01 0.  1.
         -5    1    3    3    0  502 -0.50118269620E+02 -0.75991061758E+02  0.29227682603E+02  0.95698548825E+02  0.41800000000E+01 0.  1.
        -11    1    4    4    0    0  0.25007981852E+02  0.57008736346E+02  0.29272555628E+02  0.68791552454E+02  0.00000000000E+00 0.  1.
         11    1    4    4    0    0 -0.25047026203E+02  0.17256032319E+02 -0.41009777155E+02  0.51058064939E+02  0.00000000000E+00 0. -1.
</event>
<event>
 8    1  0.6692409E-009  0.9146727E+02  0.7561462E-02  0.1299337E+00
          2   -1    0    0  501    0  0.00000000000E+00  0.00000000000E+00  0.79902462082E+03  0.79902462082E+03  0.00000000000E+00 0. -1.
         -2   -1    0    0    0  501 -0.00000000000E+00 -0.00000000000E+00 -0.22895609625E+02  0.22895609625E+02  0.00000000000E+00 0.  1.
         25    2    1    2    0    0 -0.74323471306E+02 -0.31519113066E+02  0.41940322446E+03  0.44504478879E+03  0.12509343092E+03 0.  0.
         23    2    1    2    0    0  0.74323471306E+02  0.31519113066E+02  0.35672578673E+03  0.37687544165E+03  0.90908628469E+02 0.  0.
          5    1    3    3  502    0 -0.43393248312E+02 -0.18925752497E+02  0.40607332103E+03  0.40884492483E+03  0.41800000000E+01 0. -1.
         -5    1    3    3    0  502 -0.30930222994E+02 -0.12593360569E+02  0.13329903432E+02  0.36199863955E+02  0.41800000000E+01 0. -1.
        -11    1    4    4    0    0 -0.90743807976E+01  0.13764312903E+02  0.88686320448E+01  0.18720398791E+02  0.00000000000E+00 0.  1.
         11    1    4    4    0    0  0.83397852104E+02  0.17754800163E+02  0.34785715468E+03  0.35815504286E+03  0.00000000000E+00 0. -1.
</event>
<event>
 8    1  0.6692409E-009  0.1173168E+03  0.7561462E-02  0.1247590E+00
         -4   -1    0    0    0  501 -0.00000000000E+00  0.00000000000E+00  0.77082861629E+02  0.77082861629E+02  0.00000000000E+00 0.  1.
          4   -1    0    0  501    0  0.00000000000E+00 -0.00000000000E+00 -0.31115038217E+03  0.31115038217E+03  0.00000000000E+00 0. -1.
         25    2    1    2    0    0 -0.59608566801E+02 -0.66681484482E+02 -0.20465610393E+03  0.25599114383E+03  0.12509093986E+03 0.  0.
         23    2    1    2    0    0  0.59608566801E+02  0.66681484482E+02 -0.29411416617E+02  0.13224209998E+03  0.92861940374E+02 0.  0.
          5    1    3    3  502    0 -0.53862383483E+02  0.20194678728E+02 -0.12604087024E+03  0.13861008179E+03  0.41800000000E+01 0. -1.
         -5    1    3    3    0  502 -0.57461833173E+01 -0.86876163210E+02 -0.78615233691E+02  0.11738106204E+03  0.41800000000E+01 0. -1.
        -11    1    4    4    0    0  0.44824923522E+02  0.54983593488E+02  0.24561500465E+02  0.75071543388E+02  0.00000000000E+00 0.  1.
         11    1    4    4    0    0  0.14783643279E+02  0.11697890994E+02 -0.53972917082E+02  0.57170556588E+02  0.00000000000E+00 0. -1.
</event>
<event>
 8    1  0.6692409E-009  0.1224257E+03  0.7561462E-02  0.1239148E+00
          1   -1    0    0  501    0  0.00000000000E+00  0.00000000000E+00  0.33835952495E+03  0.33835952495E+03  0.00000000000E+00 0. -1.
         -1   -1    0    0    0  501 -0.00000000000E+00 -0.00000000000E+00 -0.52443262180E+02  0.52443262180E+02  0.00000000000E+00 0.  1.
         25    2    1    2    0    0  0.61559910694E+02  0.46905449066E+02  0.15596608586E+03  0.21438641354E+03  0.12508545324E+03 0.  0.
         23    2    1    2    0    0 -0.61559910694E+02 -0.46905449066E+02  0.12995017691E+03  0.17641637359E+03  0.90807183841E+02 0.  0.
          5    1    3    3  502    0  0.51037433184E+02 -0.27719680363E+02  0.11403649079E+03  0.12804293771E+03  0.41800000000E+01 0. -1.
         -5    1    3    3    0  502  0.10522477510E+02  0.74625129429E+02  0.41929595076E+02  0.86343475831E+02  0.41800000000E+01 0. -1.
        -11    1    4    4    0    0 -0.63921868738E+02  0.25580152517E+00  0.41683000215E+02  0.76312143492E+02  0.00000000000E+00 0.  1.
         11    1    4    4    0    0  0.23619580445E+01 -0.47161250591E+02  0.88267176693E+02  0.10010423010E+03  0.00000000000E+00 0. -1.
</event>
<event>
 8    1  0.6692409E-009  0.1154350E+03  0.7561462E-02  0.1250824E+00
         -1   -1    0    0    0  501 -0.00000000000E+00  0.00000000000E+00  0.23319352450E+03  0.23319352450E+03  0.00000000000E+00 0.  1.
          1   -1    0    0  501    0  0.00000000000E+00 -0.00000000000E+00 -0.84682797218E+02  0.84682797218E+02  0.00000000000E+00 0. -1.
         25    2    1    2    0    0 -0.89455039357E+02 -0.16434959242E+02  0.78121085481E+02  0.17327108367E+03  0.12509057713E+03 0.  0.
         23    2    1    2    0    0  0.89455039357E+02  0.16434959242E+02  0.70389641800E+02  0.14460523805E+03  0.87656495744E+02 0.  0.
          5    1    3    3  502    0 -0.13375296662E+02  0.16531736257E+02 -0.29965160965E+02  0.36980807673E+02  0.41800000000E+01 0. -1.
         -5    1    3    3    0  502 -0.76079742695E+02 -0.32966695499E+02  0.10808624645E+03  0.13629027600E+03  0.41800000000E+01 0. -1.
        -11    1    4    4    0    0 -0.16353087087E+02  0.11987341849E+02  0.13859627315E+02  0.24560315373E+02  0.00000000000E+00 0.  1.
         11    1    4    4    0    0  0.10580812644E+03  0.44476173928E+01  0.56530014484E+02  0.12004492267E+03  0.00000000000E+00 0. -1.
</event>
<event>
 8    1  0.6692409E-009  0.2314486E+03  0.7561462E-02  0.1125624E+00
         -1   -1    0    0    0  501 -0.00000000000E+00  0.00000000000E+00  0.10023814709E+03  0.10023814709E+03  0.00000000000E+00 0.  1.
          1   -1    0    0  501    0  0.00000000000E+00 -0.00000000000E+00 -0.65489380878E+03  0.65489380878E+03  0.00000000000E+00 0. -1.
         25    2    1    2    0    0  0.35446031452E+01  0.21140339799E+03 -0.14490587009E+03  0.28521808475E+03  0.12509070226E+03 0.  0.
         23    2    1    2    0    0 -0.35446031452E+01 -0.21140339799E+03 -0.40974979160E+03  0.46991387112E+03  0.90665283641E+02 0.  0.
          5    1    3    3  502    0 -0.51820836081E+02  0.11028281094E+03 -0.11124267262E+03  0.16504575745E+03  0.41800000000E+01 0.  1.
         -5    1    3    3    0  502  0.55365439226E+02  0.10112058705E+03 -0.33663197465E+02  0.12017232730E+03  0.41800000000E+01 0.  1.
        -11    1    4    4    0    0 -0.20383265652E+02 -0.20727639979E+03 -0.34601398118E+03  0.40386217773E+03  0.00000000000E+00 0.  1.
         11    1    4    4    0    0  0.16838662507E+02 -0.41269981976E+01 -0.63735810419E+02  0.66051693384E+02  0.00000000000E+00 0. -1.
</event>
<event>
 8    1  0.6692409E-009  0.1418347E+03  0.7561462E-02  0.1210881E+00
         -2   -1    0    0    0  501 -0.00000000000E+00  0.00000000000E+00  0.17512410821E+02  0.17512410821E+02  0.00000000000E+00 0.  1.
          2   -1    0    0  501    0  0.00000000000E+00 -0.00000000000E+00 -0.17672026494E+04  0.17672026494E+04  0.00000000000E+00 0. -1.
         25    2    1    2    0    0  0.54004876019E+02 -0.91413697820E+02 -0.13774697337E+04  0.13872068830E+04  0.12508828189E+03 0.  0.
         23    2    1    2    0    0 -0.54004876019E+02  0.91413697820E+02 -0.37222050491E+03  0.39750817723E+03  0.90507767096E+02 0.  0.
          5    1    3    3  502    0  0.83342466668E+02 -0.10271437316E+03 -0.11193301231E+04  0.11271262601E+04  0.41800000000E+01 0.  1.
         -5    1    3    3    0  502 -0.29337590649E+02  0.11300675341E+02 -0.25813961058E+03  0.26008062296E+03  0.41800000000E+01 0.  1.
        -11    1    4    4    0    0 -0.43637483244E+02  0.20974221134E+02 -0.59124598645E+02  0.76419016357E+02  0.00000000000E+00 0.  1.
         11    1    4    4    0    0 -0.10367392775E+02  0.70439476686E+02 -0.31309590627E+03  0.32108916087E+03  0.00000000000E+00 0. -1.
</event>
<event>
 8    1  0.6692409E-009  0.8597403E+02  0.7561462E-02  0.1312905E+00
          1   -1    0    0  501    0  0.00000000000E+00  0.00000000000E+00  0.42132135106E+03  0.42132135106E+03  0.00000000000E+00 0. -1.
         -1   -1    0    0    0  501 -0.00000000000E+00 -0.00000000000E+00 -0.29303800294E+02  0.29303800294E+02  0.00000000000E+00 0.  1.
         25    2    1    2    0    0 -0.27549238583E+01  0.89764995305E+01  0.17656897750E+03  0.21659382232E+03  0.12509241744E+03 0.  0.
         23    2    1    2    0    0  0.27549238583E+01 -0.89764995305E+01  0.21544857327E+03  0.23403132904E+03  0.90908789995E+02 0.  0.
          5    1    3    3  502    0  0.47227662056E+02  0.23753435510E+02  0.14755529066E+03  0.15679513374E+03  0.41800000000E+01 0.  1.
         -5    1    3    3    0  502 -0.49982585915E+02 -0.14776935980E+02  0.29013686834E+02  0.59798688576E+02  0.41800000000E+01 0.  1.
        -11    1    4    4    0    0  0.34223967920E+02 -0.13538644102E+01  0.29257102035E+02  0.45045432050E+02  0.00000000000E+00 0.  1.
         11    1    4    4    0    0 -0.31469044062E+02 -0.76226351203E+01  0.18619147123E+03  0.18898589699E+03  0.00000000000E+00 0. -1.
</event>
<event>
 7    1  0.6692409E-009  0.1011207E+03  0.7561462E-02  0.1277957E+00
         -2   -1    0    0    0  501 -0.00000000000E+00  0.00000000000E+00  0.11639589888E+02  0.11639589888E+02  0.00000000000E+00 0.  1.
          2   -1    0    0  501    0  0.00000000000E+00 -0.00000000000E+00 -0.12951601412E+04  0.12951601412E+04  0.00000000000E+00 0. -1.
         25    2    1    2    0    0  0.27136351456E+02 -0.77428932638E+02 -0.80784242340E+03  0.82157519429E+03  0.12507916553E+03 0.  0.
          5    1    3    3  502    0  0.26530116021E+02 -0.93432293995E+02 -0.79419516022E+03  0.80012303150E+03  0.41800000000E+01 0. -1.
         -5    1    3    3    0  502  0.60623543511E+00  0.16003361357E+02 -0.13647263179E+02  0.21452162791E+02  0.41800000000E+01 0. -1.
        -11    1    1    2    0    0 -0.11199622088E+02  0.19958078685E+01 -0.19488745592E+02  0.22566036176E+02  0.00000000000E+00 0.  1.
         11    1    1    2    0    0 -0.15936729369E+02  0.75433124769E+02 -0.45618938235E+03  0.46265850065E+03  0.00000000000E+00 0. -1.
</event>
<event>
 8    1  0.6692409E-009  0.1163791E+03  0.7561462E-02  0.1249193E+00
          2   -1    0    0  501    0  0.00000000000E+00  0.00000000000E+00  0.30084675586E+02  0.30084675586E+02  0.00000000000E+00 0. -1.
         -2   -1    0    0    0  501 -0.00000000000E+00 -0.00000000000E+00 -0.47732036228E+03  0.47732036228E+03  0.00000000000E+00 0.  1.
         25    2    1    2    0    0  0.31569472059E+02  0.28675216294E+02 -0.20839506429E+03  0.24677080500E+03  0.12509367602E+03 0.  0.
         23    2    1    2    0    0 -0.31569472059E+02 -0.28675216294E+02 -0.23884062240E+03  0.26063423287E+03  0.95217964902E+02 0.  0.
          5    1    3    3  502    0  0.59407308494E+02  0.63135143526E+02 -0.15076232175E+03  0.17395983648E+03  0.41800000000E+01 0. -1.
         -5    1    3    3    0  502 -0.27837836436E+02 -0.34459927232E+02 -0.57632742546E+02  0.72810968512E+02  0.41800000000E+01 0. -1.
        -11    1    4    4    0    0 -0.11854524176E+02 -0.61797995742E+02 -0.17603436431E+03  0.18694282399E+03  0.00000000000E+00 0.  1.
         11    1    4    4    0    0 -0.19714947883E+02  0.33122779447E+02 -0.62806258082E+02  0.73691408879E+02  0.00000000000E+00 0. -1.
</event>
<event>
 8    1  0.6692409E-009  0.8236571E+02  0.7561462E-02  0.1322469E+00
          1   -1    0    0  501    0  0.00000000000E+00  0.00000000000E+00  0.62771530757E+03  0.62771530757E+03  0.00000000000E+00 0. -1.
         -1   -1    0    0    0  501 -0.00000000000E+00 -0.00000000000E+00 -0.23678598127E+02  0.23678598127E+02  0.00000000000E+00 0.  1.
         25    2    1    2    0    0  0.26272775749E+02  0.23394322431E+02  0.45821216835E+03  0.47628220103E+03  0.12509512673E+03 0.  0.
         23    2    1    2    0    0 -0.26272775749E+02 -0.23394322431E+02  0.14582454109E+03  0.17511170466E+03  0.90342455451E+02 0.  0.
          5    1    3    3  502    0  0.50959302968E+02  0.50409499652E+02  0.40650325680E+03  0.41279575870E+03  0.41800000000E+01 0.  1.
         -5    1    3    3    0  502 -0.24686527220E+02 -0.27015177221E+02  0.51708911548E+02  0.63486442332E+02  0.41800000000E+01 0.  1.
        -11    1    4    4    0    0 -0.14822212948E+02  0.11889193308E+02 -0.51174170061E+01  0.19678385884E+02  0.00000000000E+00 0.  1.
         11    1    4    4    0    0 -0.11450562801E+02 -0.35283515739E+02  0.15094195810E+03  0.15543331878E+03  0.00000000000E+00 0. -1.
</event>
<event>
 8    1  0.6692409E-009  0.9842331E+02  0.7561462E-02  0.1283647E+00
         -2   -1    0    0    0  501 -0.00000000000E+00  0.00000000000E+00  0.44606917100E+02  0.44606917100E+02  0.00000000000E+00 0.  1.
          2   -1    0    0  501    0  0.00000000000E+00 -0.00000000000E+00 -0.38694722307E+03  0.38694722307E+03  0.00000000000E+00 0. -1.
         25    2    1    2    0    0 -0.62028852377E+02  0.39258502130E+02 -0.14526073316E+03  0.20527208425E+03  0.12508852649E+03 0.  0.
         23    2    1    2    0    0  0.62028852377E+02 -0.39258502130E+02 -0.19707957281E+03  0.22628205591E+03  0.83512886995E+02 0.  0.
          5    1    3    3  502    0  0.43092452638E+01  0.24689530745E+02  0.16147800574E+02  0.30105919460E+02  0.41800000000E+01 0. -1.
         -5    1    3    3    0  502 -0.66338097641E+02  0.14568971385E+02 -0.16140853373E+03  0.17516616479E+03  0.41800000000E+01 0. -1.
        -11    1    4    4    0    0 -0.43135389458E+01 -0.36747919493E+02 -0.34172709726E+02  0.50366559296E+02  0.00000000000E+00 0. -1.
         11    1    4    4    0    0  0.66342391323E+02 -0.25105826369E+01 -0.16290686308E+03  0.17591549662E+03  0.00000000000E+00 0.  1.
</event>
<event>
 8    1  0.6692409E-009  0.2531383E+03  0.7561462E-02  0.1111337E+00
         -1   -1    0    0    0  501 -0.00000000000E+00  0.00000000000E+00  0.12666280027E+03  0.12666280027E+03  0.00000000000E+00 0.  1.
          1   -1    0    0  501    0  0.00000000000E+00 -0.00000000000E+00 -0.60158969446E+03  0.60158969446E+03  0.00000000000E+00 0. -1.
         25    2    1    2    0    0 -0.24764425524E+02  0.23976532480E+03 -0.13867562188E+03  0.30492303057E+03  0.12508572550E+03 0.  0.
         23    2    1    2    0    0  0.24764425524E+02 -0.23976532480E+03 -0.33625127231E+03  0.42332946416E+03  0.89678477604E+02 0.  0.
          5    1    3    3  502    0  0.55341198883E+01  0.22177825800E+03 -0.79067218742E+02  0.23555322049E+03  0.41800000000E+01 0. -1.
         -5    1    3    3    0  502 -0.30298545412E+02  0.17987066797E+02 -0.59608403138E+02  0.69369810081E+02  0.41800000000E+01 0. -1.
        -11    1    4    4    0    0  0.33907990266E+02 -0.60067529864E+02 -0.14597659844E+03  0.16145286383E+03  0.00000000000E+00 0. -1.
         11    1    4    4    0    0 -0.91435647422E+01 -0.17969779493E+03 -0.19027467387E+03  0.26187660032E+03  0.00000000000E+00 0.  1.
</event>
<event>
 8    1  0.6692409E-009  0.1698093E+03  0.7561462E-02  0.1178047E+00
         -2   -1    0    0    0  501 -0.00000000000E+00  0.00000000000E+00  0.26470894829E+02  0.26470894829E+02  0.00000000000E+00 0.  1.
          2   -1    0    0  501    0  0.00000000000E+00 -0.00000000000E+00 -0.11412944823E+04  0.11412944823E+04  0.00000000000E+00 0. -1.
         25    2    1    2    0    0  0.11193258549E+03 -0.74172975441E+02 -0.58963447897E+03  0.61753388468E+03  0.12509494777E+03 0.  0.
         23    2    1    2    0    0 -0.11193258549E+03  0.74172975441E+02 -0.52518910850E+03  0.55023149244E+03  0.94342787817E+02 0.  0.
          5    1    3    3  502    0 -0.25021450177E+02  0.13335138340E+01 -0.57117369768E+02  0.62511739356E+02  0.41800000000E+01 0.  1.
         -5    1    3    3    0  502  0.13695403567E+03 -0.75506489275E+02 -0.53251710920E+03  0.55502214532E+03  0.41800000000E+01 0.  1.
        -11    1    4    4    0    0 -0.12497271601E+03  0.72867941417E+02 -0.51023854707E+03  0.53035015938E+03  0.00000000000E+00 0. -1.
         11    1    4    4    0    0  0.13040130515E+02  0.13050340234E+01 -0.14950561425E+02  0.19881333068E+02  0.00000000000E+00 0.  1.
</event>
<event>
 8    1  0.6692409E-009  0.1172263E+03  0.7561462E-02  0.1247744E+00
          2   -1    0    0  501    0  0.00000000000E+00  0.00000000000E+00  0.11133386645E+03  0.11133386645E+03  0.00000000000E+00 0. -1.
         -2   -1    0    0    0  501 -0.00000000000E+00 -0.00000000000E+00 -0.19900675542E+03  0.19900675542E+03  0.00000000000E+00 0.  1.
         25    2    1    2    0    0 -0.27188116256E+02  0.73880399708E+02 -0.11349596534E+03  0.18635106468E+03  0.12509147866E+03 0.  0.
         23    2    1    2    0    0  0.27188116256E+02 -0.73880399708E+02  0.25823076372E+02  0.12398955719E+03  0.92244630697E+02 0.  0.
          5    1    3    3  502    0 -0.61548602167E+02  0.54856799808E+02 -0.12067173195E+03  0.14620751761E+03  0.41800000000E+01 0.  1.
         -5    1    3    3    0  502  0.34360485911E+02  0.19023599900E+02  0.71757666062E+01  0.40143547073E+02  0.41800000000E+01 0.  1.
        -11    1    4    4    0    0  0.54986953035E+02 -0.37241328369E+02 -0.80120906260E+01  0.66893012632E+02  0.00000000000E+00 0.  1.
         11    1    4    4    0    0 -0.27798836779E+02 -0.36639071339E+02  0.33835166998E+02  0.57096544559E+02  0.00000000000E+00 0. -1.
</event>
<event>
 8    1  0.6692409E-009  0.1455987E+03  0.7561462E-02  0.1205988E+00
         -2   -1    0    0    0  501 -0.00000000000E+00  0.00000000000E+00  0.95667903280E+02  0.95667903280E+02  0.00000000000E+00 0.  1.
          2   -1    0    0  501    0  0.00000000000E+00 -0.00000000000E+00 -0.23851139980E+03  0.23851139980E+03  0.00000000000E+00 0. -1.
         25    2    1    2    0    0  0.29847173951E+02  0.93159163569E+02 -0.33191155686E+02  0.16221439267E+03  0.12506947199E+03 0.  0.
         23    2    1    2    0    0 -0.29847173951E+02 -0.93159163569E+02 -0.10965234083E+03  0.17196491041E+03  0.89324190519E+02 0.  0.
          5    1    3    3  502    0  0.57620620940E+02 -0.37048031863E+01 -0.10397392976E+02  0.58817001835E+02  0.41800000000E+01 0. -1.
         -5    1    3    3    0  502 -0.27773446989E+02  0.96863966755E+02 -0.22793762710E+02  0.10339739084E+03  0.41800000000E+01 0. -1.
        -11    1    4    4    0    0  0.14797220511E+02 -0.85969177892E+02 -0.70907443586E+02  0.11241673736E+03  0.00000000000E+00 0.  1.
         11    1    4    4    0    0 -0.44644394463E+02 -0.71899856764E+01 -0.38744897248E+02  0.59548173051E+02  0.00000000000E+00 0. -1.
</event>
<event>
 8    1  0.6692409E-009  0.1169436E+03  0.7561462E-02  0.1248226E+00
         -2   -1    0    0    0  501 -0.00000000000E+00  0.00000000000E+00  0.35377108836E+03  0.35377108836E+03  0.00000000000E+00 0.  1.
          2   -1    0    0  501    0  0.00000000000E+00 -0.00000000000E+00 -0.73360593414E+02  0.73360593414E+02  0.00000000000E+00 0. -1.
         25    2    1    2    0    0 -0.56650934433E+02 -0.59702548841E+02  0.36531303227E+02  0.15413044513E+03  0.12509170752E+03 0.  0.
         23    2    1    2    0    0  0.56650934433E+02  0.59702548841E+02  0.24387919172E+03  0.27300123665E+03  0.90988418740E+02 0.  0.
          5    1    3    3  502    0  0.83695506162E+00 -0.85781147763E+02  0.27752757115E+02  0.90259590808E+02  0.41800000000E+01 0.  1.
         -5    1    3    3    0  502 -0.57487889495E+02  0.26078598923E+02  0.87785461124E+01  0.63870854325E+02  0.41800000000E+01 0.  1.
        -11    1    4    4    0    0  0.43914531593E+02  0.32288480779E+02  0.23536882388E+03  0.24159783801E+03  0.00000000000E+00 0.  1.
         11    1    4    4    0    0  0.12736402840E+02  0.27414068062E+02  0.85103678400E+01  0.31403398634E+02  0.00000000000E+00 0. -1.
</event>
<event>
 8    1  0.6692409E-009  0.1022189E+03  0.7561462E-02  0.1275698E+00
         -1   -1    0    0    0  501 -0.00000000000E+00  0.00000000000E+00  0.97530186284E+02  0.97530186284E+02  0.00000000000E+00 0.  1.
          1   -1    0    0  501    0  0.00000000000E+00 -0.00000000000E+00 -0.18516458057E+03  0.18516458057E+03  0.00000000000E+00 0. -1.
         25    2    1    2    0    0  0.22119733520E+02  0.74230886712E+02 -0.32755621527E+02  0.15072709205E+03  0.12508484474E+03 0.  0.
         23    2    1    2    0    0 -0.22119733520E+02 -0.74230886712E+02 -0.54878772759E+02  0.13196767480E+03  0.91674862098E+02 0.  0.
          5    1    3    3  502    0 -0.11790520143E+02  0.12599442015E+02  0.43447537878E+02  0.46935309224E+02  0.41800000000E+01 0.  1.
         -5    1    3    3    0  502  0.33910253663E+02  0.61631444696E+02 -0.76203159405E+02  0.10379178283E+03  0.41800000000E+01 0.  1.
        -11    1    4    4    0    0  0.26656752056E+02 -0.59601841071E+02 -0.46977379968E+02  0.80435291495E+02  0.00000000000E+00 0.  1.
         11    1    4    4    0    0 -0.48776485576E+02 -0.14629045640E+02 -0.79013927911E+01  0.51532383309E+02  0.00000000000E+00 0. -1.
</event>
<event>
 8    1  0.6692409E-009  0.2383177E+03  0.7561462E-02  0.1120919E+00
         -2   -1    0    0    0  501 -0.00000000000E+00  0.00000000000E+00  0.28549231530E+02  0.28549231530E+02  0.00000000000E+00 0.  1.
          2   -1    0    0  501    0  0.00000000000E+00 -0.00000000000E+00 -0.25877951131E+04  0.25877951131E+04  0.00000000000E+00 0. -1.
         25    2    1    2    0    0 -0.25855700844E+01 -0.22897301148E+03 -0.17805828548E+04  0.17995994767E+04  0.12509056178E+03 0.  0.
         23    2    1    2    0    0  0.25855700844E+01  0.22897301148E+03 -0.77866302683E+03  0.81674486796E+03  0.91218116836E+02 0.  0.
          5    1    3    3  502    0  0.42470376617E+02 -0.67721851561E+02 -0.33909018467E+03  0.34841011439E+03  0.41800000000E+01 0.  1.
         -5    1    3    3    0  502 -0.45055946701E+02 -0.16125115992E+03 -0.14414926701E+04  0.14511893623E+04  0.41800000000E+01 0.  1.
        -11    1    4    4    0    0 -0.24840574742E+01  0.11009401302E+03 -0.22579270594E+03  0.25121546190E+03  0.00000000000E+00 0.  1.
         11    1    4    4    0    0  0.50696275587E+01  0.11887899846E+03 -0.55287032089E+03  0.56552940606E+03  0.00000000000E+00 0. -1.
</event>
<event>
 8    1  0.6692409E-009  0.9565655E+02  0.7561462E-02  0.1289704E+00
          1   -1    0    0  501    0  0.00000000000E+00  0.00000000000E+00  0.16555544941E+03  0.16555544941E+03  0.00000000000E+00 0. -1.
         -1   -1    0    0    0  501 -0.00000000000E+00 -0.00000000000E+00 -0.85716175113E+02  0.85716175113E+02  0.00000000000E+00 0.  1.
         25    2    1    2    0    0 -0.39238782901E+02  0.24818811420E+02  0.30738974715E+02  0.13695776311E+03  0.12512749028E+03 0.  0.
         23    2    1    2    0    0  0.39238782901E+02 -0.24818811420E+02  0.49100299584E+02  0.11431386142E+03  0.92201757083E+02 0.  0.
          5    1    3    3  502    0  0.13077177211E+02  0.39948521986E+02 -0.32572336881E+02  0.53341601987E+02  0.41800000000E+01 0.  1.
         -5    1    3    3    0  502 -0.52315960113E+02 -0.15129710566E+02  0.63311311597E+02  0.83616161120E+02  0.41800000000E+01 0.  1.
        -11    1    4    4    0    0  0.24365632350E+02  0.29426064882E+02 -0.20881173990E+01  0.38261437094E+02  0.00000000000E+00 0.  1.
         11    1    4    4    0    0  0.14873150552E+02 -0.54244876302E+02  0.51188416983E+02  0.76052424324E+02  0.00000000000E+00 0. -1.
</event>
<event>
 8    1  0.6692409E-009  0.1024582E+03  0.7561462E-02  0.1275210E+00
         -1   -1    0    0    0  501 -0.00000000000E+00  0.00000000000E+00  0.62550743451E+03  0.62550743451E+03  0.00000000000E+00 0.  1.
          1   -1    0    0  501    0  0.00000000000E+00 -0.00000000000E+00 -0.20115395621E+02  0.20115395621E+02  0.00000000000E+00 0. -1.
         25    2    1    2    0    0 -0.24573203693E+02  0.92378114418E+01  0.38332036646E+03  0.40406728887E+03  0.12508673429E+03 0.  0.
         23    2    1    2    0    0  0.24573203693E+02 -0.92378114418E+01  0.22207167243E+03  0.24155554126E+03  0.91345893810E+02 0.  0.
          5    1    3    3  502    0  0.25079437694E+00  0.58374075903E+02  0.28823047527E+03  0.29411201082E+03  0.41800000000E+01 0.  1.
         -5    1    3    3    0  502 -0.24823998070E+02 -0.49136264461E+02  0.95089891190E+02  0.10995527805E+03  0.41800000000E+01 0.  1.
        -11    1    4    4    0    0  0.34085154894E+02  0.33265840990E+02  0.14964245242E+03  0.15703909554E+03  0.00000000000E+00 0.  1.
         11    1    4    4    0    0 -0.95119512010E+01 -0.42503652432E+02  0.72429220010E+02  0.84516445719E+02  0.00000000000E+00 0. -1.
</event>
<event>
 8    1  0.6692409E-009  0.8318958E+02  0.7561462E-02  0.1320236E+00
         -1   -1    0    0    0  501 -0.00000000000E+00  0.00000000000E+00  0.20316560756E+02  0.20316560756E+02  0.00000000000E+00 0.  1.
          1   -1    0    0  501    0  0.00000000000E+00 -0.00000000000E+00 -0.59013686299E+03  0.59013686299E+03  0.00000000000E+00 0. -1.
         25    2    1    2    0    0  0.77384131430E+01  0.98932201086E+01 -0.26532320942E+03  0.29360268863E+03  0.12509346293E+03 0.  0.
         23    2    1    2    0    0 -0.77384131430E+01 -0.98932201086E+01 -0.30449709281E+03  0.31685073512E+03  0.86707265973E+02 0.  0.
          5    1    3    3  502    0 -0.32518348549E+02  0.24093460119E+02 -0.21466180630E+02  0.46002251290E+02  0.41800000000E+01 0.  1.
         -5    1    3    3    0  502  0.40256761692E+02 -0.14200240011E+02 -0.24385702879E+03  0.24760043734E+03  0.41800000000E+01 0.  1.
        -11    1    4    4    0    0  0.98852790992E+01  0.34049437861E+02 -0.18402365132E+03  0.18740807668E+03  0.00000000000E+00 0. -1.
         11    1    4    4    0    0 -0.17623692242E+02 -0.43942657970E+02 -0.12047344149E+03  0.12944265844E+03  0.00000000000E+00 0.  1.
</event>
<event>
 8    1  0.6692409E-009  0.6316144E+02  0.7561462E-02  0.1385024E+00
         -1   -1    0    0    0  501 -0.00000000000E+00  0.00000000000E+00  0.16771306555E+03  0.16771306555E+03  0.00000000000E+00 0.  1.
          1   -1    0    0  501    0  0.00000000000E+00 -0.00000000000E+00 -0.75724177727E+02  0.75724177727E+02  0.00000000000E+00 0. -1.
         25    2    1    2    0    0  0.20886798725E+02  0.22110066846E+02  0.67506645259E+02  0.14536121631E+03  0.12509045781E+03 0.  0.
         23    2    1    2    0    0 -0.20886798725E+02 -0.22110066846E+02  0.24482242567E+02  0.98076026973E+02  0.89968958250E+02 0.  0.
          5    1    3    3  502    0  0.44506142014E+02  0.11755508542E+02 -0.22665927577E+02  0.51480145017E+02  0.41800000000E+01 0. -1.
         -5    1    3    3    0  502 -0.23619343288E+02  0.10354558304E+02  0.90172572836E+02  0.93881071291E+02  0.41800000000E+01 0. -1.
        -11    1    4    4    0    0  0.14095768625E+02 -0.83521714492E+01 -0.28642054689E+02  0.32997223487E+02  0.00000000000E+00 0. -1.
         11    1    4    4    0    0 -0.34982567350E+02 -0.13757895397E+02  0.53124297256E+02  0.65078803486E+02  0.00000000000E+00 0.  1.
</event>
<event>
 8    1  0.6692409E-009  0.8229033E+02  0.7561462E-02  0.1322675E+00
          2   -1    0    0  501    0  0.00000000000E+00  0.00000000000E+00  0.24860647925E+03  0.24860647925E+03  0.00000000000E+00 0.  1.
         -2   -1    0    0    0  501 -0.00000000000E+00 -0.00000000000E+00 -0.65501064322E+02  0.65501064322E+02  0.00000000000E+00 0. -1.
         25    2    1    2    0    0 -0.50575375128E+02 -0.23289741095E+02  0.13496913198E+03  0.19226107920E+03  0.12508946949E+03 0.  0.
         23    2    1    2    0    0  0.50575375128E+02  0.23289741095E+02  0.48136282957E+02  0.12184646438E+03  0.97103957362E+02 0.  0.
          5    1    3    3  502    0 -0.59619349197E+02  0.21071396181E+02  0.13232635971E+03  0.14671812571E+03  0.41800000000E+01 0. -1.
         -5    1    3    3    0  502  0.90439740691E+01 -0.44361137277E+02  0.26427722617E+01  0.45542953491E+02  0.41800000000E+01 0. -1.
        -11    1    4    4    0    0  0.20547010787E+02  0.80376099276E+01 -0.29721913662E+02  0.37015874667E+02  0.00000000000E+00 0. -1.
         11    1    4    4    0    0  0.30028364341E+02  0.15252131168E+02  0.77858196619E+02  0.84830589712E+02  0.00000000000E+00 0.  1.
</event>
<event>
 8    1  0.6692409E-009  0.7567168E+02  0.7561462E-02  0.1341804E+00
          1   -1    0    0  501    0  0.00000000000E+00  0.00000000000E+00  0.11791061864E+03  0.11791061864E+03  0.00000000000E+00 0. -1.
         -1   -1    0    0    0  501 -0.00000000000E+00 -0.00000000000E+00 -0.10197912582E+03  0.10197912582E+03  0.00000000000E+00 0.  1.
         25    2    1    2    0    0  0.82959308253E+01  0.17953129031E-01  0.24047759600E+02  0.12764448892E+03  0.12508396388E+03 0.  0.
         23    2    1    2    0    0 -0.82959308253E+01 -0.17953129031E-01 -0.81162667809E+01  0.92245255546E+02  0.91512242862E+02 0.  0.
          5    1    3    3  502    0  0.46120002330E+02 -0.74368687087E+01 -0.33933892256E+02  0.57890785750E+02  0.41800000000E+01 0. -1.
         -5    1    3    3    0  502 -0.37824071505E+02  0.74548218377E+01  0.57981651856E+02  0.69753703169E+02  0.41800000000E+01 0. -1.
        -11    1    4    4    0    0  0.26507148612E+02  0.11652946392E+02  0.28335557892E+02  0.40513256203E+02  0.00000000000E+00 0. -1.
         11    1    4    4    0    0 -0.34803079437E+02 -0.11670899521E+02 -0.36451824673E+02  0.51731999342E+02  0.00000000000E+00 0.  1.
</event>
<event>
 8    1  0.6692409E-009  0.1983853E+03  0.7561462E-02  0.1151109E+00
         -1   -1    0    0    0  501 -0.00000000000E+00  0.00000000000E+00  0.70637986274E+03  0.70637986274E+03  0.00000000000E+00 0.  1.
          1   -1    0    0  501    0  0.00000000000E+00 -0.00000000000E+00 -0.84360511052E+02  0.84360511052E+02  0.00000000000E+00 0. -1.
         25    2    1    2    0    0 -0.12116127017E+03  0.13348901957E+03  0.12111746839E+03  0.25063257379E+03  0.12509146319E+03 0.  0.
         23    2    1    2    0    0  0.12116127017E+03 -0.13348901957E+03  0.50090188330E+03  0.54010780000E+03  0.91183151947E+02 0.  0.
          5    1    3    3  502    0 -0.13196418786E+03  0.67122039403E+02  0.10442983327E+03  0.18122631577E+03  0.41800000000E+01 0.  1.
         -5    1    3    3    0  502  0.10802917692E+02  0.66366980163E+02  0.16687635123E+02  0.69406258022E+02  0.41800000000E+01 0.  1.
        -11    1    4    4    0    0  0.75673229686E+02 -0.69269425913E+02  0.15868975627E+03  0.18896330279E+03  0.00000000000E+00 0. -1.
         11    1    4    4    0    0  0.45488040482E+02 -0.64219593653E+02  0.34221212703E+03  0.35114449721E+03  0.00000000000E+00 0.  1.
</event>
<event>
 8    1  0.6692409E-009  0.1275180E+03  0.7561462E-02  0.1231186E+00
         -1   -1    0    0    0  501 -0.00000000000E+00  0.00000000000E+00  0.53548685747E+02  0.53548685747E+02  0.00000000000E+00 0.  1.
          1   -1    0    0  501    0  0.00000000000E+00 -0.00000000000E+00 -0.36583240182E+03  0.36583240182E+03  0.00000000000E+00 0. -1.
         25    2    1    2    0    0 -0.38457066388E+01 -0.88782057763E+02 -0.18398380205E+03  0.23956886841E+03  0.12508461159E+03 0.  0.
         23    2    1    2    0    0  0.38457066388E+01  0.88782057763E+02 -0.12829991402E+03  0.17981221915E+03  0.89300184650E+02 0.  0.
          5    1    3    3  502    0  0.38364388905E+02 -0.83981456154E+02 -0.64544472233E+02  0.11273053096E+03  0.41800000000E+01 0.  1.
         -5    1    3    3    0  502 -0.42210095544E+02 -0.48006016083E+01 -0.11943932982E+03  0.12683833746E+03  0.41800000000E+01 0.  1.
        -11    1    4    4    0    0 -0.34190867678E+02  0.15884904669E+02 -0.16802825530E+02  0.41275665648E+02  0.00000000000E+00 0.  1.
         11    1    4    4    0    0  0.38036574317E+02  0.72897153094E+02 -0.11149708849E+03  0.13853655350E+03  0.00000000000E+00 0. -1.
</event>
<event>
 8    1  0.6692409E-009  0.9173811E+02  0.7561462E-02  0.1298696E+00
          2   -1    0    0  501    0  0.00000000000E+00  0.00000000000E+00  0.62781322075E+03  0.62781322075E+03  0.00000000000E+00 0. -1.
         -2   -1    0    0    0  501 -0.00000000000E+00 -0.00000000000E+00 -0.32173222398E+02  0.32173222398E+02  0.00000000000E+00 0.  1.
         25    2    1    2    0    0  0.36815893212E+02  0.74765741390E+02  0.44629002313E+03  0.47092192045E+03  0.12508934539E+03 0.  0.
         23    2    1    2    0    0 -0.36815893212E+02 -0.74765741390E+02  0.14934997521E+03  0.18906452270E+03  0.80589407297E+02 0.  0.
          5    1    3    3  502    0 -0.10590662221E+01  0.22796581373E+02  0.34954777503E+01  0.23462662003E+02  0.41800000000E+01 0.  1.
         -5    1    3    3    0  502  0.37874959434E+02  0.51969160017E+02  0.44279454538E+03  0.44745925844E+03  0.41800000000E+01 0.  1.
        -11    1    4    4    0    0  0.11057529909E+02 -0.78704722621E+01  0.80954090722E+02  0.82083969848E+02  0.00000000000E+00 0. -1.
         11    1    4    4    0    0 -0.47873423121E+02 -0.66895269128E+02  0.68395884493E+02  0.10698055285E+03  0.00000000000E+00 0.  1.
</event>
<event>
 8    1  0.6692409E-009  0.1513405E+03  0.7561462E-02  0.1198835E+00
         -2   -1    0    0    0  501 -0.00000000000E+00  0.00000000000E+00  0.21563530920E+03  0.21563530920E+03  0.00000000000E+00 0.  1.
          2   -1    0    0  501    0  0.00000000000E+00 -0.00000000000E+00 -0.17859153746E+03  0.17859153746E+03  0.00000000000E+00 0. -1.
         25    2    1    2    0    0  0.97488070631E+02 -0.94541737460E+02 -0.70718311450E+02  0.19771645027E+03  0.12509456862E+03 0.  0.
         23    2    1    2    0    0 -0.97488070631E+02  0.94541737460E+02  0.10776208319E+03  0.19651039638E+03  0.92528942902E+02 0.  0.
          5    1    3    3  502    0  0.24010524388E+01  0.16398496807E+02  0.19509733661E+02  0.25937961714E+02  0.41800000000E+01 0.  1.
         -5    1    3    3    0  502  0.95087018192E+02 -0.11094023427E+03 -0.90228045111E+02  0.17177848856E+03  0.41800000000E+01 0.  1.
        -11    1    4    4    0    0 -0.67486058497E+02  0.43757411761E+02  0.11141469932E+03  0.13741293389E+03  0.00000000000E+00 0.  1.
         11    1    4    4    0    0 -0.30002012134E+02  0.50784325699E+02 -0.36526161237E+01  0.59097462495E+02  0.00000000000E+00 0. -1.
</event>
<event>
 8    1  0.6692409E-009  0.2962363E+03  0.7561462E-02  0.1087137E+00
         -2   -1    0    0    0  501 -0.00000000000E+00  0.00000000000E+00  0.11186041346E+03  0.11186041346E+03  0.00000000000E+00 0.  1.
          2   -1    0    0  501    0  0.00000000000E+00 -0.00000000000E+00 -0.10541857332E+04  0.10541857332E+04  0.00000000000E+00 0. -1.
         25    2    1    2    0    0 -0.28080743169E+02  0.29322488763E+03 -0.24511266519E+03  0.40311075061E+03  0.12509474710E+03 0.  0.
         23    2    1    2    0    0  0.28080743169E+02 -0.29322488763E+03 -0.69721265451E+03  0.76293539602E+03  0.95893534833E+02 0.  0.
          5    1    3    3  502    0  0.29532977420E+01  0.65943235501E+01  0.13445092892E+02  0.15825611947E+02  0.41800000000E+01 0.  1.
         -5    1    3    3    0  502 -0.31034040911E+02  0.28663056408E+03 -0.25855775808E+03  0.38728513866E+03  0.41800000000E+01 0.  1.
        -11    1    4    4    0    0  0.26343193588E+02 -0.13454097488E+03 -0.21232112107E+03  0.25273602083E+03  0.00000000000E+00 0.  1.
         11    1    4    4    0    0  0.17375495815E+01 -0.15868391275E+03 -0.48489153344E+03  0.51019937519E+03  0.00000000000E+00 0. -1.
</event>
<event>
 8    1  0.6692409E-009  0.1603197E+03  0.7561462E-02  0.1188336E+00
         -2   -1    0    0    0  501 -0.00000000000E+00  0.00000000000E+00  0.49806769366E+02  0.49806769366E+02  0.00000000000E+00 0.  1.
          2   -1    0    0  501    0  0.00000000000E+00 -0.00000000000E+00 -0.56973682565E+03  0.56973682565E+03  0.00000000000E+00 0. -1.
         25    2    1    2    0    0  0.52476801752E+02 -0.11499890760E+03 -0.22674208013E+03  0.28816325869E+03  0.12509008467E+03 0.  0.
         23    2    1    2    0    0 -0.52476801752E+02  0.11499890760E+03 -0.29318797615E+03  0.33138033633E+03  0.88742179791E+02 0.  0.
          5    1    3    3  502    0  0.16242243957E+02  0.25993321689E+02 -0.53902550411E+02  0.62148375698E+02  0.41800000000E+01 0.  1.
         -5    1    3    3    0  502  0.36234557795E+02 -0.14099222929E+03 -0.17283952972E+03  0.22601488299E+03  0.41800000000E+01 0.  1.
        -11    1    4    4    0    0 -0.52031042493E+02  0.32026611443E+02 -0.68123080989E+02  0.91507854236E+02  0.00000000000E+00 0.  1.
         11    1    4    4    0    0 -0.44575925924E+00  0.82972296157E+02 -0.22506489516E+03  0.23987248209E+03  0.00000000000E+00 0. -1.
</event>
<event>
 8    1  0.6692409E-009  0.1080174E+03  0.7561462E-02  0.1264286E+00
          2   -1    0    0  501    0  0.00000000000E+00  0.00000000000E+00  0.11773852116E+02  0.11773852116E+02  0.00000000000E+00 0. -1.
         -2   -1    0    0    0  501 -0.00000000000E+00 -0.00000000000E+00 -0.13010212065E+04  0.13010212065E+04  0.00000000000E+00 0.  1.
         25    2    1    2    0    0 -0.48193786173E+02 -0.19609747273E+02 -0.87621308477E+03  0.88662584569E+03  0.12509531210E+03 0.  0.
         23    2    1    2    0    0  0.48193786173E+02  0.19609747273E+02 -0.41303426963E+03  0.42616921294E+03  0.91190498174E+02 0.  0.
          5    1    3    3  502    0 -0.71767807444E+02  0.10456341527E+02 -0.77439934892E+03  0.77779931684E+03  0.41800000000E+01 0.  1.
         -5    1    3    3    0  502  0.23574021270E+02 -0.30066088800E+02 -0.10181373585E+03  0.10882652885E+03  0.41800000000E+01 0.  1.
        -11    1    4    4    0    0  0.61865815938E+02  0.44738629603E+02 -0.29548201443E+03  0.30518608260E+03  0.00000000000E+00 0.  1.
         11    1    4    4    0    0 -0.13672029765E+02 -0.25128882331E+02 -0.11755225520E+03  0.12098313034E+03  0.00000000000E+00 0. -1.
</event>
<event>
 8    1  0.6692409E-009  0.1300858E+03  0.7561462E-02  0.1227328E+00
          4   -1    0    0  501    0  0.00000000000E+00  0.00000000000E+00  0.13540666898E+03  0.13540666898E+03  0.00000000000E+00 0. -1.
         -4   -1    0    0    0  501 -0.00000000000E+00 -0.00000000000E+00 -0.17273213174E+03  0.17273213174E+03  0.00000000000E+00 0.  1.
         25    2    1    2    0    0 -0.77765894902E+02 -0.64522816159E+02  0.17917831298E+02  0.16180706404E+03  0.12509895715E+03 0.  0.
         23    2    1    2    0    0  0.77765894902E+02  0.64522816159E+02 -0.55243294064E+02  0.14633173668E+03  0.90279717575E+02 0.  0.
          5    1    3    3  502    0  0.17016914695E+00 -0.72397729207E+02 -0.19210442311E+02  0.75019821685E+02  0.41800000000E+01 0.  1.
         -5    1    3    3    0  502 -0.77936064049E+02  0.78749130475E+01  0.37128273609E+02  0.86787242358E+02  0.41800000000E+01 0.  1.
        -11    1    4    4    0    0  0.63012132896E+02  0.26378709141E+02  0.10292238453E+02  0.69081801948E+02  0.00000000000E+00 0. -1.
         11    1    4    4    0    0  0.14753762005E+02  0.38144107019E+02 -0.65535532517E+02  0.77249934730E+02  0.00000000000E+00 0.  1.
</event>
<event>
 8    1  0.6692409E-009  0.8181775E+02  0.7561462E-02  0.1323971E+00
         -2   -1    0    0    0  501 -0.00000000000E+00  0.00000000000E+00  0.72826179486E+02  0.72826179486E+02  0.00000000000E+00 0.  1.
          2   -1    0    0  501    0  0.00000000000E+00 -0.00000000000E+00 -0.25437936514E+03  0.25437936514E+03  0.00000000000E+00 0. -1.
         25    2    1    2    0    0  0.23483054883E+02  0.72726941507E+02 -0.62426420185E+02  0.15932047106E+03  0.12508114436E+03 0.  0.
         23    2    1    2    0    0 -0.23483054883E+02 -0.72726941507E+02 -0.11912676547E+03  0.16788507357E+03  0.90297008745E+02 0.  0.
          5    1    3    3  502    0  0.50147320194E+01  0.34112949749E+01 -0.83979696957E+02  0.84302113684E+02  0.41800000000E+01 0. -1.
         -5    1    3    3    0  502  0.18468322864E+02  0.69315646532E+02  0.21553276772E+02  0.75018357375E+02  0.41800000000E+01 0. -1.
        -11    1    4    4    0    0 -0.16310498678E+02 -0.61181389270E+01  0.11643371864E+02  0.20953092836E+02  0.00000000000E+00 0.  1.
         11    1    4    4    0    0 -0.71725562054E+01 -0.66608802580E+02 -0.13077013733E+03  0.14693198073E+03  0.00000000000E+00 0. -1.
</event>
<event>
 8    1  0.6692409E-009  0.1152038E+03  0.7561462E-02  0.1251226E+00
          4   -1    0    0  501    0  0.00000000000E+00  0.00000000000E+00  0.14938515664E+03  0.14938515664E+03  0.00000000000E+00 0. -1.
         -4   -1    0    0    0  501 -0.00000000000E+00 -0.00000000000E+00 -0.12858197368E+03  0.12858197368E+03  0.00000000000E+00 0.  1.
         25    2    1    2    0    0 -0.73173109949E+02  0.11352186343E+02 -0.30520572225E+02  0.14853365639E+03  0.12509022982E+03 0.  0.
         23    2    1    2    0    0  0.73173109949E+02 -0.11352186343E+02  0.51323755181E+02  0.12943347393E+03  0.92928575653E+02 0.  0.
          5    1    3    3  502    0 -0.79805490694E+02 -0.36328269150E+02 -0.44241327757E+02  0.98302731224E+02  0.41800000000E+01 0. -1.
         -5    1    3    3    0  502  0.66323807455E+01  0.47680455493E+02  0.13720755532E+02  0.50230925163E+02  0.41800000000E+01 0. -1.
        -11    1    4    4    0    0  0.69218722257E+02  0.12316164689E+02 -0.26604476066E+01  0.70356217956E+02  0.00000000000E+00 0.  1.
         11    1    4    4    0    0  0.39543876918E+01 -0.23668351032E+02  0.53984202788E+02  0.59077255972E+02  0.00000000000E+00 0. -1.
</event>
<event>
 8    1  0.6692409E-009  0.1186140E+03  0.7561462E-02  0.1245401E+00
          2   -1    0    0  501    0  0.00000000000E+00  0.00000000000E+00  0.39369086262E+02  0.39369086262E+02  0.00000000000E+00 0. -1.
         -2   -1    0    0    0  501 -0.00000000000E+00 -0.00000000000E+00 -0.12189634897E+04  0.12189634897E+04  0.00000000000E+00 0.  1.
         25    2    1    2    0    0 -0.98565275236E+02  0.25143052354E+02 -0.10776848402E+04  0.10896787078E+04  0.12509110586E+03 0.  0.
         23    2    1    2    0    0  0.98565275236E+02 -0.25143052354E+02 -0.10190956323E+03  0.16865386820E+03  0.87813903331E+02 0.  0.
          5    1    3    3  502    0  0.16650573983E+02  0.70958657026E+01 -0.28469650432E+02  0.33993915922E+02  0.41800000000E+01 0.  1.
         -5    1    3    3    0  502 -0.11521584922E+03  0.18047186652E+02 -0.10492151898E+04  0.10556847919E+04  0.41800000000E+01 0.  1.
        -11    1    4    4    0    0  0.28961734478E+02 -0.41605905869E+01  0.13526096238E+02  0.32234265270E+02  0.00000000000E+00 0. -1.
         11    1    4    4    0    0  0.69603540757E+02 -0.20982461767E+02 -0.11543565947E+03  0.13641960293E+03  0.00000000000E+00 0.  1.
</event>
<event>
 8    1  0.6692409E-009  0.6736790E+02  0.7561462E-02  0.1369279E+00
          2   -1    0    0  501    0  0.00000000000E+00  0.00000000000E+00  0.30958749762E+03  0.30958749762E+03  0.00000000000E+00 0. -1.
         -2   -1    0    0    0  501 -0.00000000000E+00 -0.00000000000E+00 -0.43016625055E+02  0.43016625055E+02  0.00000000000E+00 0.  1.
         25    2    1    2    0    0  0.21053469925E+01  0.39675059561E+02  0.15547145022E+03  0.20346166108E+03  0.12508690122E+03 0.  0.
         23    2    1    2    0    0 -0.21053469925E+01 -0.39675059561E+02  0.11109942234E+03  0.14914246160E+03  0.91224170968E+02 0.  0.
          5    1    3    3  502    0  0.18905470425E+02  0.50030746578E+02  0.75551380489E+01  0.54176054914E+02  0.41800000000E+01 0.  1.
         -5    1    3    3    0  502 -0.16800123433E+02 -0.10355687017E+02  0.14791631217E+03  0.14928560616E+03  0.41800000000E+01 0.  1.
        -11    1    4    4    0    0  0.15943054868E+02 -0.39792142283E+02  0.69333063990E+01  0.43424259621E+02  0.00000000000E+00 0.  1.
         11    1    4    4    0    0 -0.18048401861E+02  0.11708272217E+00  0.10416611594E+03  0.10571820197E+03  0.00000000000E+00 0. -1.
</event>
<event>
 8    1  0.6692409E-009  0.1326791E+03  0.7561462E-02  0.1223534E+00
         -1   -1    0    0    0  501 -0.00000000000E+00  0.00000000000E+00  0.62461688813E+03  0.62461688813E+03  0.00000000000E+00 0.  1.
          1   -1    0    0  501    0  0.00000000000E+00 -0.00000000000E+00 -0.34395254890E+02  0.34395254890E+02  0.00000000000E+00 0. -1.
         25    2    1    2    0    0  0.37940561636E+02 -0.90561467033E+02  0.31228686793E+03  0.35045232227E+03  0.12511145742E+03 0.  0.
         23    2    1    2    0    0 -0.37940561636E+02  0.90561467033E+02  0.27793476531E+03  0.30855982075E+03  0.91217123850E+02 0.  0.
          5    1    3    3  502    0  0.54089352512E+02  0.10119876825E+02  0.13576984742E+03  0.14655713504E+03  0.41800000000E+01 0.  1.
         -5    1    3    3    0  502 -0.16148790876E+02 -0.10068134386E+03  0.17651702051E+03  0.20389518723E+03  0.41800000000E+01 0.  1.
        -11    1    4    4    0    0  0.79283184956E+01  0.35879783981E+02  0.21929431439E+02  0.42791554026E+02  0.00000000000E+00 0. -1.
         11    1    4    4    0    0 -0.45868880132E+02  0.54681683052E+02  0.25600533387E+03  0.26576826672E+03  0.00000000000E+00 0.  1.
</event>
<event>
 8    1  0.6692409E-009  0.1041583E+03  0.7561462E-02  0.1271787E+00
          2   -1    0    0  501    0  0.00000000000E+00  0.00000000000E+00  0.18271699528E+04  0.18271699528E+04  0.00000000000E+00 0. -1.
         -2   -1    0    0    0  501 -0.00000000000E+00 -0.00000000000E+00 -0.11591438461E+02  0.11591438461E+02  0.00000000000E+00 0.  1.
         25    2    1    2    0    0 -0.38971199878E+02  0.69951490376E+01  0.15378136305E+04  0.15434004805E+04  0.12508634843E+03 0.  0.
         23    2    1    2    0    0  0.38971199878E+02 -0.69951490376E+01  0.27776488385E+03  0.29536091076E+03  0.92287866885E+02 0.  0.
          5    1    3    3  502    0 -0.21754778171E+02 -0.58850878856E+02  0.70310702219E+03  0.70591334692E+03  0.41800000000E+01 0.  1.
         -5    1    3    3    0  502 -0.17216421707E+02  0.65846027894E+02  0.83470660833E+03  0.83748713360E+03  0.41800000000E+01 0.  1.
        -11    1    4    4    0    0 -0.18248314431E+02  0.47007062445E+01  0.10063367253E+02  0.21362794275E+02  0.00000000000E+00 0.  1.
         11    1    4    4    0    0  0.57219514309E+02 -0.11695855282E+02  0.26770151659E+03  0.27399811648E+03  0.00000000000E+00 0. -1.
</event>
<event>
 8    1  0.6692409E-009  0.3166925E+03  0.7561462E-02  0.1077182E+00
         -2   -1    0    0    0  501 -0.00000000000E+00  0.00000000000E+00  0.14077587713E+03  0.14077587713E+03  0.00000000000E+00 0.  1.
          2   -1    0    0  501    0  0.00000000000E+00 -0.00000000000E+00 -0.74327332725E+03  0.74327332725E+03  0.00000000000E+00 0. -1.
         25    2    1    2    0    0  0.28898642914E+03 -0.98849177089E+02 -0.27561629213E+03  0.42999569885E+03  0.12509054523E+03 0.  0.
         23    2    1    2    0    0 -0.28898642914E+03  0.98849177089E+02 -0.32688115800E+03  0.45405350552E+03  0.77646496273E+02 0.  0.
          5    1    3    3  502    0  0.29283213032E+03 -0.76765225353E+02 -0.23439006278E+03  0.38288344219E+03  0.41800000000E+01 0.  1.
         -5    1    3    3    0  502 -0.38457011802E+01 -0.22083951737E+02 -0.41226229343E+02  0.47112256661E+02  0.41800000000E+01 0.  1.
        -11    1    4    4    0    0 -0.13480928377E+03  0.66386817078E+02 -0.11113493820E+03  0.18690031290E+03  0.00000000000E+00 0.  1.
         11    1    4    4    0    0 -0.15417714537E+03  0.32462360011E+02 -0.21574621980E+03  0.26715319262E+03  0.00000000000E+00 0. -1.
</event>
<event>
 8    1  0.6692409E-009  0.1271605E+03  0.7561462E-02  0.1231731E+00
          1   -1    0    0  501    0  0.00000000000E+00  0.00000000000E+00  0.23093522754E+03  0.23093522754E+03  0.00000000000E+00 0. -1.
         -1   -1    0    0    0  501 -0.00000000000E+00 -0.00000000000E+00 -0.10025532708E+03  0.10025532708E+03  0.00000000000E+00 0.  1.
         25    2    1    2    0    0  0.58138390529E+02  0.86705682984E+02  0.85790740365E+02  0.18413703921E+03  0.12509376547E+03 0.  0.
         23    2    1    2    0    0 -0.58138390529E+02 -0.86705682984E+02  0.44889160090E+02  0.14705351542E+03  0.93336765470E+02 0.  0.
          5    1    3    3  502    0  0.33579013771E+02  0.11021284563E+03  0.94184612797E+02  0.14887120338E+03  0.41800000000E+01 0. -1.
         -5    1    3    3    0  502  0.24559376758E+02 -0.23507162643E+02 -0.83938724318E+01  0.35265835829E+02  0.41800000000E+01 0. -1.
        -11    1    4    4    0    0 -0.29199074942E+02 -0.35551129824E+02  0.69490718759E+02  0.83339239274E+02  0.00000000000E+00 0. -1.
         11    1    4    4    0    0 -0.28939315587E+02 -0.51154553160E+02 -0.24601558669E+02  0.63714276144E+02  0.00000000000E+00 0.  1.
</event>
<event>
 8    1  0.6692409E-009  0.1164172E+03  0.7561462E-02  0.1249127E+00
         -2   -1    0    0    0  501 -0.00000000000E+00  0.00000000000E+00  0.54002373475E+02  0.54002373475E+02  0.00000000000E+00 0.  1.
          2   -1    0    0  501    0  0.00000000000E+00 -0.00000000000E+00 -0.67367326039E+03  0.67367326039E+03  0.00000000000E+00 0. -1.
         25    2    1    2    0    0  0.77691171869E+02  0.47590957239E+02 -0.58366963025E+03  0.60383822780E+03  0.12509816414E+03 0.  0.
         23    2    1    2    0    0 -0.77691171869E+02 -0.47590957239E+02 -0.36001256665E+02  0.12383740607E+03  0.75754836569E+02 0.  0.
          5    1    3    3  502    0 -0.70936771872E+01  0.54839837320E+02 -0.36445766098E+03  0.36865239326E+03  0.41800000000E+01 0. -1.
         -5    1    3    3    0  502  0.84784849056E+02 -0.72488800816E+01 -0.21921196928E+03  0.23518583454E+03  0.41800000000E+01 0. -1.
        -11    1    4    4    0    0 -0.45654820844E+02 -0.19765010633E+02 -0.57693154627E+02  0.76180827001E+02  0.00000000000E+00 0. -1.
         11    1    4    4    0    0 -0.32036351025E+02 -0.27825946605E+02  0.21691897962E+02  0.47656579070E+02  0.00000000000E+00 0.  1.
</event>
<event>
 8    1  0.6692409E-009  0.9574785E+02  0.7561462E-02  0.1289501E+00
          1   -1    0    0  501    0  0.00000000000E+00  0.00000000000E+00  0.44808748816E+03  0.44808748816E+03  0.00000000000E+00 0. -1.
         -1   -1    0    0    0  501 -0.00000000000E+00 -0.00000000000E+00 -0.28979776281E+02  0.28979776281E+02  0.00000000000E+00 0.  1.
         25    2    1    2    0    0 -0.13383547220E+02 -0.20254396709E+02  0.28709873832E+03  0.31410592481E+03  0.12508991381E+03 0.  0.
         23    2    1    2    0    0  0.13383547220E+02  0.20254396709E+02  0.13200897356E+03  0.16296133963E+03  0.92415741031E+02 0.  0.
          5    1    3    3  502    0 -0.33601376030E+02  0.27976680815E+02  0.23876492322E+03  0.24277130823E+03  0.41800000000E+01 0.  1.
         -5    1    3    3    0  502  0.20217828810E+02 -0.48231077523E+02  0.48333815094E+02  0.71334616578E+02  0.41800000000E+01 0.  1.
        -11    1    4    4    0    0 -0.36284116557E+02 -0.91097591138E+01  0.44401986029E+02  0.58060840407E+02  0.00000000000E+00 0. -1.
         11    1    4    4    0    0  0.49667663777E+02  0.29364155822E+02  0.87606987531E+02  0.10490049922E+03  0.00000000000E+00 0.  1.
</event>
<event>
 8    1  0.6692409E-009  0.2405531E+03  0.7561462E-02  0.1119425E+00
         -1   -1    0    0    0  501 -0.00000000000E+00  0.00000000000E+00  0.83498521042E+02  0.83498521042E+02  0.00000000000E+00 0.  1.
          1   -1    0    0  501    0  0.00000000000E+00 -0.00000000000E+00 -0.75808406155E+03  0.75808406155E+03  0.00000000000E+00 0. -1.
         25    2    1    2    0    0  0.21657083645E+03  0.37918821057E+02 -0.45135012232E+03  0.51740222295E+03  0.12508942080E+03 0.  0.
         23    2    1    2    0    0 -0.21657083645E+03 -0.37918821057E+02 -0.22323541818E+03  0.32418035965E+03  0.83175053088E+02 0.  0.
          5    1    3    3  502    0  0.11989310968E+03 -0.38559651734E+02 -0.18449274619E+03  0.22341944921E+03  0.41800000000E+01 0.  1.
         -5    1    3    3    0  502  0.96677726775E+02  0.76478472791E+02 -0.26685737614E+03  0.29398277373E+03  0.41800000000E+01 0.  1.
        -11    1    4    4    0    0 -0.12532676182E+03 -0.58360186905E+02 -0.15920246081E+03  0.21085097147E+03  0.00000000000E+00 0. -1.
         11    1    4    4    0    0 -0.91244074634E+02  0.20441365849E+02 -0.64032957380E+02  0.11332938818E+03  0.00000000000E+00 0.  1.
</event>
<event>
 8    1  0.6692409E-009  0.1138299E+03  0.7561462E-02  0.1253638E+00
          2   -1    0    0  501    0  0.00000000000E+00  0.00000000000E+00  0.46651156112E+03  0.46651156112E+03  0.00000000000E+00 0. -1.
         -2   -1    0    0    0  501 -0.00000000000E+00 -0.00000000000E+00 -0.30549344792E+02  0.30549344792E+02  0.00000000000E+00 0.  1.
         25    2    1    2    0    0 -0.10388986940E+02 -0.33343123976E+02  0.31722665805E+03  0.34278080707E+03  0.12508490777E+03 0.  0.
         23    2    1    2    0    0  0.10388986940E+02  0.33343123976E+02  0.11873555828E+03  0.15428009884E+03  0.92111460379E+02 0.  0.
          5    1    3    3  502    0  0.38096809724E+02  0.30427036341E+02  0.13805339456E+03  0.14646973612E+03  0.41800000000E+01 0.  1.
         -5    1    3    3    0  502 -0.48485796664E+02 -0.63770160317E+02  0.17917326349E+03  0.19631107095E+03  0.41800000000E+01 0.  1.
        -11    1    4    4    0    0 -0.28361425273E+02  0.49077655351E+02  0.67663224695E+02  0.88268333362E+02  0.00000000000E+00 0.  1.
         11    1    4    4    0    0  0.38750412213E+02 -0.15734531375E+02  0.51072333583E+02  0.66011765481E+02  0.00000000000E+00 0. -1.
</event>
<event>
 8    1  0.6692409E-009  0.8527852E+02  0.7561462E-02  0.1314706E+00
         -1   -1    0    0    0  501 -0.00000000000E+00  0.00000000000E+00  0.19810242332E+03  0.19810242332E+03  0.00000000000E+00 0.  1.
          1   -1    0    0  501    0  0.00000000000E+00 -0.00000000000E+00 -0.91941809370E+02  0.91941809370E+02  0.00000000000E+00 0. -1.
         25    2    1    2    0    0 -0.43206182069E+02  0.43081213868E+01  0.13025796702E+03  0.18574103223E+03  0.12508900433E+03 0.  0.
         23    2    1    2    0    0  0.43206182069E+02 -0.43081213868E+01 -0.24097353073E+02  0.10430320046E+03  0.91723176579E+02 0.  0.
          5    1    3    3  502    0 -0.75355973357E+02 -0.16698667141E+02  0.12469763657E+03  0.14671176221E+03  0.41800000000E+01 0. -1.
         -5    1    3    3    0  502  0.32149791288E+02  0.21006788527E+02  0.55603304578E+01  0.39029270027E+02  0.41800000000E+01 0. -1.
        -11    1    4    4    0    0  0.21355485796E+02 -0.18764972279E+02 -0.56130987645E+02  0.62919541735E+02  0.00000000000E+00 0. -1.
         11    1    4    4    0    0  0.21850696273E+02  0.14456850892E+02  0.32033634572E+02  0.41383658722E+02  0.00000000000E+00 0.  1.
</event>
<event>
 8    1  0.6692409E-009  0.1055297E+03  0.7561462E-02  0.1269080E+00
         -1   -1    0    0    0  501 -0.00000000000E+00  0.00000000000E+00  0.43217851649E+02  0.43217851649E+02  0.00000000000E+00 0.  1.
          1   -1    0    0  501    0  0.00000000000E+00 -0.00000000000E+00 -0.46547625319E+03  0.46547625319E+03  0.00000000000E+00 0. -1.
         25    2    1    2    0    0  0.39076615523E+02 -0.81580218833E+02 -0.24184546780E+03  0.28690544426E+03  0.12507273751E+03 0.  0.
         23    2    1    2    0    0 -0.39076615523E+02  0.81580218833E+02 -0.18041293374E+03  0.22178866057E+03  0.91973198883E+02 0.  0.
          5    1    3    3  502    0  0.39604222179E+02 -0.50622166805E+02 -0.24698218354E+03  0.25524257006E+03  0.41800000000E+01 0. -1.
         -5    1    3    3    0  502 -0.52760665588E+00 -0.30958052028E+02  0.51367157385E+01  0.31662874202E+02  0.41800000000E+01 0. -1.
        -11    1    4    4    0    0 -0.58650910885E+02  0.73980054765E+02 -0.95384107738E+02  0.13420546136E+03  0.00000000000E+00 0.  1.
         11    1    4    4    0    0  0.19574295362E+02  0.76001640687E+01 -0.85028826000E+02  0.87583199210E+02  0.00000000000E+00 0. -1.
</event>
<event>
 8    1  0.6692409E-009  0.1536890E+03  0.7561462E-02  0.1196012E+00
          2   -1    0    0  501    0  0.00000000000E+00  0.00000000000E+00  0.96193293984E+02  0.96193293984E+02  0.00000000000E+00 0. -1.
         -2   -1    0    0    0  501 -0.00000000000E+00 -0.00000000000E+00 -0.25481802089E+03  0.25481802089E+03  0.00000000000E+00 0.  1.
         25    2    1    2    0    0  0.12124482786E+02  0.11168329765E+03 -0.64620333563E+02  0.18012002793E+03  0.12508906784E+03 0.  0.
         23    2    1    2    0    0 -0.12124482786E+02 -0.11168329765E+03 -0.94004393341E+02  0.17089128695E+03  0.88016157210E+02 0.  0.
          5    1    3    3  502    0 -0.41283276748E+02  0.10215417240E+03 -0.59960059148E+02  0.12550882428E+03  0.41800000000E+01 0.  1.
         -5    1    3    3    0  502  0.53407759534E+02  0.95291252440E+01 -0.46602744155E+01  0.54611203648E+02  0.41800000000E+01 0.  1.
        -11    1    4    4    0    0 -0.50479496245E+02 -0.63018492375E+02 -0.54019310980E+02  0.97147289623E+02  0.00000000000E+00 0. -1.
         11    1    4    4    0    0  0.38355013459E+02 -0.48664805274E+02 -0.39985082361E+02  0.73743997323E+02  0.00000000000E+00 0.  1.
</event>
<event>
 8    1  0.6692409E-009  0.1103178E+03  0.7561462E-02  0.1259982E+00
         -3   -1    0    0    0  501 -0.00000000000E+00  0.00000000000E+00  0.34032362714E+02  0.34032362714E+02  0.00000000000E+00 0.  1.
          3   -1    0    0  501    0  0.00000000000E+00 -0.00000000000E+00 -0.45984322347E+03  0.45984322347E+03  0.00000000000E+00 0. -1.
         25    2    1    2    0    0 -0.57342082848E+02 -0.18438088627E+02 -0.29108083993E+03  0.32249722006E+03  0.12509326119E+03 0.  0.
         23    2    1    2    0    0  0.57342082848E+02  0.18438088627E+02 -0.13473002083E+03  0.17137836612E+03  0.87122260563E+02 0.  0.
          5    1    3    3  502    0 -0.57857431364E+02 -0.62931868235E+02 -0.23903273521E+03  0.25389372443E+03  0.41800000000E+01 0.  1.
         -5    1    3    3    0  502  0.51534851525E+00  0.44493779607E+02 -0.52048104719E+02  0.68603495630E+02  0.41800000000E+01 0.  1.
        -11    1    4    4    0    0  0.18684723101E+02 -0.25640318739E+02 -0.95227858868E+01  0.33124436198E+02  0.00000000000E+00 0.  1.
         11    1    4    4    0    0  0.38657359747E+02  0.44078407366E+02 -0.12520723494E+03  0.13825392993E+03  0.00000000000E+00 0. -1.
</event>
<event>
 8    1  0.6692409E-009  0.1045944E+03  0.7561462E-02  0.1270921E+00
          1   -1    0    0  501    0  0.00000000000E+00  0.00000000000E+00  0.62399292943E+03  0.62399292943E+03  0.00000000000E+00 0. -1.
         -1   -1    0    0    0  501 -0.00000000000E+00 -0.00000000000E+00 -0.45532829122E+02  0.45532829122E+02  0.00000000000E+00 0.  1.
         25    2    1    2    0    0 -0.36833652976E+02 -0.69842877318E+02  0.54440786823E+03  0.56414734096E+03  0.12509016676E+03 0.  0.
         23    2    1    2    0    0  0.36833652976E+02  0.69842877318E+02  0.34052232079E+02  0.10537841759E+03  0.60912321257E+02 0.  0.
          5    1    3    3  502    0 -0.71636744702E+02 -0.44856591698E+02  0.20151288591E+03  0.21856086704E+03  0.41800000000E+01 0. -1.
         -5    1    3    3    0  502  0.34803091727E+02 -0.24986285620E+02  0.34289498231E+03  0.34558647392E+03  0.41800000000E+01 0. -1.
        -11    1    4    4    0    0  0.20286651353E+02  0.18082516185E+02 -0.15968698616E+02  0.31520230808E+02  0.00000000000E+00 0.  1.
         11    1    4    4    0    0  0.16547001622E+02  0.51760361133E+02  0.50020930695E+02  0.73858186783E+02  0.00000000000E+00 0. -1.
</event>
<event>
 8    1  0.6692409E-009  0.1136558E+03  0.7561462E-02  0.1253946E+00
         -1   -1    0    0    0  501 -0.00000000000E+00  0.00000000000E+00  0.22512277049E+03  0.22512277049E+03  0.00000000000E+00 0.  1.
          1   -1    0    0  501    0  0.00000000000E+00 -0.00000000000E+00 -0.11168066832E+03  0.11168066832E+03  0.00000000000E+00 0. -1.
         25    2    1    2    0    0  0.73273035684E+02  0.12859567025E+02 -0.30724020275E+02  0.14874781238E+03  0.12509052739E+03 0.  0.
         23    2    1    2    0    0 -0.73273035684E+02 -0.12859567025E+02  0.14416612245E+03  0.18805562643E+03  0.95114360370E+02 0.  0.
          5    1    3    3  502    0 -0.12036321736E+02 -0.31085445555E+02  0.21033942702E+02  0.39636815108E+02  0.41800000000E+01 0.  1.
         -5    1    3    3    0  502  0.85309357420E+02  0.43945012580E+02 -0.51757962978E+02  0.10911099727E+03  0.41800000000E+01 0.  1.
        -11    1    4    4    0    0 -0.70951869675E+01  0.21822813214E+02 -0.28693188486E+01  0.23125956096E+02  0.00000000000E+00 0. -1.
         11    1    4    4    0    0 -0.66177848717E+02 -0.34682380239E+02  0.14703544130E+03  0.16492967034E+03  0.00000000000E+00 0.  1.
</event>
<event>
 8    1  0.6692409E-009  0.1177683E+03  0.7561462E-02  0.1246825E+00
          1   -1    0    0  501    0  0.00000000000E+00  0.00000000000E+00  0.73035367019E+03  0.73035367019E+03  0.00000000000E+00 0. -1.
         -1   -1    0    0    0  501 -0.00000000000E+00 -0.00000000000E+00 -0.22016021266E+02  0.22016021266E+02  0.00000000000E+00 0.  1.
         25    2    1    2    0    0  0.45197712118E+02 -0.32317355053E+01  0.49448343994E+03  0.51207017331E+03  0.12509481496E+03 0.  0.
         23    2    1    2    0    0 -0.45197712118E+02  0.32317355053E+01  0.21385420898E+03  0.24029951814E+03  0.99784560042E+02 0.  0.
          5    1    3    3  502    0  0.29185802210E+01 -0.60672684529E+02  0.25418395817E+03  0.26137453921E+03  0.41800000000E+01 0. -1.
         -5    1    3    3    0  502  0.42279131897E+02  0.57440949024E+02  0.24029948177E+03  0.25069563410E+03  0.41800000000E+01 0. -1.
        -11    1    4    4    0    0 -0.26963041440E+02 -0.44543112921E+02  0.67367769191E+02  0.85144059324E+02  0.00000000000E+00 0.  1.
         11    1    4    4    0    0 -0.18234670677E+02  0.47774848427E+02  0.14648643979E+03  0.15515545881E+03  0.00000000000E+00 0. -1.
</event>
<event>
 8    1  0.6692409E-009  0.4703578E+02  0.7561462E-02  0.1462019E+00
          2   -1    0    0  501    0  0.00000000000E+00  0.00000000000E+00  0.17446874409E+04  0.17446874409E+04  0.00000000000E+00 0. -1.
         -2   -1    0    0    0  501 -0.00000000000E+00 -0.00000000000E+00 -0.19058744376E+02  0.19058744376E+02  0.00000000000E+00 0.  1.
         25    2    1    2    0    0  0.30792719928E+02 -0.63443323967E+01  0.16047413868E+04  0.16099163714E+04  0.12508941653E+03 0.  0.
         23    2    1    2    0    0 -0.30792719928E+02  0.63443323967E+01  0.12088730969E+03  0.15382981387E+03  0.89785454495E+02 0.  0.
          5    1    3    3  502    0  0.32265284483E+02 -0.11184795972E+02  0.16026630890E+04  0.16030323133E+04  0.41800000000E+01 0.  1.
         -5    1    3    3    0  502 -0.14725645554E+01  0.48404635752E+01  0.20782978313E+01  0.68840580959E+01  0.41800000000E+01 0.  1.
        -11    1    4    4    0    0 -0.41415406873E+02  0.84674867447E+01  0.13182423076E+03  0.13843612995E+03  0.00000000000E+00 0. -1.
         11    1    4    4    0    0  0.10622686945E+02 -0.21231543480E+01 -0.10936921074E+02  0.15393683929E+02  0.00000000000E+00 0.  1.
</event>
<event>
 8    1  0.6692409E-009  0.1104693E+03  0.7561462E-02  0.1259703E+00
         -3   -1    0    0    0  501 -0.00000000000E+00  0.00000000000E+00  0.23028290848E+03  0.23028290848E+03  0.00000000000E+00 0.  1.
          3   -1    0    0  501    0  0.00000000000E+00 -0.00000000000E+00 -0.80426383806E+02  0.80426383806E+02  0.00000000000E+00 0. -1.
         25    2    1    2    0    0  0.29487123586E+02 -0.75554555413E+02  0.91122920435E+02  0.17472435122E+03  0.12508889231E+03 0.  0.
         23    2    1    2    0    0 -0.29487123586E+02  0.75554555413E+02  0.58733604236E+02  0.13598494106E+03  0.92001557748E+02 0.  0.
          5    1    3    3  502    0  0.49107973116E+02 -0.82086459334E+02  0.11040775963E+03  0.14614077328E+03  0.41800000000E+01 0.  1.
         -5    1    3    3    0  502 -0.19620849529E+02  0.65319039210E+01 -0.19284839193E+02  0.28583577939E+02  0.41800000000E+01 0.  1.
        -11    1    4    4    0    0 -0.11366503689E+02 -0.10908204009E+02  0.43597383665E+02  0.46356425480E+02  0.00000000000E+00 0.  1.
         11    1    4    4    0    0 -0.18120619898E+02  0.86462759422E+02  0.15136220571E+02  0.89628515583E+02  0.00000000000E+00 0. -1.
</event>
<event>
 8    1  0.6692409E-009  0.7755206E+02  0.7561462E-02  0.1336145E+00
          2   -1    0    0  501    0  0.00000000000E+00  0.00000000000E+00  0.22471530065E+03  0.22471530065E+03  0.00000000000E+00 0.  1.
         -2   -1    0    0    0  501 -0.00000000000E+00 -0.00000000000E+00 -0.91821730782E+02  0.91821730782E+02  0.00000000000E+00 0. -1.
         25    2    1    2    0    0  0.14240248440E+02 -0.21836373431E+02 -0.25862204636E+02  0.13039509784E+03  0.12511760880E+03 0.  0.
         23    2    1    2    0    0 -0.14240248440E+02  0.21836373431E+02  0.15875577451E+03  0.18614193360E+03  0.93625913208E+02 0.  0.
          5    1    3    3  502    0 -0.21125487478E+02 -0.23273120742E+02 -0.68105624237E+02  0.75125047906E+02  0.41800000000E+01 0.  1.
         -5    1    3    3    0  502  0.35365735918E+02  0.14367473106E+01  0.42243419601E+02  0.55270049932E+02  0.41800000000E+01 0.  1.
        -11    1    4    4    0    0  0.14786850474E+02 -0.27091908670E+02  0.98720631358E+02  0.10343300014E+03  0.00000000000E+00 0.  1.
         11    1    4    4    0    0 -0.29027098914E+02  0.48928282101E+02  0.60035143148E+02  0.82708933457E+02  0.00000000000E+00 0. -1.
</event>
<event>
 8    1  0.6692409E-009  0.1132623E+03  0.7561462E-02  0.1254645E+00
          1   -1    0    0  501    0  0.00000000000E+00  0.00000000000E+00  0.43503555787E+03  0.43503555787E+03  0.00000000000E+00 0. -1.
         -1   -1    0    0    0  501 -0.00000000000E+00 -0.00000000000E+00 -0.40603876468E+02  0.40603876468E+02  0.00000000000E+00 0.  1.
         25    2    1    2    0    0 -0.65678104798E+02 -0.35517555223E+02  0.19624295979E+03  0.24440521842E+03  0.12508997302E+03 0.  0.
         23    2    1    2    0    0  0.65678104798E+02  0.35517555223E+02  0.19818872161E+03  0.23123421591E+03  0.92819087766E+02 0.  0.
          5    1    3    3  502    0  0.10716838706E+02  0.13317178607E+02  0.13208809409E+03  0.13325514954E+03  0.41800000000E+01 0.  1.
         -5    1    3    3    0  502 -0.76394943504E+02 -0.48834733830E+02  0.64154865695E+02  0.11115006889E+03  0.41800000000E+01 0.  1.
        -11    1    4    4    0    0 -0.99082589702E+01 -0.21372671152E+02  0.52247323645E+02  0.57312716705E+02  0.00000000000E+00 0. -1.
         11    1    4    4    0    0  0.75586363768E+02  0.56890226376E+02  0.14594139797E+03  0.17392149921E+03  0.00000000000E+00 0.  1.
</event>
<event>
 8    1  0.6692409E-009  0.8498756E+02  0.7561462E-02  0.1315465E+00
          1   -1    0    0  501    0  0.00000000000E+00  0.00000000000E+00  0.12393397953E+03  0.12393397953E+03  0.00000000000E+00 0. -1.
         -1   -1    0    0    0  501 -0.00000000000E+00 -0.00000000000E+00 -0.11895834654E+03  0.11895834654E+03  0.00000000000E+00 0.  1.
         25    2    1    2    0    0 -0.32669349384E+01  0.36287844784E+02  0.41820396904E+02  0.13683559017E+03  0.12509017786E+03 0.  0.
         23    2    1    2    0    0  0.32669349384E+01 -0.36287844784E+02 -0.36844763915E+02  0.10605673591E+03  0.92536555266E+02 0.  0.
          5    1    3    3  502    0  0.42768589044E+02 -0.26929644825E+02  0.25801204989E+02  0.56899319488E+02  0.41800000000E+01 0.  1.
         -5    1    3    3    0  502 -0.46035523983E+02  0.63217489609E+02  0.16019191914E+02  0.79936270682E+02  0.41800000000E+01 0.  1.
        -11    1    4    4    0    0  0.10273743857E+02 -0.12670101801E+02  0.30367890436E+02  0.34471583399E+02  0.00000000000E+00 0. -1.
         11    1    4    4    0    0 -0.70068089187E+01 -0.23617742983E+02 -0.67212654351E+02  0.71585152509E+02  0.00000000000E+00 0.  1.
</event>
<event>
 8    1  0.6692409E-009  0.9174765E+02  0.7561462E-02  0.1298674E+00
         -4   -1    0    0    0  501 -0.00000000000E+00  0.00000000000E+00  0.10816114249E+03  0.10816114249E+03  0.00000000000E+00 0. -1.
          4   -1    0    0  501    0  0.00000000000E+00 -0.00000000000E+00 -0.22551804917E+03  0.22551804917E+03  0.00000000000E+00 0.  1.
         25    2    1    2    0    0  0.37098598472E+02  0.36188352450E+02 -0.16566214585E+03  0.21394847056E+03  0.12507637118E+03 0.  0.
         23    2    1    2    0    0 -0.37098598472E+02 -0.36188352450E+02  0.48305239169E+02  0.11973072110E+03  0.96520187438E+02 0.  0.
          5    1    3    3  502    0  0.39882884083E+02  0.50290291206E+02 -0.19770990110E+02  0.67291323975E+02  0.41800000000E+01 0. -1.
         -5    1    3    3    0  502 -0.27842856102E+01 -0.14101938756E+02 -0.14589115574E+03  0.14665714659E+03  0.41800000000E+01 0. -1.
        -11    1    4    4    0    0 -0.63438653175E+02 -0.53731136107E+01  0.47064353224E+02  0.79173141979E+02  0.00000000000E+00 0. -1.
         11    1    4    4    0    0  0.26340054702E+02 -0.30815238839E+02  0.12408859451E+01  0.40557579124E+02  0.00000000000E+00 0.  1.
</event>
<event>
 8    1  0.6692409E-009  0.1221037E+03  0.7561462E-02  0.1239666E+00
         -1   -1    0    0    0  501 -0.00000000000E+00  0.00000000000E+00  0.32915389855E+02  0.32915389855E+02  0.00000000000E+00 0.  1.
          1   -1    0    0  501    0  0.00000000000E+00 -0.00000000000E+00 -0.59249283540E+03  0.59249283540E+03  0.00000000000E+00 0. -1.
         25    2    1    2    0    0  0.59302077484E+02  0.43850859165E+02 -0.20218523134E+03  0.24892550818E+03  0.12508159978E+03 0.  0.
         23    2    1    2    0    0 -0.59302077484E+02 -0.43850859165E+02 -0.35739221420E+03  0.37648271708E+03  0.92576494014E+02 0.  0.
          5    1    3    3  502    0 -0.17255340975E+02  0.51561793163E+02 -0.13886451539E+03  0.14918844238E+03  0.41800000000E+01 0. -1.
         -5    1    3    3    0  502  0.76557418459E+02 -0.77109339982E+01 -0.63320715956E+02  0.99737065796E+02  0.41800000000E+01 0. -1.
        -11    1    4    4    0    0 -0.74096237151E+02 -0.56477549427E+02 -0.32991963814E+03  0.34282201443E+03  0.00000000000E+00 0. -1.
         11    1    4    4    0    0  0.14794159667E+02  0.12626690262E+02 -0.27472576064E+02  0.33660702649E+02  0.00000000000E+00 0.  1.
</event>
<event>
 8    1  0.6692409E-009  0.9197591E+02  0.7561462E-02  0.1298136E+00
          1   -1    0    0  501    0  0.00000000000E+00  0.00000000000E+00  0.73352884226E+02  0.73352884226E+02  0.00000000000E+00 0. -1.
         -1   -1    0    0    0  501 -0.00000000000E+00 -0.00000000000E+00 -0.26609400234E+03  0.26609400234E+03  0.00000000000E+00 0.  1.
         25    2    1    2    0    0  0.27180588308E+02  0.51045732424E+02 -0.24156598317E+02  0.13991241349E+03  0.12508993176E+03 0.  0.
         23    2    1    2    0    0 -0.27180588308E+02 -0.51045732424E+02 -0.16858451980E+03  0.19953447307E+03  0.89715185164E+02 0.  0.
          5    1    3    3  502    0 -0.42897640282E+02  0.29387633610E+02 -0.38782444498E+02  0.65003007255E+02  0.41800000000E+01 0. -1.
         -5    1    3    3    0  502  0.70078228591E+02  0.21658098814E+02  0.14625846181E+02  0.74909406240E+02  0.41800000000E+01 0. -1.
        -11    1    4    4    0    0 -0.11233954429E+02 -0.29076564370E+02 -0.16952950088E+03  0.17237140133E+03  0.00000000000E+00 0.  1.
         11    1    4    4    0    0 -0.15946633880E+02 -0.21969168054E+02  0.94498108521E+00  0.27163071739E+02  0.00000000000E+00 0. -1.
</event>
<event>
 7    1  0.6692409E-009  0.1380087E+03  0.7561462E-02  0.1216034E+00
         -4   -1    0    0    0  501 -0.00000000000E+00  0.00000000000E+00  0.79122279225E+02  0.79122279225E+02  0.00000000000E+00 0. -1.
          4   -1    0    0  501    0  0.00000000000E+00 -0.00000000000E+00 -0.29625278786E+03  0.29625278786E+03  0.00000000000E+00 0.  1.
         23    2    1    2    0    0  0.66810574672E+02 -0.69741366718E+02 -0.15920573942E+03  0.20714332435E+03  0.90743474895E+02 0.  0.
          5    1    1    2  502    0  0.21426236399E+02  0.63652568372E+02 -0.38688663178E+02  0.77620990235E+02  0.41800000000E+01 0. -1.
         -5    1    1    2    0  502 -0.88236811072E+02  0.60887983463E+01 -0.19236106030E+02  0.90610752500E+02  0.41800000000E+01 0. -1.
        -11    1    3    3    0    0  0.50450097370E+02 -0.19985897630E+01 -0.11232830153E+03  0.12315378196E+03  0.00000000000E+00 0.  1.
         11    1    3    3    0    0  0.16360477302E+02 -0.67742776955E+02 -0.46877437892E+02  0.83989542387E+02  0.00000000000E+00 0. -1.
</event>
<event>
 8    1  0.6692409E-009  0.1309869E+03  0.7561462E-02  0.1225999E+00
          2   -1    0    0  501    0  0.00000000000E+00  0.00000000000E+00  0.83726430558E+03  0.83726430558E+03  0.00000000000E+00 0.  1.
         -2   -1    0    0    0  501 -0.00000000000E+00 -0.00000000000E+00 -0.24302545510E+02  0.24302545510E+02  0.00000000000E+00 0. -1.
         25    2    1    2    0    0  0.64127113288E+02  0.57034725668E+02  0.53251292175E+03  0.55369969212E+03  0.12509232842E+03 0.  0.
         23    2    1    2    0    0 -0.64127113288E+02 -0.57034725668E+02  0.28044883831E+03  0.30786715896E+03  0.93623661902E+02 0.  0.
          5    1    3    3  502    0  0.44496634165E+01 -0.37842593190E+02  0.10726289838E+03  0.11390637881E+03  0.41800000000E+01 0.  1.
         -5    1    3    3    0  502  0.59677449872E+02  0.94877318858E+02  0.42525002337E+03  0.43979331331E+03  0.41800000000E+01 0.  1.
        -11    1    4    4    0    0 -0.73930351281E+02 -0.25102806994E+02  0.25255859242E+03  0.26435145236E+03  0.00000000000E+00 0.  1.
         11    1    4    4    0    0  0.98032379930E+01 -0.31931918674E+02  0.27890245888E+02  0.43515706602E+02  0.00000000000E+00 0. -1.
</event>
<event>
 8    1  0.6692409E-009  0.9793776E+02  0.7561462E-02  0.1284693E+00
          1   -1    0    0  501    0  0.00000000000E+00  0.00000000000E+00  0.15056287663E+03  0.15056287663E+03  0.00000000000E+00 0. -1.
         -1   -1    0    0    0  501 -0.00000000000E+00 -0.00000000000E+00 -0.12089301766E+03  0.12089301766E+03  0.00000000000E+00 0.  1.
         25    2    1    2    0    0 -0.23008509028E+02  0.44652412973E+02 -0.47501268964E+02  0.14292667815E+03  0.12509370608E+03 0.  0.
         23    2    1    2    0    0  0.23008509028E+02 -0.44652412973E+02  0.77171127931E+02  0.12852921614E+03  0.89672442501E+02 0.  0.
          5    1    3    3  502    0  0.32896688990E+01  0.71337892148E+02  0.11953200068E+02  0.72527706220E+02  0.41800000000E+01 0.  1.
         -5    1    3    3    0  502 -0.26298177927E+02 -0.26685479175E+02 -0.59454469032E+02  0.70398971931E+02  0.41800000000E+01 0.  1.
        -11    1    4    4    0    0 -0.72301788539E+01 -0.54393607856E+02  0.12207361924E+02  0.56213519255E+02  0.00000000000E+00 0.  1.
         11    1    4    4    0    0  0.30238687882E+02  0.97411948830E+01  0.64963766007E+02  0.72315696888E+02  0.00000000000E+00 0. -1.
</event>
<event>
 7    1  0.6692409E-009  0.1374936E+03  0.7561462E-02  0.1216742E+00
          2   -1    0    0  501    0  0.00000000000E+00  0.00000000000E+00  0.81660111659E+02  0.81660111659E+02  0.00000000000E+00 0. -1.
         -2   -1    0    0    0  501 -0.00000000000E+00 -0.00000000000E+00 -0.34920183179E+03  0.34920183179E+03  0.00000000000E+00 0.  1.
         25    2    1    2    0    0 -0.85872437146E+02 -0.57642111981E+02 -0.27247218024E+03  0.31715032570E+03  0.12508617651E+03 0.  0.
          5    1    3    3  502    0 -0.14937222095E+02 -0.84733977532E+02 -0.13871069638E+03  0.16328226249E+03  0.41800000000E+01 0.  1.
         -5    1    3    3    0  502 -0.70935215050E+02  0.27091865550E+02 -0.13376148386E+03  0.15386806321E+03  0.41800000000E+01 0.  1.
        -11    1    1    2    0    0  0.60023336203E+02  0.13312495985E+02 -0.40541530151E+01  0.61615416861E+02  0.00000000000E+00 0.  1.
         11    1    1    2    0    0  0.25849100942E+02  0.44329615997E+02  0.89846131227E+01  0.52096200888E+02  0.00000000000E+00 0. -1.
</event>
<event>
 8    1  0.6692409E-009  0.1258096E+03  0.7561462E-02  0.1233809E+00
         -1   -1    0    0    0  501 -0.00000000000E+00  0.00000000000E+00  0.16720939707E+03  0.16720939707E+03  0.00000000000E+00 0. -1.
          1   -1    0    0  501    0  0.00000000000E+00 -0.00000000000E+00 -0.15054980212E+03  0.15054980212E+03  0.00000000000E+00 0.  1.
         25    2    1    2    0    0 -0.11495719787E+03  0.70598502754E+01  0.21559438739E+02  0.17139957746E+03  0.12509199385E+03 0.  0.
         23    2    1    2    0    0  0.11495719787E+03 -0.70598502754E+01 -0.48998437909E+01  0.14635962173E+03  0.90178332069E+02 0.  0.
          5    1    3    3  502    0 -0.13527629703E+02  0.46034019119E+01  0.60754668380E+02  0.62552299754E+02  0.41800000000E+01 0.  1.
         -5    1    3    3    0  502 -0.10142956817E+03  0.24564483635E+01 -0.39195229641E+02  0.10884727771E+03  0.41800000000E+01 0.  1.
        -11    1    4    4    0    0  0.59680188046E+02  0.31792706541E+02 -0.30403840428E+02  0.74141044956E+02  0.00000000000E+00 0.  1.
         11    1    4    4    0    0  0.55277009827E+02 -0.38852556817E+02  0.25503996637E+02  0.72218576772E+02  0.00000000000E+00 0. -1.
</event>
<event>
 8    1  0.6692409E-009  0.1132037E+03  0.7561462E-02  0.1254750E+00
         -2   -1    0    0    0  501 -0.00000000000E+00  0.00000000000E+00  0.10079382606E+02  0.10079382606E+02  0.00000000000E+00 0.  1.
          2   -1    0    0  501    0  0.00000000000E+00 -0.00000000000E+00 -0.13329523663E+04  0.13329523663E+04  0.00000000000E+00 0. -1.
         25    2    1    2    0    0  0.59490375901E+00  0.38166159874E+02 -0.84856490039E+03  0.85858425574E+03  0.12509006496E+03 0.  0.
         23    2    1    2    0    0 -0.59490375901E+00 -0.38166159874E+02 -0.47430808333E+03  0.48444749320E+03  0.90907678899E+02 0.  0.
          5    1    3    3  502    0 -0.38432046445E+02  0.69216562119E+02 -0.45578846114E+03  0.46263219557E+03  0.41800000000E+01 0. -1.
         -5    1    3    3    0  502  0.39026950204E+02 -0.31050402245E+02 -0.39277643925E+03  0.39595206017E+03  0.41800000000E+01 0. -1.
        -11    1    4    4    0    0  0.30870911252E+02  0.15747594190E+02 -0.13078187150E+03  0.13529559416E+03  0.00000000000E+00 0.  1.
         11    1    4    4    0    0 -0.31465815011E+02 -0.53913754064E+02 -0.34352621183E+03  0.34915189904E+03  0.00000000000E+00 0. -1.
</event>
<event>
 8    1  0.6692409E-009  0.1574570E+03  0.7561462E-02  0.1191598E+00
         -1   -1    0    0    0  501 -0.00000000000E+00  0.00000000000E+00  0.74911542628E+03  0.74911542628E+03  0.00000000000E+00 0.  1.
          1   -1    0    0  501    0  0.00000000000E+00 -0.00000000000E+00 -0.37282172073E+02  0.37282172073E+02  0.00000000000E+00 0. -1.
         25    2    1    2    0    0  0.92090471752E+01  0.12294798091E+03  0.45211437126E+03  0.48503149132E+03  0.12508848994E+03 0.  0.
         23    2    1    2    0    0 -0.92090471752E+01 -0.12294798091E+03  0.25971888295E+03  0.30136610703E+03  0.90369351824E+02 0.  0.
          5    1    3    3  502    0  0.58095190121E+02  0.10907514214E+03  0.29557201060E+03  0.32039463728E+03  0.41800000000E+01 0. -1.
         -5    1    3    3    0  502 -0.48886142946E+02  0.13872838769E+02  0.15654236066E+03  0.16463685404E+03  0.41800000000E+01 0. -1.
        -11    1    4    4    0    0  0.33700770751E+01 -0.12701004940E+03  0.25856751990E+03  0.28809733150E+03  0.00000000000E+00 0.  1.
         11    1    4    4    0    0 -0.12579124250E+02  0.40620684884E+01  0.11513630436E+01  0.13268775534E+02  0.00000000000E+00 0. -1.
</event>
<event>
 8    1  0.6692409E-009  0.1038204E+03  0.7561462E-02  0.1272461E+00
         -1   -1    0    0    0  501 -0.00000000000E+00  0.00000000000E+00  0.10759199996E+02  0.10759199996E+02  0.00000000000E+00 0.  1.
          1   -1    0    0  501    0  0.00000000000E+00 -0.00000000000E+00 -0.13450920060E+04  0.13450920060E+04  0.00000000000E+00 0. -1.
         25    2    1    2    0    0  0.53244171332E+02 -0.98394015140E+01 -0.86726855827E+03  0.87791476496E+03  0.12509127373E+03 0.  0.
         23    2    1    2    0    0 -0.53244171332E+02  0.98394015140E+01 -0.46706424768E+03  0.47793644099E+03  0.85688240486E+02 0.  0.
          5    1    3    3  502    0  0.79018967413E+02 -0.15250872117E+02 -0.81741226166E+03  0.82137498393E+03  0.41800000000E+01 0.  1.
         -5    1    3    3    0  502 -0.25774796081E+02  0.54114706029E+01 -0.49856296614E+02  0.56539781032E+02  0.41800000000E+01 0.  1.
        -11    1    4    4    0    0 -0.76555394679E+02  0.87238862271E+01 -0.32808147053E+03  0.33700784257E+03  0.00000000000E+00 0.  1.
         11    1    4    4    0    0  0.23311223347E+02  0.11155152868E+01 -0.13898277715E+03  0.14092859842E+03  0.00000000000E+00 0. -1.
</event>
<event>
 8    1  0.6692409E-009  0.9098036E+02  0.7561462E-02  0.1300495E+00
          4   -1    0    0  501    0  0.00000000000E+00  0.00000000000E+00  0.91586032613E+02  0.91586032613E+02  0.00000000000E+00 0. -1.
         -4   -1    0    0    0  501 -0.00000000000E+00 -0.00000000000E+00 -0.18524861436E+03  0.18524861436E+03  0.00000000000E+00 0.  1.
         25    2    1    2    0    0 -0.57202201327E+02  0.43087039116E+02 -0.44038547684E+02  0.15075532744E+03  0.12513668644E+03 0.  0.
         23    2    1    2    0    0  0.57202201327E+02 -0.43087039116E+02 -0.49624034066E+02  0.12607931954E+03  0.91131033582E+02 0.  0.
          5    1    3    3  502    0 -0.53769463781E+02  0.63851329151E+02  0.17665846883E+02  0.85426588459E+02  0.41800000000E+01 0.  1.
         -5    1    3    3    0  502 -0.34327375457E+01 -0.20764290035E+02 -0.61704394567E+02  0.65328738979E+02  0.41800000000E+01 0.  1.
        -11    1    4    4    0    0  0.14560810967E+02 -0.28237171677E+02  0.23928178151E+02  0.39773267277E+02  0.00000000000E+00 0. -1.
         11    1    4    4    0    0  0.42641390360E+02 -0.14849867439E+02 -0.73552212217E+02  0.86306052260E+02  0.00000000000E+00 0.  1.
</event>
<event>
 8    1  0.6692409E-009  0.8171314E+02  0.7561462E-02  0.1324259E+00
         -1   -1    0    0    0  501 -0.00000000000E+00  0.00000000000E+00  0.26417573756E+02  0.26417573756E+02  0.00000000000E+00 0.  1.
          1   -1    0    0  501    0  0.00000000000E+00 -0.00000000000E+00 -0.61825090977E+03  0.61825090977E+03  0.00000000000E+00 0. -1.
         25    2    1    2    0    0  0.53680973029E+02  0.16585452528E+02 -0.41243138075E+03  0.43463146376E+03  0.12509253122E+03 0.  0.
         23    2    1    2    0    0 -0.53680973029E+02 -0.16585452528E+02 -0.17940195526E+03  0.21003701976E+03  0.93668372546E+02 0.  0.
          5    1    3    3  502    0  0.25501684146E+02  0.65876821684E+01 -0.40170846888E+03  0.40259272201E+03  0.41800000000E+01 0.  1.
         -5    1    3    3    0  502  0.28179288883E+02  0.99977703592E+01 -0.10722911872E+02  0.32038741753E+02  0.41800000000E+01 0.  1.
        -11    1    4    4    0    0  0.15406884849E+02  0.22439042146E+02 -0.68176579908E+02  0.73409323394E+02  0.00000000000E+00 0. -1.
         11    1    4    4    0    0 -0.69087857878E+02 -0.39024494674E+02 -0.11122537536E+03  0.13662769636E+03  0.00000000000E+00 0.  1.
</event>
<event>
 8    1  0.6692409E-009  0.1584838E+03  0.7561462E-02  0.1190419E+00
         -4   -1    0    0    0  501 -0.00000000000E+00  0.00000000000E+00  0.10668408372E+03  0.10668408372E+03  0.00000000000E+00 0.  1.
          4   -1    0    0  501    0  0.00000000000E+00 -0.00000000000E+00 -0.28541634658E+03  0.28541634658E+03  0.00000000000E+00 0. -1.
         25    2    1    2    0    0 -0.12375324461E+03  0.57561206956E+02 -0.87265411732E+02  0.20467217613E+03  0.12508912623E+03 0.  0.
         23    2    1    2    0    0  0.12375324461E+03 -0.57561206956E+02 -0.91466851125E+02  0.18742825417E+03  0.90194276476E+02 0.  0.
          5    1    3    3  502    0  0.19310403733E+02  0.27674322265E+02  0.75209639227E+00  0.34011731126E+02  0.41800000000E+01 0.  1.
         -5    1    3    3    0  502 -0.14306364834E+03  0.29886884691E+02 -0.88017508125E+02  0.17066044501E+03  0.41800000000E+01 0.  1.
        -11    1    4    4    0    0  0.60846011957E+02 -0.33013390471E+02 -0.97562255649E+02  0.11962656414E+03  0.00000000000E+00 0. -1.
         11    1    4    4    0    0  0.62907232651E+02 -0.24547816486E+02  0.60954045249E+01  0.67801690025E+02  0.00000000000E+00 0.  1.
</event>
<event>
 8    1  0.6692409E-009  0.9372541E+02  0.7561462E-02  0.1294073E+00
         -4   -1    0    0    0  501 -0.00000000000E+00  0.00000000000E+00  0.22454818942E+03  0.22454818942E+03  0.00000000000E+00 0.  1.
          4   -1    0    0  501    0  0.00000000000E+00 -0.00000000000E+00 -0.69475792592E+02  0.69475792592E+02  0.00000000000E+00 0. -1.
         25    2    1    2    0    0  0.10603636663E+02 -0.45928849619E+02  0.13225699099E+03  0.18804543349E+03  0.12508907648E+03 0.  0.
         23    2    1    2    0    0 -0.10603636663E+02  0.45928849619E+02  0.22815405833E+02  0.10597854852E+03  0.92135843538E+02 0.  0.
          5    1    3    3  502    0  0.40153548808E+02 -0.29291299003E+02  0.14362217505E+03  0.15203647340E+03  0.41800000000E+01 0. -1.
         -5    1    3    3    0  502 -0.29549912145E+02 -0.16637550617E+02 -0.11365184055E+02  0.36008960092E+02  0.41800000000E+01 0. -1.
        -11    1    4    4    0    0 -0.41395734974E+02  0.57206217520E+02  0.13533197368E+02  0.71897883335E+02  0.00000000000E+00 0. -1.
         11    1    4    4    0    0  0.30792098311E+02 -0.11277367901E+02  0.92822084652E+01  0.34080665181E+02  0.00000000000E+00 0.  1.
</event>
<event>
 8    1  0.6692409E-009  0.1090232E+03  0.7561462E-02  0.1262389E+00
          2   -1    0    0  501    0  0.00000000000E+00  0.00000000000E+00  0.49657801946E+02  0.49657801946E+02  0.00000000000E+00 0. -1.
         -2   -1    0    0    0  501 -0.00000000000E+00 -0.00000000000E+00 -0.28096925644E+03  0.28096925644E+03  0.00000000000E+00 0.  1.
         25    2    1    2    0    0  0.13855263289E+02  0.42833090603E+02 -0.11574271892E+03  0.17626829991E+03  0.12508994603E+03 0.  0.
         23    2    1    2    0    0 -0.13855263289E+02 -0.42833090603E+02 -0.11556873557E+03  0.15435875848E+03  0.91890433156E+02 0.  0.
          5    1    3    3  502    0 -0.37321373932E+02 -0.25810619321E+02 -0.53811990711E+02  0.70514365673E+02  0.41800000000E+01 0.  1.
         -5    1    3    3    0  502  0.51176637221E+02  0.68643709924E+02 -0.61930728209E+02  0.10575393423E+03  0.41800000000E+01 0.  1.
        -11    1    4    4    0    0 -0.36417829064E+02 -0.51078812848E+02 -0.38432988133E+02  0.73569001437E+02  0.00000000000E+00 0. -1.
         11    1    4    4    0    0  0.22562565775E+02  0.82457222451E+01 -0.77135747437E+02  0.80789757038E+02  0.00000000000E+00 0.  1.
</event>
<event>
 8    1  0.6692409E-009  0.1007664E+03  0.7561462E-02  0.1278693E+00
          1   -1    0    0  501    0  0.00000000000E+00  0.00000000000E+00  0.40262568643E+03  0.40262568643E+03  0.00000000000E+00 0. -1.
         -1   -1    0    0    0  501 -0.00000000000E+00 -0.00000000000E+00 -0.43153533974E+02  0.43153533974E+02  0.00000000000E+00 0.  1.
         25    2    1    2    0    0  0.25936176317E+02  0.92388833797E+01  0.32134082516E+03  0.34592751247E+03  0.12509146957E+03 0.  0.
         23    2    1    2    0    0 -0.25936176317E+02 -0.92388833797E+01  0.38131327298E+02  0.99851707939E+02  0.88081344499E+02 0.  0.
          5    1    3    3  502    0 -0.36363810280E+02 -0.35660954869E+02  0.12251289858E+03  0.13274378750E+03  0.41800000000E+01 0.  1.
         -5    1    3    3    0  502  0.62299986597E+02  0.44899838249E+02  0.19882792658E+03  0.21318372497E+03  0.41800000000E+01 0.  1.
        -11    1    4    4    0    0 -0.24959749455E+02  0.27288674483E+02 -0.11035494470E+02  0.38593302348E+02  0.00000000000E+00 0.  1.
         11    1    4    4    0    0 -0.97642686200E+00 -0.36527557863E+02  0.49166821768E+02  0.61258405592E+02  0.00000000000E+00 0. -1.
</event>
<event>
 8    1  0.6692409E-009  0.1275156E+03  0.7561462E-02  0.1231189E+00
         -2   -1    0    0    0  501 -0.00000000000E+00  0.00000000000E+00  0.24573087437E+02  0.24573087437E+02  0.00000000000E+00 0.  1.
          2   -1    0    0  501    0  0.00000000000E+00 -0.00000000000E+00 -0.74042110555E+03  0.74042110555E+03  0.00000000000E+00 0. -1.
         25    2    1    2    0    0 -0.23343567925E+02  0.75682010360E+02 -0.40915209324E+03  0.43511571654E+03  0.12509021752E+03 0.  0.
         23    2    1    2    0    0  0.23343567925E+02 -0.75682010360E+02 -0.30669592487E+03  0.32987847645E+03  0.92112594341E+02 0.  0.
          5    1    3    3  502    0  0.39694084895E+02  0.73790842914E+01 -0.22675532380E+03  0.23035954621E+03  0.41800000000E+01 0.  1.
         -5    1    3    3    0  502 -0.63037652820E+02  0.68302926069E+02 -0.18239676945E+03  0.20475617033E+03  0.41800000000E+01 0.  1.
        -11    1    4    4    0    0 -0.24481276804E+02  0.73670800125E+01 -0.69562733629E+02  0.74111947025E+02  0.00000000000E+00 0.  1.
         11    1    4    4    0    0  0.47824844729E+02 -0.83049090373E+02 -0.23713319124E+03  0.25576652943E+03  0.00000000000E+00 0. -1.
</event>
<event>
 8    1  0.6692409E-009  0.1083776E+03  0.7561462E-02  0.1263604E+00
         -1   -1    0    0    0  501 -0.00000000000E+00  0.00000000000E+00  0.17480940435E+03  0.17480940435E+03  0.00000000000E+00 0.  1.
          1   -1    0    0  501    0  0.00000000000E+00 -0.00000000000E+00 -0.95712812385E+02  0.95712812385E+02  0.00000000000E+00 0. -1.
         25    2    1    2    0    0  0.55590166203E+02 -0.37248279122E+02  0.67451021542E+02  0.15708269710E+03  0.12509049742E+03 0.  0.
         23    2    1    2    0    0 -0.55590166203E+02  0.37248279122E+02  0.11645570426E+02  0.11343951964E+03  0.90858155549E+02 0.  0.
          5    1    3    3  502    0  0.80112844408E+02 -0.38312805192E+01  0.30366654323E+01  0.80370643188E+02  0.41800000000E+01 0.  1.
         -5    1    3    3    0  502 -0.24522678205E+02 -0.33416998603E+02  0.64414356110E+02  0.76712053909E+02  0.41800000000E+01 0.  1.
        -11    1    4    4    0    0  0.54220143758E+01  0.33195717042E+02 -0.25219012583E+02  0.42039891359E+02  0.00000000000E+00 0. -1.
         11    1    4    4    0    0 -0.61012180579E+02  0.40525620804E+01  0.36864583009E+02  0.71399628282E+02  0.00000000000E+00 0.  1.
</event>
<event>
 8    1  0.6692409E-009  0.1308099E+03  0.7561462E-02  0.1226259E+00
         -2   -1    0    0    0  501 -0.00000000000E+00  0.00000000000E+00  0.35034729093E+03  0.35034729093E+03  0.00000000000E+00 0.  1.
          2   -1    0    0  501    0  0.00000000000E+00 -0.00000000000E+00 -0.69666935008E+02  0.69666935008E+02  0.00000000000E+00 0. -1.
         25    2    1    2    0    0 -0.61647596066E+02 -0.45881605530E+02  0.41700125888E+02  0.15261557383E+03  0.12508822907E+03 0.  0.
         23    2    1    2    0    0  0.61647596066E+02  0.45881605530E+02  0.23898023003E+03  0.26739865210E+03  0.92113739330E+02 0.  0.
          5    1    3    3  502    0  0.33400493691E+02  0.45709372214E+01  0.28069846489E+02  0.44066712242E+02  0.41800000000E+01 0.  1.
         -5    1    3    3    0  502 -0.95048089757E+02 -0.50452542751E+02  0.13630279399E+02  0.10854886159E+03  0.41800000000E+01 0.  1.
        -11    1    4    4    0    0  0.20346543548E+02 -0.28419272896E+02  0.69863165835E+02  0.78118492349E+02  0.00000000000E+00 0. -1.
         11    1    4    4    0    0  0.41301052518E+02  0.74300878426E+02  0.16911706420E+03  0.18928015975E+03  0.00000000000E+00 0.  1.
</event>
<event>
 8    1  0.6692409E-009  0.9129977E+02  0.7561462E-02  0.1299734E+00
         -1   -1    0    0    0  501 -0.00000000000E+00  0.00000000000E+00  0.32788267220E+02  0.32788267220E+02  0.00000000000E+00 0.  1.
          1   -1    0    0  501    0  0.00000000000E+00 -0.00000000000E+00 -0.52979139620E+03  0.52979139620E+03  0.00000000000E+00 0. -1.
         25    2    1    2    0    0 -0.46314039151E+02 -0.46226802053E+02 -0.38951850489E+03  0.41431179138E+03  0.12509071659E+03 0.  0.
         23    2    1    2    0    0  0.46314039151E+02  0.46226802053E+02 -0.10748462410E+03  0.14826787204E+03  0.78412435317E+02 0.  0.
          5    1    3    3  502    0  0.27518042484E+02 -0.12487514708E+02 -0.25732966889E+03  0.25913164913E+03  0.41800000000E+01 0.  1.
         -5    1    3    3    0  502 -0.73832081635E+02 -0.33739287345E+02 -0.13218883599E+03  0.15518014225E+03  0.41800000000E+01 0.  1.
        -11    1    4    4    0    0  0.17819848815E+02  0.16396033742E+01 -0.91149318447E+02  0.92889361955E+02  0.00000000000E+00 0. -1.
         11    1    4    4    0    0  0.28494190336E+02  0.44587198678E+02 -0.16335305650E+02  0.55378510088E+02  0.00000000000E+00 0.  1.
</event>
<event>
 8    1  0.6692409E-009  0.9406438E+02  0.7561462E-02  0.1293297E+00
          1   -1    0    0  501    0  0.00000000000E+00  0.00000000000E+00  0.21221052358E+03  0.21221052358E+03  0.00000000000E+00 0. -1.
         -1   -1    0    0    0  501 -0.00000000000E+00 -0.00000000000E+00 -0.98952444147E+02  0.98952444147E+02  0.00000000000E+00 0.  1.
         25    2    1    2    0    0  0.76167642087E+01 -0.78264121922E+02  0.12879677215E+02  0.14831196210E+03  0.12508902486E+03 0.  0.
         23    2    1    2    0    0 -0.76167642087E+01  0.78264121922E+02  0.10037840222E+03  0.16285100563E+03  0.10129826516E+03 0.  0.
          5    1    3    3  502    0 -0.22638392707E+00 -0.10457669769E+02 -0.52503781410E+02  0.53698543454E+02  0.41800000000E+01 0.  1.
         -5    1    3    3    0  502  0.78431481357E+01 -0.67806452153E+02  0.65383458625E+02  0.94613418647E+02  0.41800000000E+01 0.  1.
        -11    1    4    4    0    0  0.28552872564E+02  0.83285025298E+01  0.74099842733E+02  0.79846209547E+02  0.00000000000E+00 0. -1.
         11    1    4    4    0    0 -0.36169636772E+02  0.69935619392E+02  0.26278559489E+02  0.83004796083E+02  0.00000000000E+00 0.  1.
</event>
<event>
 8    1  0.6692409E-009  0.2205103E+03  0.7561462E-02  0.1133503E+00
          1   -1    0    0  501    0  0.00000000000E+00  0.00000000000E+00  0.11203573618E+04  0.11203573618E+04  0.00000000000E+00 0.  1.
         -1   -1    0    0    0  501 -0.00000000000E+00 -0.00000000000E+00 -0.49021593717E+02  0.49021593717E+02  0.00000000000E+00 0. -1.
         25    2    1    2    0    0 -0.21482345746E+02 -0.19874186246E+03  0.69447123276E+03  0.73341465726E+03  0.12508775833E+03 0.  0.
         23    2    1    2    0    0  0.21482345746E+02  0.19874186246E+03  0.37686453531E+03  0.43596429824E+03  0.89878653160E+02 0.  0.
          5    1    3    3  502    0 -0.70459307824E+02 -0.14783713929E+03  0.44925936340E+03  0.47819638415E+03  0.41800000000E+01 0.  1.
         -5    1    3    3    0  502  0.48976962078E+02 -0.50904723166E+02  0.24521186936E+03  0.25521827311E+03  0.41800000000E+01 0.  1.
        -11    1    4    4    0    0  0.35258831251E+02  0.87409953333E+02  0.24690882598E+03  0.26428706641E+03  0.00000000000E+00 0.  1.
         11    1    4    4    0    0 -0.13776485505E+02  0.11133190913E+03  0.12995570932E+03  0.17167723183E+03  0.00000000000E+00 0. -1.
</event>
<event>
 8    1  0.6692409E-009  0.1397630E+03  0.7561462E-02  0.1213648E+00
         -2   -1    0    0    0  501 -0.00000000000E+00  0.00000000000E+00  0.46517275243E+02  0.46517275243E+02  0.00000000000E+00 0. -1.
          2   -1    0    0  501    0  0.00000000000E+00 -0.00000000000E+00 -0.52278856758E+03  0.52278856758E+03  0.00000000000E+00 0.  1.
         25    2    1    2    0    0 -0.11017399250E+03  0.19311021380E+02 -0.28171490413E+03  0.32790524176E+03  0.12508931288E+03 0.  0.
         23    2    1    2    0    0  0.11017399250E+03 -0.19311021380E+02 -0.19455638821E+03  0.24140060106E+03  0.88942890826E+02 0.  0.
          5    1    3    3  502    0  0.27069305420E+02  0.10729375933E+02 -0.38179404351E+02  0.48197573803E+02  0.41800000000E+01 0. -1.
         -5    1    3    3    0  502 -0.13724329792E+03  0.85816454477E+01 -0.24353549977E+03  0.27970766796E+03  0.41800000000E+01 0. -1.
        -11    1    4    4    0    0  0.74090256706E+02 -0.18838029701E+02 -0.47548572101E+02  0.90028352259E+02  0.00000000000E+00 0. -1.
         11    1    4    4    0    0  0.36083735797E+02 -0.47299167936E+00 -0.14700781611E+03  0.15137224880E+03  0.00000000000E+00 0.  1.
</event>
<event>
 8    1  0.6692409E-009  0.9650592E+02  0.7561462E-02  0.1287820E+00
         -1   -1    0    0    0  501 -0.00000000000E+00  0.00000000000E+00  0.16892478675E+03  0.16892478675E+03  0.00000000000E+00 0.  1.
          1   -1    0    0  501    0  0.00000000000E+00 -0.00000000000E+00 -0.93017390655E+02  0.93017390655E+02  0.00000000000E+00 0. -1.
         25    2    1    2    0    0  0.38974739673E+02 -0.19897333078E+02  0.90630613323E+02  0.16054751319E+03  0.12508661689E+03 0.  0.
         23    2    1    2    0    0 -0.38974739673E+02  0.19897333078E+02 -0.14723217229E+02  0.10139466421E+03  0.90272756738E+02 0.  0.
          5    1    3    3  502    0 -0.36129958944E+02 -0.47770189317E+01  0.73184410551E+02  0.81863448442E+02  0.41800000000E+01 0.  1.
         -5    1    3    3    0  502  0.75104698617E+02 -0.15120314147E+02  0.17446202772E+02  0.78684064749E+02  0.41800000000E+01 0.  1.
        -11    1    4    4    0    0 -0.30362177174E+02 -0.21574179730E+02 -0.37877565002E+02  0.53122659612E+02  0.00000000000E+00 0. -1.
         11    1    4    4    0    0 -0.86125624990E+01  0.41471512809E+02  0.23154347772E+02  0.48272004601E+02  0.00000000000E+00 0.  1.
</event>
<event>
 8    1  0.6692409E-009  0.1193756E+03  0.7561462E-02  0.1244131E+00
          2   -1    0    0  501    0  0.00000000000E+00  0.00000000000E+00  0.45125077515E+03  0.45125077515E+03  0.00000000000E+00 0. -1.
         -2   -1    0    0    0  501 -0.00000000000E+00 -0.00000000000E+00 -0.32308831229E+02  0.32308831229E+02  0.00000000000E+00 0.  1.
         25    2    1    2    0    0  0.41637128804E+02 -0.27405466319E+02  0.20657162054E+03  0.24658269687E+03  0.12508589810E+03 0.  0.
         23    2    1    2    0    0 -0.41637128804E+02  0.27405466319E+02  0.21237032338E+03  0.23697690950E+03  0.92586129136E+02 0.  0.
          5    1    3    3  502    0  0.15330643003E+02 -0.76337544751E+02  0.10570005817E+03  0.13134848325E+03  0.41800000000E+01 0. -1.
         -5    1    3    3    0  502  0.26306485800E+02  0.48932078431E+02  0.10087156237E+03  0.11523421362E+03  0.41800000000E+01 0. -1.
        -11    1    4    4    0    0  0.19632506999E+00  0.54967770023E+02  0.10629756300E+03  0.11966898590E+03  0.00000000000E+00 0. -1.
         11    1    4    4    0    0 -0.41833453874E+02 -0.27562303703E+02  0.10607276037E+03  0.11730792361E+03  0.00000000000E+00 0.  1.
</event>
<event>
 8    1  0.6692409E-009  0.1518982E+03  0.7561462E-02  0.1198160E+00
          2   -1    0    0  501    0  0.00000000000E+00  0.00000000000E+00  0.70453344661E+03  0.70453344661E+03  0.00000000000E+00 0.  1.
         -2   -1    0    0    0  501 -0.00000000000E+00 -0.00000000000E+00 -0.44994329535E+02  0.44994329535E+02  0.00000000000E+00 0. -1.
         25    2    1    2    0    0  0.21345062787E+02 -0.13652026184E+03  0.37286277087E+03  0.41685674386E+03  0.12509798321E+03 0.  0.
         23    2    1    2    0    0 -0.21345062787E+02  0.13652026184E+03  0.28667634621E+03  0.33267103229E+03  0.96919010771E+02 0.  0.
          5    1    3    3  502    0  0.23924517176E+00 -0.12949689799E+03  0.37231727253E+03  0.39421710726E+03  0.41800000000E+01 0. -1.
         -5    1    3    3    0  502  0.21105817616E+02 -0.70233638497E+01  0.54549833418E+00  0.22639636601E+02  0.41800000000E+01 0. -1.
        -11    1    4    4    0    0  0.21588873379E+02  0.31973275093E+02  0.20932757621E+02  0.43892483589E+02  0.00000000000E+00 0. -1.
         11    1    4    4    0    0 -0.42933936167E+02  0.10454698675E+03  0.26574358859E+03  0.28877854870E+03  0.00000000000E+00 0.  1.
</event>
<event>
 8    1  0.6692409E-009  0.8010500E+02  0.7561462E-02  0.1328754E+00
          2   -1    0    0  501    0  0.00000000000E+00  0.00000000000E+00  0.16467941026E+04  0.16467941026E+04  0.00000000000E+00 0. -1.
         -2   -1    0    0    0  501 -0.00000000000E+00 -0.00000000000E+00 -0.17330648975E+02  0.17330648975E+02  0.00000000000E+00 0.  1.
         25    2    1    2    0    0  0.40854262703E+02  0.32969181114E+02  0.14893217727E+04  0.14954874392E+04  0.12508917018E+03 0.  0.
         23    2    1    2    0    0 -0.40854262703E+02 -0.32969181114E+02  0.14014168092E+03  0.16863731237E+03  0.77735543394E+02 0.  0.
          5    1    3    3  502    0  0.21440134084E+02  0.44023103792E+02  0.14435218010E+04  0.14443581188E+04  0.41800000000E+01 0. -1.
         -5    1    3    3    0  502  0.19414128618E+02 -0.11053922677E+02  0.45799971746E+02  0.51129320439E+02  0.41800000000E+01 0. -1.
        -11    1    4    4    0    0 -0.50131734523E+02  0.39339377329E+01  0.10679520181E+03  0.11804186462E+03  0.00000000000E+00 0.  1.
         11    1    4    4    0    0  0.92774718202E+01 -0.36903118847E+02  0.33346479110E+02  0.50595447750E+02  0.00000000000E+00 0. -1.
</event>
<event>
 8    1  0.6692409E-009  0.2778229E+03  0.7561462E-02  0.1096884E+00
          2   -1    0    0  501    0  0.00000000000E+00  0.00000000000E+00  0.19417022745E+04  0.19417022745E+04  0.00000000000E+00 0. -1.
         -2   -1    0    0    0  501 -0.00000000000E+00 -0.00000000000E+00 -0.43770367663E+02  0.43770367663E+02  0.00000000000E+00 0.  1.
         25    2    1    2    0    0 -0.25098319679E+03  0.90328859607E+02  0.10995044236E+04  0.11382919109E+04  0.12508648604E+03 0.  0.
         23    2    1    2    0    0  0.25098319679E+03 -0.90328859607E+02  0.79842748322E+03  0.84718073123E+03  0.95272647995E+02 0.  0.
          5    1    3    3  502    0 -0.73352324508E+01  0.29267033403E+02  0.26637389276E+03  0.26810984321E+03  0.41800000000E+01 0. -1.
         -5    1    3    3    0  502 -0.24364796434E+03  0.61061826204E+02  0.83313053082E+03  0.87018206769E+03  0.41800000000E+01 0. -1.
        -11    1    4    4    0    0  0.16463020813E+03 -0.26878581786E+02  0.37541238764E+03  0.41080411923E+03  0.00000000000E+00 0.  1.
         11    1    4    4    0    0  0.86352988663E+02 -0.63450277821E+02  0.42301509559E+03  0.43637661200E+03  0.00000000000E+00 0. -1.
</event>
<event>
 8    1  0.6692409E-009  0.1500648E+03  0.7561462E-02  0.1200393E+00
         -2   -1    0    0    0  501 -0.00000000000E+00  0.00000000000E+00  0.18246425922E+03  0.18246425922E+03  0.00000000000E+00 0.  1.
          2   -1    0    0  501    0  0.00000000000E+00 -0.00000000000E+00 -0.14373481532E+03  0.14373481532E+03  0.00000000000E+00 0. -1.
         25    2    1    2    0    0 -0.39255245545E+02  0.10535224474E+03 -0.20582490838E+02  0.16944524745E+03  0.12509189893E+03 0.  0.
         23    2    1    2    0    0  0.39255245545E+02 -0.10535224474E+03  0.59311934734E+02  0.15675382710E+03  0.91726696950E+02 0.  0.
          5    1    3    3  502    0 -0.76774627694E+02  0.58399773879E+02  0.17564198557E+02  0.98136896821E+02  0.41800000000E+01 0.  1.
         -5    1    3    3    0  502  0.37519382149E+02  0.46952470863E+02 -0.38146689395E+02  0.71308350625E+02  0.41800000000E+01 0.  1.
        -11    1    4    4    0    0  0.50349346705E+02 -0.11692126088E+03  0.59952521722E+02  0.14071226961E+03  0.00000000000E+00 0.  1.
         11    1    4    4    0    0 -0.11094101159E+02  0.11569016136E+02 -0.64058698813E+00  0.16041557486E+02  0.00000000000E+00 0. -1.
</event>
<event>
 8    1  0.6692409E-009  0.2039356E+03  0.7561462E-02  0.1146460E+00
          1   -1    0    0  501    0  0.00000000000E+00  0.00000000000E+00  0.15326728744E+04  0.15326728744E+04  0.00000000000E+00 0. -1.
         -1   -1    0    0    0  501 -0.00000000000E+00 -0.00000000000E+00 -0.33165657613E+02  0.33165657613E+02  0.00000000000E+00 0.  1.
         25    2    1    2    0    0 -0.13860499719E+03 -0.13611496203E+03  0.65163920753E+03  0.69138459112E+03  0.12506145656E+03 0.  0.
         23    2    1    2    0    0  0.13860499719E+03  0.13611496203E+03  0.84786800924E+03  0.87445394087E+03  0.89726838150E+02 0.  0.
          5    1    3    3  502    0 -0.10764145081E+03 -0.95351132578E+02  0.26662889841E+03  0.30296363195E+03  0.41800000000E+01 0.  1.
         -5    1    3    3    0  502 -0.30963546379E+02 -0.40763829448E+02  0.38501030912E+03  0.38842095917E+03  0.41800000000E+01 0.  1.
        -11    1    4    4    0    0  0.12456588216E+03  0.65664025242E+02  0.51356913716E+03  0.53252387914E+03  0.00000000000E+00 0.  1.
         11    1    4    4    0    0  0.14039115029E+02  0.70450936783E+02  0.33429887208E+03  0.34193006173E+03  0.00000000000E+00 0. -1.
</event>
<event>
 8    1  0.6692409E-009  0.1184556E+03  0.7561462E-02  0.1245667E+00
          1   -1    0    0  501    0  0.00000000000E+00  0.00000000000E+00  0.82844577645E+03  0.82844577645E+03  0.00000000000E+00 0. -1.
         -1   -1    0    0    0  501 -0.00000000000E+00 -0.00000000000E+00 -0.28846563410E+02  0.28846563410E+02  0.00000000000E+00 0.  1.
         25    2    1    2    0    0 -0.77939568657E+02  0.70208426787E+02  0.52227329193E+03  0.54719575098E+03  0.12509995553E+03 0.  0.
         23    2    1    2    0    0  0.77939568657E+02 -0.70208426787E+02  0.27732592111E+03  0.31009658888E+03  0.90809847274E+02 0.  0.
          5    1    3    3  502    0 -0.35948559652E+02 -0.46262110927E+01  0.37442563414E+03  0.37619905458E+03  0.41800000000E+01 0. -1.
         -5    1    3    3    0  502 -0.41991009005E+02  0.74834637880E+02  0.14784765779E+03  0.17099669640E+03  0.41800000000E+01 0. -1.
        -11    1    4    4    0    0  0.71959861694E+02 -0.37273844567E+02  0.26013718301E+03  0.27246819111E+03  0.00000000000E+00 0. -1.
         11    1    4    4    0    0  0.59797069625E+01 -0.32934582220E+02  0.17188738107E+02  0.37628397774E+02  0.00000000000E+00 0.  1.
</event>
<event>
 8    1  0.6692409E-009  0.1788857E+03  0.7561462E-02  0.1168886E+00
         -1   -1    0    0    0  501 -0.00000000000E+00  0.00000000000E+00  0.14460910183E+03  0.14460910183E+03  0.00000000000E+00 0.  1.
          1   -1    0    0  501    0  0.00000000000E+00 -0.00000000000E+00 -0.28650703501E+03  0.28650703501E+03  0.00000000000E+00 0. -1.
         25    2    1    2    0    0  0.11279972065E+03  0.12023920683E+03 -0.21362669470E+02  0.20804571105E+03  0.12508161496E+03 0.  0.
         23    2    1    2    0    0 -0.11279972065E+03 -0.12023920683E+03 -0.12053526370E+03  0.22307042579E+03  0.89724139591E+02 0.  0.
          5    1    3    3  502    0  0.51117517068E+02  0.84044538220E+02 -0.70568031488E+02  0.12113547962E+03  0.41800000000E+01 0. -1.
         -5    1    3    3    0  502  0.61682203587E+02  0.36194668613E+02  0.49205362018E+02  0.86910231427E+02  0.41800000000E+01 0. -1.
        -11    1    4    4    0    0 -0.10187930960E+03 -0.44537885830E+02 -0.69551256938E+02  0.13115027389E+03  0.00000000000E+00 0.  1.
         11    1    4    4    0    0 -0.10920411050E+02 -0.75701321003E+02 -0.50984006764E+02  0.91920151897E+02  0.00000000000E+00 0. -1.
</event>
<event>
 8    1  0.6692409E-009  0.2108928E+03  0.7561462E-02  0.1140861E+00
         -1   -1    0    0    0  501 -0.00000000000E+00  0.00000000000E+00  0.22519064271E+03  0.22519064271E+03  0.00000000000E+00 0.  1.
          1   -1    0    0  501    0  0.00000000000E+00 -0.00000000000E+00 -0.22334517681E+03  0.22334517681E+03  0.00000000000E+00 0. -1.
         25    2    1    2    0    0  0.14100236679E+03  0.11345618625E+03 -0.74629558430E+02  0.23231682026E+03  0.12509020883E+03 0.  0.
         23    2    1    2    0    0 -0.14100236679E+03 -0.11345618625E+03  0.76475024331E+02  0.21621899926E+03  0.90267672277E+02 0.  0.
          5    1    3    3  502    0 -0.20625123053E+02  0.33573737076E+02 -0.11738423894E+02  0.41326196506E+02  0.41800000000E+01 0. -1.
         -5    1    3    3    0  502  0.16162748984E+03  0.79882449170E+02 -0.62891134537E+02  0.19099062375E+03  0.41800000000E+01 0. -1.
        -11    1    4    4    0    0 -0.99876667251E+02 -0.23050054115E+02  0.45803642023E+02  0.11227033125E+03  0.00000000000E+00 0.  1.
         11    1    4    4    0    0 -0.41125699535E+02 -0.90406132130E+02  0.30671382308E+02  0.10394866801E+03  0.00000000000E+00 0. -1.
</event>
<event>
 8    1  0.6692409E-009  0.1243544E+03  0.7561462E-02  0.1236082E+00
          1   -1    0    0  501    0  0.00000000000E+00  0.00000000000E+00  0.55959026703E+03  0.55959026703E+03  0.00000000000E+00 0. -1.
         -1   -1    0    0    0  501 -0.00000000000E+00 -0.00000000000E+00 -0.39750848976E+02  0.39750848976E+02  0.00000000000E+00 0.  1.
         25    2    1    2    0    0  0.64373786889E+02 -0.16909189200E+02  0.43764428611E+03  0.46001061665E+03  0.12508933267E+03 0.  0.
         23    2    1    2    0    0 -0.64373786889E+02  0.16909189200E+02  0.82195131945E+02  0.13933049936E+03  0.90703049661E+02 0.  0.
          5    1    3    3  502    0 -0.34304073449E+02  0.12231400372E+02  0.83362007041E+02  0.91066312258E+02  0.41800000000E+01 0. -1.
         -5    1    3    3    0  502  0.98677860338E+02 -0.29140589573E+02  0.35428227907E+03  0.36894430439E+03  0.41800000000E+01 0. -1.
        -11    1    4    4    0    0  0.21461308407E+02 -0.60960882483E+00  0.38676700634E+01  0.21815550719E+02  0.00000000000E+00 0.  1.
         11    1    4    4    0    0 -0.85835095296E+02  0.17518798025E+02  0.78327461882E+02  0.11751494864E+03  0.00000000000E+00 0. -1.
</event>
<event>
 8    1  0.6692409E-009  0.1260594E+03  0.7561462E-02  0.1233423E+00
          1   -1    0    0  501    0  0.00000000000E+00  0.00000000000E+00  0.16292397758E+03  0.16292397758E+03  0.00000000000E+00 0.  1.
         -1   -1    0    0    0  501 -0.00000000000E+00 -0.00000000000E+00 -0.14538698569E+03  0.14538698569E+03  0.00000000000E+00 0. -1.
         25    2    1    2    0    0  0.84835622766E+02 -0.54280508927E+02 -0.30358017886E+02  0.16343395148E+03  0.12508233571E+03 0.  0.
         23    2    1    2    0    0 -0.84835622766E+02  0.54280508927E+02  0.47895009778E+02  0.14487701179E+03  0.92476808143E+02 0.  0.
          5    1    3    3  502    0  0.30337620085E+01  0.10543540038E+02 -0.54893114046E+02  0.56134626730E+02  0.41800000000E+01 0. -1.
         -5    1    3    3    0  502  0.81801860757E+02 -0.64824048965E+02  0.24535096160E+02  0.10729932475E+03  0.41800000000E+01 0. -1.
        -11    1    4    4    0    0  0.15084453969E+02  0.29255572799E+02  0.18502399418E+02  0.37759344216E+02  0.00000000000E+00 0.  1.
         11    1    4    4    0    0 -0.99920076735E+02  0.25024936127E+02  0.29392610360E+02  0.10711766758E+03  0.00000000000E+00 0. -1.
</event>
<event>
 8    1  0.6692409E-009  0.1426712E+03  0.7561462E-02  0.1209779E+00
          1   -1    0    0  501    0  0.00000000000E+00  0.00000000000E+00  0.63175414826E+03  0.63175414826E+03  0.00000000000E+00 0. -1.
         -1   -1    0    0    0  501 -0.00000000000E+00 -0.00000000000E+00 -0.33143077310E+02  0.33143077310E+02  0.00000000000E+00 0.  1.
         25    2    1    2    0    0 -0.43646009199E+02  0.83939205985E+02  0.31424736574E+03  0.35121121699E+03  0.12508855920E+03 0.  0.
         23    2    1    2    0    0  0.43646009199E+02 -0.83939205985E+02  0.28436370521E+03  0.31368600858E+03  0.92657599351E+02 0.  0.
          5    1    3    3  502    0 -0.85678592038E+02  0.71057980887E+02  0.24421157486E+03  0.26841539352E+03  0.41800000000E+01 0.  1.
         -5    1    3    3    0  502  0.42032582839E+02  0.12881225098E+02  0.70035790876E+02  0.82795823469E+02  0.41800000000E+01 0.  1.
        -11    1    4    4    0    0  0.43244175813E+02  0.25344508628E+01  0.67353789503E+02  0.80081303332E+02  0.00000000000E+00 0.  1.
         11    1    4    4    0    0  0.40183338597E+00 -0.86473656848E+02  0.21700991570E+03  0.23360470524E+03  0.00000000000E+00 0. -1.
</event>
<event>
 8    1  0.6692409E-009  0.1480181E+03  0.7561462E-02  0.1202930E+00
         -2   -1    0    0    0  501 -0.00000000000E+00  0.00000000000E+00  0.23159655678E+02  0.23159655678E+02  0.00000000000E+00 0.  1.
          2   -1    0    0  501    0  0.00000000000E+00 -0.00000000000E+00 -0.18224852390E+04  0.18224852390E+04  0.00000000000E+00 0. -1.
         25    2    1    2    0    0 -0.53328639797E+02  0.11571661123E+03 -0.14867280204E+04  0.14974113972E+04  0.12508560238E+03 0.  0.
         23    2    1    2    0    0  0.53328639797E+02 -0.11571661123E+03 -0.31259756289E+03  0.34823349743E+03  0.85528091715E+02 0.  0.
          5    1    3    3  502    0 -0.20318727729E+02 -0.14672817811E+02 -0.73045926867E+02  0.77339007692E+02  0.41800000000E+01 0. -1.
         -5    1    3    3    0  502 -0.33009912068E+02  0.13038942904E+03 -0.14136820935E+04  0.14200723895E+04  0.41800000000E+01 0. -1.
        -11    1    4    4    0    0 -0.85677613011E+01 -0.23341892557E+02 -0.11763030524E+02  0.27506714980E+02  0.00000000000E+00 0. -1.
         11    1    4    4    0    0  0.61896401098E+02 -0.92374718674E+02 -0.30083453237E+03  0.32072678245E+03  0.00000000000E+00 0.  1.
</event>
<event>
 8    1  0.6692409E-009  0.1207662E+03  0.7561462E-02  0.1241838E+00
          2   -1    0    0  501    0  0.00000000000E+00  0.00000000000E+00  0.54640035856E+03  0.54640035856E+03  0.00000000000E+00 0. -1.
         -2   -1    0    0    0  501 -0.00000000000E+00 -0.00000000000E+00 -0.33012353330E+02  0.33012353330E+02  0.00000000000E+00 0.  1.
         25    2    1    2    0    0  0.58607948543E+02 -0.37987682544E+02  0.36139578184E+03  0.38875850968E+03  0.12509321348E+03 0.  0.
         23    2    1    2    0    0 -0.58607948543E+02  0.37987682544E+02  0.15199222338E+03  0.19065420220E+03  0.91484606311E+02 0.  0.
          5    1    3    3  502    0  0.97970694637E+02 -0.32323181263E+02  0.26420181213E+03  0.28366021044E+03  0.41800000000E+01 0.  1.
         -5    1    3    3    0  502 -0.39362746093E+02 -0.56645012809E+01  0.97193969718E+02  0.10509829925E+03  0.41800000000E+01 0.  1.
        -11    1    4    4    0    0 -0.35514654826E+02  0.57819152767E+02  0.50194549726E+02  0.84402831447E+02  0.00000000000E+00 0.  1.
         11    1    4    4    0    0 -0.23093293718E+02 -0.19831470223E+02  0.10179767366E+03  0.10625137076E+03  0.00000000000E+00 0. -1.
</event>
<event>
 8    1  0.6692409E-009  0.1528831E+03  0.7561462E-02  0.1196974E+00
          1   -1    0    0  501    0  0.00000000000E+00  0.00000000000E+00  0.44517381916E+03  0.44517381916E+03  0.00000000000E+00 0. -1.
         -1   -1    0    0    0  501 -0.00000000000E+00 -0.00000000000E+00 -0.85754342175E+02  0.85754342175E+02  0.00000000000E+00 0.  1.
         25    2    1    2    0    0 -0.13205084592E+03  0.15192742141E+02  0.64437199301E+02  0.19356509169E+03  0.12508815590E+03 0.  0.
         23    2    1    2    0    0  0.13205084592E+03 -0.15192742141E+02  0.29498227768E+03  0.33736306964E+03  0.95556534519E+02 0.  0.
          5    1    3    3  502    0 -0.13604201447E+03  0.87314026344E+01  0.92103274608E+02  0.16457263651E+03  0.41800000000E+01 0. -1.
         -5    1    3    3    0  502  0.39911685561E+01  0.64613395069E+01 -0.27666075308E+02  0.28992455184E+02  0.41800000000E+01 0. -1.
        -11    1    4    4    0    0  0.13525855616E+03  0.97063718709E+01  0.22153558196E+03  0.25974430647E+03  0.00000000000E+00 0.  1.
         11    1    4    4    0    0 -0.32077102424E+01 -0.24899114012E+02  0.73446695721E+02  0.77618763170E+02  0.00000000000E+00 0. -1.
</event>
<event>
 8    1  0.6692409E-009  0.9734206E+02  0.7561462E-02  0.1285987E+00
          1   -1    0    0  501    0  0.00000000000E+00  0.00000000000E+00  0.12266443724E+03  0.12266443724E+03  0.00000000000E+00 0. -1.
         -1   -1    0    0    0  501 -0.00000000000E+00 -0.00000000000E+00 -0.16024976050E+03  0.16024976050E+03  0.00000000000E+00 0.  1.
         25    2    1    2    0    0  0.14722865153E+02 -0.85107543736E+02 -0.10334964228E+02  0.15236074629E+03  0.12508768431E+03 0.  0.
         23    2    1    2    0    0 -0.14722865153E+02  0.85107543736E+02 -0.27250359028E+02  0.13055345145E+03  0.94029595650E+02 0.  0.
          5    1    3    3  502    0  0.16348139027E+02 -0.92267347242E+02 -0.53766644852E+02  0.10811498284E+03  0.41800000000E+01 0. -1.
         -5    1    3    3    0  502 -0.16252738741E+01  0.71598035057E+01  0.43431680624E+02  0.44245763450E+02  0.41800000000E+01 0. -1.
        -11    1    4    4    0    0 -0.25034640798E+02  0.51124773026E+02 -0.59670061054E+02  0.82468126225E+02  0.00000000000E+00 0.  1.
         11    1    4    4    0    0  0.10311775645E+02  0.33982770710E+02  0.32419702026E+02  0.48085325221E+02  0.00000000000E+00 0. -1.
</event>
<event>
 8    1  0.6692409E-009  0.1146423E+03  0.7561462E-02  0.1252207E+00
          2   -1    0    0  501    0  0.00000000000E+00  0.00000000000E+00  0.54676162222E+03  0.54676162222E+03  0.00000000000E+00 0. -1.
         -2   -1    0    0    0  501 -0.00000000000E+00 -0.00000000000E+00 -0.26716101083E+02  0.26716101083E+02  0.00000000000E+00 0.  1.
         25    2    1    2    0    0  0.40215714545E+02 -0.27932317790E+02  0.34945780460E+03  0.37438852202E+03  0.12509392533E+03 0.  0.
         23    2    1    2    0    0 -0.40215714545E+02  0.27932317790E+02  0.17058771655E+03  0.19908920129E+03  0.90215425286E+02 0.  0.
          5    1    3    3  502    0  0.62886807717E+02 -0.64162646151E+02  0.26092120620E+03  0.27598721708E+03  0.41800000000E+01 0. -1.
         -5    1    3    3    0  502 -0.22671093172E+02  0.36230328361E+02  0.88536598395E+02  0.98401304941E+02  0.41800000000E+01 0. -1.
        -11    1    4    4    0    0  0.27039686899E+01  0.48663226661E+02  0.51944465215E+02  0.71229548238E+02  0.00000000000E+00 0.  1.
         11    1    4    4    0    0 -0.42919683235E+02 -0.20730908871E+02  0.11864325133E+03  0.12785965305E+03  0.00000000000E+00 0. -1.
</event>
<event>
 8    1  0.6692409E-009  0.1031243E+03  0.7561462E-02  0.1273860E+00
         -1   -1    0    0    0  501 -0.00000000000E+00  0.00000000000E+00  0.10585406238E+03  0.10585406238E+03  0.00000000000E+00 0.  1.
          1   -1    0    0  501    0  0.00000000000E+00 -0.00000000000E+00 -0.15372820541E+03  0.15372820541E+03  0.00000000000E+00 0. -1.
         25    2    1    2    0    0  0.60987709062E+02 -0.11293302025E+02 -0.14567007950E+01  0.13962897208E+03  0.12508832296E+03 0.  0.
         23    2    1    2    0    0 -0.60987709062E+02  0.11293302025E+02 -0.46417442235E+02  0.11995329571E+03  0.91581520411E+02 0.  0.
          5    1    3    3  502    0 -0.70048678022E+01 -0.26292734398E+02  0.47158862883E+02  0.54605922787E+02  0.41800000000E+01 0. -1.
         -5    1    3    3    0  502  0.67992576864E+02  0.14999432373E+02 -0.48615563678E+02  0.85023049297E+02  0.41800000000E+01 0. -1.
        -11    1    4    4    0    0 -0.47896938287E+02 -0.35985674292E+02 -0.35696929191E+02  0.69737767424E+02  0.00000000000E+00 0. -1.
         11    1    4    4    0    0 -0.13090770775E+02  0.47278976318E+02 -0.10720513044E+02  0.50215528286E+02  0.00000000000E+00 0.  1.
</event>
<event>
 8    1  0.6692409E-009  0.1638746E+03  0.7561462E-02  0.1184391E+00
         -1   -1    0    0    0  501 -0.00000000000E+00  0.00000000000E+00  0.56226088855E+03  0.56226088855E+03  0.00000000000E+00 0.  1.
          1   -1    0    0  501    0  0.00000000000E+00 -0.00000000000E+00 -0.50805964947E+02  0.50805964947E+02  0.00000000000E+00 0. -1.
         25    2    1    2    0    0 -0.45537444784E+02 -0.12056407857E+03  0.28030248143E+03  0.33290472374E+03  0.12508684213E+03 0.  0.
         23    2    1    2    0    0  0.45537444784E+02  0.12056407857E+03  0.23115244217E+03  0.28016212975E+03  0.91923944151E+02 0.  0.
          5    1    3    3  502    0 -0.84160310929E+02 -0.10572894535E+03  0.23711173209E+03  0.27294873825E+03  0.41800000000E+01 0. -1.
         -5    1    3    3    0  502  0.38622866145E+02 -0.14835133224E+02  0.43190749343E+02  0.59955985488E+02  0.41800000000E+01 0. -1.
        -11    1    4    4    0    0  0.67464381942E+02  0.78333263811E+02  0.11497843661E+03  0.15462077459E+03  0.00000000000E+00 0.  1.
         11    1    4    4    0    0 -0.21926937158E+02  0.42230814761E+02  0.11617400555E+03  0.12554135516E+03  0.00000000000E+00 0. -1.
</event>
<event>
 8    1  0.6692409E-009  0.1142070E+03  0.7561462E-02  0.1252972E+00
         -2   -1    0    0    0  501 -0.00000000000E+00  0.00000000000E+00  0.26690835421E+02  0.26690835421E+02  0.00000000000E+00 0. -1.
          2   -1    0    0  501    0  0.00000000000E+00 -0.00000000000E+00 -0.14557301762E+04  0.14557301762E+04  0.00000000000E+00 0.  1.
         25    2    1    2    0    0  0.84866178451E+02 -0.60556494595E+02 -0.12268924946E+04  0.12376516619E+04  0.12508831140E+03 0.  0.
         23    2    1    2    0    0 -0.84866178451E+02  0.60556494595E+02 -0.20214684618E+03  0.24476934971E+03  0.90439647577E+02 0.  0.
          5    1    3    3  502    0  0.42687233778E+02 -0.41725583834E+02 -0.17907614771E+03  0.18880933068E+03  0.41800000000E+01 0.  1.
         -5    1    3    3    0  502  0.42178944673E+02 -0.18830910761E+02 -0.10478163469E+04  0.10488423312E+04  0.41800000000E+01 0.  1.
        -11    1    4    4    0    0 -0.68497947053E+02  0.10210603551E+02 -0.16815015268E+03  0.18185350979E+03  0.00000000000E+00 0.  1.
         11    1    4    4    0    0 -0.16368231398E+02  0.50345891044E+02 -0.33996693499E+02  0.62915839921E+02  0.00000000000E+00 0. -1.
</event>
<event>
 8    1  0.6692409E-009  0.1060298E+03  0.7561462E-02  0.1268104E+00
          1   -1    0    0  501    0  0.00000000000E+00  0.00000000000E+00  0.39414333541E+02  0.39414333541E+02  0.00000000000E+00 0. -1.
         -1   -1    0    0    0  501 -0.00000000000E+00 -0.00000000000E+00 -0.52976438378E+03  0.52976438378E+03  0.00000000000E+00 0.  1.
         25    2    1    2    0    0  0.28318389579E+02 -0.45767577284E+02 -0.42276081588E+03  0.44416403470E+03  0.12513344858E+03 0.  0.
         23    2    1    2    0    0 -0.28318389579E+02  0.45767577284E+02 -0.67589234359E+02  0.12501468263E+03  0.90353549750E+02 0.  0.
          5    1    3    3  502    0 -0.31995120407E+02  0.25291977974E+02 -0.97057726408E+02  0.10536150405E+03  0.41800000000E+01 0.  1.
         -5    1    3    3    0  502  0.60313509986E+02 -0.71059555258E+02 -0.32570308948E+03  0.33880253065E+03  0.41800000000E+01 0.  1.
        -11    1    4    4    0    0  0.16014031284E+02  0.32569371113E+01 -0.61105044312E+02  0.63252535741E+02  0.00000000000E+00 0.  1.
         11    1    4    4    0    0 -0.44332420863E+02  0.42510640173E+02 -0.64841900471E+01  0.61762146886E+02  0.00000000000E+00 0. -1.
</event>
<event>
 8    1  0.6692409E-009  0.1284894E+03  0.7561462E-02  0.1229715E+00
         -1   -1    0    0    0  501 -0.00000000000E+00  0.00000000000E+00  0.26291028340E+02  0.26291028340E+02  0.00000000000E+00 0.  1.
          1   -1    0    0  501    0  0.00000000000E+00 -0.00000000000E+00 -0.13048305464E+04  0.13048305464E+04  0.00000000000E+00 0. -1.
         25    2    1    2    0    0 -0.11911543664E+02 -0.99520612324E+02 -0.10720842999E+04  0.10840014762E+04  0.12509283478E+03 0.  0.
         23    2    1    2    0    0  0.11911543664E+02  0.99520612324E+02 -0.20645521821E+03  0.24712009852E+03  0.91642505513E+02 0.  0.
          5    1    3    3  502    0 -0.62094442558E+02 -0.48805168728E+02 -0.74578414745E+03  0.74996608676E+03  0.41800000000E+01 0. -1.
         -5    1    3    3    0  502  0.50182898894E+02 -0.50715443596E+02 -0.32630015240E+03  0.33403538946E+03  0.41800000000E+01 0. -1.
        -11    1    4    4    0    0 -0.11815564448E+02  0.51747964511E+02 -0.26307490014E+02  0.59241399588E+02  0.00000000000E+00 0.  1.
         11    1    4    4    0    0  0.23727108113E+02  0.47772647813E+02 -0.18014772820E+03  0.18787869893E+03  0.00000000000E+00 0. -1.
</event>
<event>
 8    1  0.6692409E-009  0.1858292E+03  0.7561462E-02  0.1162278E+00
         -1   -1    0    0    0  501 -0.00000000000E+00  0.00000000000E+00  0.67663939380E+02  0.67663939380E+02  0.00000000000E+00 0.  1.
          1   -1    0    0  501    0  0.00000000000E+00 -0.00000000000E+00 -0.59470082993E+03  0.59470082993E+03  0.00000000000E+00 0. -1.
         25    2    1    2    0    0 -0.12704642665E+03 -0.12146407930E+03 -0.27398696874E+03  0.34872816621E+03  0.12509259683E+03 0.  0.
         23    2    1    2    0    0  0.12704642665E+03  0.12146407930E+03 -0.25304992181E+03  0.31363660310E+03  0.58645876193E+02 0.  0.
          5    1    3    3  502    0 -0.29449384421E+02  0.10777341067E+01 -0.13820486415E+03  0.14137356411E+03  0.41800000000E+01 0. -1.
         -5    1    3    3    0  502 -0.97597042225E+02 -0.12254181341E+03 -0.13578210459E+03  0.20735460210E+03  0.41800000000E+01 0. -1.
        -11    1    4    4    0    0  0.13615538698E+02  0.48344271730E+02 -0.73564244022E+02  0.89074404302E+02  0.00000000000E+00 0. -1.
         11    1    4    4    0    0  0.11343088795E+03  0.73119807573E+02 -0.17948567779E+03  0.22456219880E+03  0.00000000000E+00 0.  1.
</event>
<event>
 8    1  0.6692409E-009  0.1105217E+03  0.7561462E-02  0.1259607E+00
         -3   -1    0    0    0  501 -0.00000000000E+00  0.00000000000E+00  0.16888234788E+03  0.16888234788E+03  0.00000000000E+00 0.  1.
          3   -1    0    0  501    0  0.00000000000E+00 -0.00000000000E+00 -0.74941446141E+02  0.74941446141E+02  0.00000000000E+00 0. -1.
         25    2    1    2    0    0 -0.20310050238E+02 -0.15604364770E+02  0.32326522707E+02  0.13171386495E+03  0.12509014273E+03 0.  0.
         23    2    1    2    0    0  0.20310050238E+02  0.15604364770E+02  0.61614379031E+02  0.11210992907E+03  0.90090566389E+02 0.  0.
          5    1    3    3  502    0  0.51216754801E+02  0.82375414109E+01  0.10267726640E+02  0.53046316283E+02  0.41800000000E+01 0.  1.
         -5    1    3    3    0  502 -0.71526805039E+02 -0.23841906181E+02  0.22058796067E+02  0.78667548667E+02  0.41800000000E+01 0.  1.
        -11    1    4    4    0    0  0.32396332591E+02  0.48566831147E+02  0.35160207443E+02  0.68150565959E+02  0.00000000000E+00 0. -1.
         11    1    4    4    0    0 -0.12086282353E+02 -0.32962466378E+02  0.26454171588E+02  0.43959363112E+02  0.00000000000E+00 0.  1.
</event>
<event>
 8    1  0.6692409E-009  0.1416298E+03  0.7561462E-02  0.1211153E+00
          1   -1    0    0  501    0  0.00000000000E+00  0.00000000000E+00  0.10229637253E+03  0.10229637253E+03  0.00000000000E+00 0. -1.
         -1   -1    0    0    0  501 -0.00000000000E+00 -0.00000000000E+00 -0.30200955964E+03  0.30200955964E+03  0.00000000000E+00 0.  1.
         25    2    1    2    0    0 -0.11058144499E+03 -0.62156645742E+02 -0.16919049677E+03  0.24569395961E+03  0.12509353704E+03 0.  0.
         23    2    1    2    0    0  0.11058144499E+03  0.62156645742E+02 -0.30522690342E+02  0.15861197255E+03  0.90191011890E+02 0.  0.
          5    1    3    3  502    0 -0.68838318933E+01 -0.28602101139E+02  0.13722406287E+02  0.32729866566E+02  0.41800000000E+01 0.  1.
         -5    1    3    3    0  502 -0.10369761309E+03 -0.33554544603E+02 -0.18291290305E+03  0.21296409305E+03  0.41800000000E+01 0.  1.
        -11    1    4    4    0    0  0.96719881926E+02  0.77395151818E+02 -0.25851723787E+01  0.12390088055E+03  0.00000000000E+00 0. -1.
         11    1    4    4    0    0  0.13861563059E+02 -0.15238506077E+02 -0.27937517964E+02  0.34711092001E+02  0.00000000000E+00 0.  1.
</event>
<event>
 8    1  0.6692409E-009  0.1045451E+03  0.7561462E-02  0.1271018E+00
         -4   -1    0    0    0  501 -0.00000000000E+00  0.00000000000E+00  0.49531165022E+03  0.49531165022E+03  0.00000000000E+00 0.  1.
          4   -1    0    0  501    0  0.00000000000E+00 -0.00000000000E+00 -0.27929526852E+02  0.27929526852E+02  0.00000000000E+00 0. -1.
         25    2    1    2    0    0 -0.45958401423E+02 -0.43929933408E+01  0.26203714149E+03  0.29401039364E+03  0.12508866855E+03 0.  0.
         23    2    1    2    0    0  0.45958401423E+02  0.43929933408E+01  0.20534498188E+03  0.22923078343E+03  0.90822450065E+02 0.  0.
          5    1    3    3  502    0 -0.78430402487E+02 -0.27656038983E+01  0.92705481464E+02  0.12153499616E+03  0.41800000000E+01 0.  1.
         -5    1    3    3    0  502  0.32472001064E+02 -0.16273894425E+01  0.16933166002E+03  0.17247539748E+03  0.41800000000E+01 0.  1.
        -11    1    4    4    0    0  0.39159660508E+01 -0.37890175951E+02  0.11355585286E+03  0.11977450456E+03  0.00000000000E+00 0.  1.
         11    1    4    4    0    0  0.42042435372E+02  0.42283169292E+02  0.91789129015E+02  0.10945627886E+03  0.00000000000E+00 0. -1.
</event>
<event>
 8    1  0.6692409E-009  0.1088060E+03  0.7561462E-02  0.1262797E+00
          2   -1    0    0  501    0  0.00000000000E+00  0.00000000000E+00  0.10063302174E+03  0.10063302174E+03  0.00000000000E+00 0. -1.
         -2   -1    0    0    0  501 -0.00000000000E+00 -0.00000000000E+00 -0.14716895626E+03  0.14716895626E+03  0.00000000000E+00 0.  1.
         25    2    1    2    0    0  0.30932820796E+02  0.45060611752E+02 -0.17899549547E+02  0.13767679014E+03  0.12508879460E+03 0.  0.
         23    2    1    2    0    0 -0.30932820796E+02 -0.45060611752E+02 -0.28636384980E+02  0.11012518786E+03  0.91215219795E+02 0.  0.
          5    1    3    3  502    0 -0.35584062648E+02  0.83812526089E+01 -0.43900339254E+02  0.57281612202E+02  0.41800000000E+01 0. -1.
         -5    1    3    3    0  502  0.66516883444E+02  0.36679359143E+02  0.26000789707E+02  0.80395177937E+02  0.41800000000E+01 0. -1.
        -11    1    4    4    0    0  0.22667815128E+02 -0.45836326202E+02 -0.23490336152E+02  0.56272502476E+02  0.00000000000E+00 0. -1.
         11    1    4    4    0    0 -0.53600635924E+02  0.77571444934E+00 -0.51460488274E+01  0.53852685382E+02  0.00000000000E+00 0.  1.
</event>
<event>
 8    1  0.6692409E-009  0.1117764E+03  0.7561462E-02  0.1257315E+00
          1   -1    0    0  501    0  0.00000000000E+00  0.00000000000E+00  0.71297710574E+03  0.71297710574E+03  0.00000000000E+00 0. -1.
         -1   -1    0    0    0  501 -0.00000000000E+00 -0.00000000000E+00 -0.23756042026E+02  0.23756042026E+02  0.00000000000E+00 0.  1.
         25    2    1    2    0    0 -0.37663471279E+02  0.62459254621E+02  0.40097180004E+03  0.42631258754E+03  0.12507734532E+03 0.  0.
         23    2    1    2    0    0  0.37663471279E+02 -0.62459254621E+02  0.28824926368E+03  0.31042056023E+03  0.89182905560E+02 0.  0.
          5    1    3    3  502    0 -0.59892245748E+02 -0.28944411764E+01  0.28513842210E+03  0.29140496058E+03  0.41800000000E+01 0. -1.
         -5    1    3    3    0  502  0.22228774468E+02  0.65353695798E+02  0.11583337794E+03  0.13490762697E+03  0.41800000000E+01 0. -1.
        -11    1    4    4    0    0  0.42686335171E+02 -0.71887205850E+02  0.28783359013E+03  0.29972999380E+03  0.00000000000E+00 0. -1.
         11    1    4    4    0    0 -0.50228638914E+01  0.94279512294E+01  0.41567354731E+00  0.10690566428E+02  0.00000000000E+00 0.  1.
</event>
<event>
 8    1  0.6692409E-009  0.1129572E+03  0.7561462E-02  0.1255190E+00
          1   -1    0    0  501    0  0.00000000000E+00  0.00000000000E+00  0.13029612511E+03  0.13029612511E+03  0.00000000000E+00 0. -1.
         -1   -1    0    0    0  501 -0.00000000000E+00 -0.00000000000E+00 -0.13164371353E+03  0.13164371353E+03  0.00000000000E+00 0.  1.
         25    2    1    2    0    0 -0.38601086081E+02  0.59778302949E+02  0.10280272481E+02  0.14426703428E+03  0.12507519269E+03 0.  0.
         23    2    1    2    0    0  0.38601086081E+02 -0.59778302949E+02 -0.11627860894E+02  0.11767280436E+03  0.92995657896E+02 0.  0.
          5    1    3    3  502    0 -0.17776301315E+02  0.97962243896E+02  0.12914484941E+01  0.99658107331E+02  0.41800000000E+01 0. -1.
         -5    1    3    3    0  502 -0.20824784766E+02 -0.38183940947E+02  0.89888239873E+01  0.44608926948E+02  0.41800000000E+01 0. -1.
        -11    1    4    4    0    0 -0.81804567807E+01 -0.18315776389E+02  0.34552713207E+02  0.39953442003E+02  0.00000000000E+00 0. -1.
         11    1    4    4    0    0  0.46781542862E+02 -0.41462526561E+02 -0.46180574102E+02  0.77719362360E+02  0.00000000000E+00 0.  1.
</event>
<event>
 8    1  0.6692409E-009  0.1202423E+03  0.7561462E-02  0.1242698E+00
         -1   -1    0    0    0  501 -0.00000000000E+00  0.00000000000E+00  0.12249821043E+03  0.12249821043E+03  0.00000000000E+00 0.  1.
          1   -1    0    0  501    0  0.00000000000E+00 -0.00000000000E+00 -0.23213036233E+03  0.23213036233E+03  0.00000000000E+00 0. -1.
         25    2    1    2    0    0  0.90833908716E+02 -0.32446418035E+01  0.37572120335E+02  0.15912100497E+03  0.12508598371E+03 0.  0.
         23    2    1    2    0    0 -0.90833908716E+02  0.32446418035E+01 -0.14720427223E+03  0.19550756780E+03  0.91064727699E+02 0.  0.
          5    1    3    3  502    0  0.19079190693E+02 -0.56387578155E+02 -0.54402471466E+01  0.59921975741E+02  0.41800000000E+01 0. -1.
         -5    1    3    3    0  502  0.71754718024E+02  0.53142936352E+02  0.43012367481E+02  0.99199029225E+02  0.41800000000E+01 0. -1.
        -11    1    4    4    0    0 -0.46899627944E+02 -0.32373148623E+01 -0.58892604558E+01  0.47378673446E+02  0.00000000000E+00 0.  1.
         11    1    4    4    0    0 -0.43934280772E+02  0.64819566658E+01 -0.14131501178E+03  0.14812889436E+03  0.00000000000E+00 0. -1.
</event>
<event>
 8    1  0.6692409E-009  0.1552226E+03  0.7561462E-02  0.1194198E+00
          3   -1    0    0  501    0  0.00000000000E+00  0.00000000000E+00  0.30272192010E+03  0.30272192010E+03  0.00000000000E+00 0. -1.
         -3   -1    0    0    0  501 -0.00000000000E+00 -0.00000000000E+00 -0.81189861355E+02  0.81189861355E+02  0.00000000000E+00 0.  1.
         25    2    1    2    0    0 -0.40149119526E+02  0.10571251890E+03  0.11975353265E+03  0.20682299964E+03  0.12509099147E+03 0.  0.
         23    2    1    2    0    0  0.40149119526E+02 -0.10571251890E+03  0.10177852610E+03  0.17708878182E+03  0.90633767553E+02 0.  0.
          5    1    3    3  502    0 -0.67358616793E+02  0.11760323207E+03  0.81440000782E+02  0.15816968603E+03  0.41800000000E+01 0. -1.
         -5    1    3    3    0  502  0.27209497267E+02 -0.11890713175E+02  0.38313531864E+02  0.48653313610E+02  0.41800000000E+01 0. -1.
        -11    1    4    4    0    0  0.62944712158E+02 -0.38246972158E+02  0.54136781333E+02  0.91409292532E+02  0.00000000000E+00 0. -1.
         11    1    4    4    0    0 -0.22795592632E+02 -0.67465546740E+02  0.47641744769E+02  0.85679489290E+02  0.00000000000E+00 0.  1.
</event>
<event>
 8    1  0.6692409E-009  0.1372275E+03  0.7561462E-02  0.1217109E+00
         -1   -1    0    0    0  501 -0.00000000000E+00  0.00000000000E+00  0.63192523973E+03  0.63192523973E+03  0.00000000000E+00 0.  1.
          1   -1    0    0  501    0  0.00000000000E+00 -0.00000000000E+00 -0.34189783264E+02  0.34189783264E+02  0.00000000000E+00 0. -1.
         25    2    1    2    0    0 -0.10227488458E+03 -0.24341473763E+02  0.27268977685E+03  0.31789884450E+03  0.12508917450E+03 0.  0.
         23    2    1    2    0    0  0.10227488458E+03  0.24341473763E+02  0.32504567962E+03  0.34821617850E+03  0.67432586808E+02 0.  0.
          5    1    3    3  502    0 -0.27502931417E+02  0.42926918109E+02  0.41942547429E+02  0.66149687979E+02  0.41800000000E+01 0. -1.
         -5    1    3    3    0  502 -0.74771953166E+02 -0.67268391872E+02  0.23074722942E+03  0.25174915652E+03  0.41800000000E+01 0. -1.
        -11    1    4    4    0    0  0.30039418077E+02 -0.21628134475E+02  0.70037174532E+02  0.79217098253E+02  0.00000000000E+00 0. -1.
         11    1    4    4    0    0  0.72235466505E+02  0.45969608238E+02  0.25500850509E+03  0.26899908024E+03  0.00000000000E+00 0.  1.
</event>
<event>
 8    1  0.6692409E-009  0.1111808E+03  0.7561462E-02  0.1258399E+00
          2   -1    0    0  501    0  0.00000000000E+00  0.00000000000E+00  0.66475631223E+02  0.66475631223E+02  0.00000000000E+00 0. -1.
         -2   -1    0    0    0  501 -0.00000000000E+00 -0.00000000000E+00 -0.26808016409E+03  0.26808016409E+03  0.00000000000E+00 0.  1.
         25    2    1    2    0    0 -0.49752127937E+02 -0.86757577213E+01 -0.18451086695E+03  0.22856544808E+03  0.12508941214E+03 0.  0.
         23    2    1    2    0    0  0.49752127937E+02  0.86757577213E+01 -0.17093665924E+02  0.10599034724E+03  0.91603587736E+02 0.  0.
          5    1    3    3  502    0 -0.52603484749E+02  0.43751456603E+02 -0.15181124948E+03  0.16656963838E+03  0.41800000000E+01 0. -1.
         -5    1    3    3    0  502  0.28513568118E+01 -0.52427214324E+02 -0.32699617465E+02  0.61995809695E+02  0.41800000000E+01 0. -1.
        -11    1    4    4    0    0  0.74835123115E+02  0.12168790484E+02 -0.24374010629E+02  0.79639610168E+02  0.00000000000E+00 0.  1.
         11    1    4    4    0    0 -0.25082995178E+02 -0.34930327625E+01  0.72803447049E+01  0.26350737068E+02  0.00000000000E+00 0. -1.
</event>
<event>
 8    1  0.6692409E-009  0.1271232E+03  0.7561462E-02  0.1231788E+00
         -1   -1    0    0    0  501 -0.00000000000E+00  0.00000000000E+00  0.74529580381E+02  0.74529580381E+02  0.00000000000E+00 0.  1.
          1   -1    0    0  501    0  0.00000000000E+00 -0.00000000000E+00 -0.26608140891E+03  0.26608140891E+03  0.00000000000E+00 0. -1.
         25    2    1    2    0    0  0.41719596762E+02  0.76318574961E+02 -0.13999662526E+03  0.20690893745E+03  0.12508878317E+03 0.  0.
         23    2    1    2    0    0 -0.41719596762E+02 -0.76318574961E+02 -0.51555203269E+02  0.13370205184E+03  0.87482855713E+02 0.  0.
          5    1    3    3  502    0 -0.57085836367E+00  0.87178497697E+02 -0.13764369845E+03  0.16298366931E+03  0.41800000000E+01 0.  1.
         -5    1    3    3    0  502  0.42290455125E+02 -0.10859922736E+02 -0.23529268113E+01  0.43925268139E+02  0.41800000000E+01 0.  1.
        -11    1    4    4    0    0  0.26551109950E+02 -0.32559071386E+02 -0.21733340200E+02  0.47301085033E+02  0.00000000000E+00 0. -1.
         11    1    4    4    0    0 -0.68270706711E+02 -0.43759503575E+02 -0.29821863069E+02  0.86400966805E+02  0.00000000000E+00 0.  1.
</event>
<event>
 8    1  0.6692409E-009  0.8708607E+02  0.7561462E-02  0.1310066E+00
         -2   -1    0    0    0  501 -0.00000000000E+00  0.00000000000E+00  0.21441710302E+03  0.21441710302E+03  0.00000000000E+00 0.  1.
          2   -1    0    0  501    0  0.00000000000E+00 -0.00000000000E+00 -0.14890483627E+03  0.14890483627E+03  0.00000000000E+00 0. -1.
         25    2    1    2    0    0 -0.22935292081E+02 -0.19657003559E+02  0.17520260697E+03  0.21738217196E+03  0.12508648921E+03 0.  0.
         23    2    1    2    0    0  0.22935292081E+02  0.19657003559E+02 -0.10969034023E+03  0.14593976733E+03  0.91400325701E+02 0.  0.
          5    1    3    3  502    0 -0.58685492464E+02  0.15613259387E+02  0.39345126910E+02  0.72479461270E+02  0.41800000000E+01 0.  1.
         -5    1    3    3    0  502  0.35750200383E+02 -0.35270262945E+02  0.13585748006E+03  0.14490271069E+03  0.41800000000E+01 0.  1.
        -11    1    4    4    0    0 -0.18402229290E+02  0.53469379304E+01  0.77087211980E+01  0.20655657108E+02  0.00000000000E+00 0.  1.
         11    1    4    4    0    0  0.41337521370E+02  0.14310065628E+02 -0.11739906143E+03  0.12528411023E+03  0.00000000000E+00 0. -1.
</event>
<event>
 8    1  0.6692409E-009  0.1124964E+03  0.7561462E-02  0.1256016E+00
          2   -1    0    0  501    0  0.00000000000E+00  0.00000000000E+00  0.90461053944E+03  0.90461053944E+03  0.00000000000E+00 0. -1.
         -2   -1    0    0    0  501 -0.00000000000E+00 -0.00000000000E+00 -0.21915339915E+02  0.21915339915E+02  0.00000000000E+00 0.  1.
         25    2    1    2    0    0  0.94790788547E+01 -0.31404250334E+02  0.75603491833E+03  0.76701487129E+03  0.12508770995E+03 0.  0.
         23    2    1    2    0    0 -0.94790788547E+01  0.31404250334E+02  0.12666028120E+03  0.15951100806E+03  0.91240643272E+02 0.  0.
          5    1    3    3  502    0  0.62539485463E+02  0.75405280065E+01  0.39290331368E+03  0.39794287669E+03  0.41800000000E+01 0. -1.
         -5    1    3    3    0  502 -0.53060406608E+02 -0.38944778341E+02  0.36313160465E+03  0.36907199461E+03  0.41800000000E+01 0. -1.
        -11    1    4    4    0    0  0.15576286403E+02  0.57595612147E+02  0.89809224010E+02  0.10782194560E+03  0.00000000000E+00 0. -1.
         11    1    4    4    0    0 -0.25055365258E+02 -0.26191361812E+02  0.36851057186E+02  0.51689062456E+02  0.00000000000E+00 0.  1.
</event>
<event>
 8    1  0.6692409E-009  0.1482413E+03  0.7561462E-02  0.1202651E+00
         -4   -1    0    0    0  501 -0.00000000000E+00  0.00000000000E+00  0.30918128580E+02  0.30918128580E+02  0.00000000000E+00 0. -1.
          4   -1    0    0  501    0  0.00000000000E+00 -0.00000000000E+00 -0.93306354514E+03  0.93306354514E+03  0.00000000000E+00 0.  1.
         25    2    1    2    0    0 -0.10768833098E+03 -0.18011138266E+02 -0.66764183969E+03  0.68797828928E+03  0.12508925886E+03 0.  0.
         23    2    1    2    0    0  0.10768833098E+03  0.18011138266E+02 -0.23450357687E+03  0.27600338444E+03  0.96253638511E+02 0.  0.
          5    1    3    3  502    0 -0.13109052287E+03 -0.31468390363E+02 -0.48903460452E+03  0.50729409774E+03  0.41800000000E+01 0.  1.
         -5    1    3    3    0  502  0.23402191882E+02  0.13457252097E+02 -0.17860723517E+03  0.18068419155E+03  0.41800000000E+01 0.  1.
        -11    1    4    4    0    0  0.11489729168E+03  0.31372884717E+02 -0.23176277404E+03  0.26057557245E+03  0.00000000000E+00 0.  1.
         11    1    4    4    0    0 -0.72089606960E+01 -0.13361746451E+02 -0.27408028328E+01  0.15427811987E+02  0.00000000000E+00 0. -1.
</event>
<event>
 7    1  0.6692409E-009  0.9780387E+02  0.7561462E-02  0.1284983E+00
          2   -1    0    0  501    0  0.00000000000E+00  0.00000000000E+00  0.22787653786E+03  0.22787653786E+03  0.00000000000E+00 0. -1.
         -2   -1    0    0    0  501 -0.00000000000E+00 -0.00000000000E+00 -0.61741204180E+02  0.61741204180E+02  0.00000000000E+00 0.  1.
         23    2    1    2    0    0  0.16781475341E+02 -0.19149679709E+02  0.20193978997E+02  0.95518827875E+02  0.89820496231E+02 0.  0.
          5    1    1    2  502    0 -0.31429221398E+02  0.66278641710E+02  0.59794297152E+02  0.94728478698E+02  0.41800000000E+01 0.  1.
         -5    1    1    2    0  502  0.14647746056E+02 -0.47128962000E+02  0.86147057529E+02  0.99370435466E+02  0.41800000000E+01 0.  1.
        -11    1    3    3    0    0 -0.11790553549E+02 -0.37056257227E+02  0.40508587918E+02  0.56152729656E+02  0.00000000000E+00 0. -1.
         11    1    3    3    0    0  0.28572028891E+02  0.17906577518E+02 -0.20314608921E+02  0.39366098219E+02  0.00000000000E+00 0.  1.
</event>
<event>
 8    1  0.6692409E-009  0.8637167E+02  0.7561462E-02  0.1311884E+00
         -1   -1    0    0    0  501 -0.00000000000E+00  0.00000000000E+00  0.24535574415E+02  0.24535574415E+02  0.00000000000E+00 0.  1.
          1   -1    0    0  501    0  0.00000000000E+00 -0.00000000000E+00 -0.79469138288E+03  0.79469138288E+03  0.00000000000E+00 0. -1.
         25    2    1    2    0    0  0.36325126873E+01 -0.24883955201E+02 -0.65175571623E+03  0.66412867949E+03  0.12509589481E+03 0.  0.
         23    2    1    2    0    0 -0.36325126873E+01  0.24883955201E+02 -0.11840009223E+03  0.15509827781E+03  0.96976737229E+02 0.  0.
          5    1    3    3  502    0 -0.32148235538E+02 -0.80664776545E+01 -0.58829823725E+03  0.58924601438E+03  0.41800000000E+01 0.  1.
         -5    1    3    3    0  502  0.35780748225E+02 -0.16817477546E+02 -0.63457478979E+02  0.74882665103E+02  0.41800000000E+01 0.  1.
        -11    1    4    4    0    0  0.18544525269E+02 -0.32855502539E+02 -0.53287201839E+02  0.65290959132E+02  0.00000000000E+00 0.  1.
         11    1    4    4    0    0 -0.22177037956E+02  0.57739457739E+02 -0.65112890392E+02  0.89807318675E+02  0.00000000000E+00 0. -1.
</event>
<event>
 8    1  0.6692409E-009  0.9665106E+02  0.7561462E-02  0.1287500E+00
          2   -1    0    0  501    0  0.00000000000E+00  0.00000000000E+00  0.48613312651E+03  0.48613312651E+03  0.00000000000E+00 0. -1.
         -2   -1    0    0    0  501 -0.00000000000E+00 -0.00000000000E+00 -0.27673003808E+02  0.27673003808E+02  0.00000000000E+00 0.  1.
         25    2    1    2    0    0  0.19675636930E+02 -0.34014518762E+02  0.23721668044E+03  0.27104533540E+03  0.12509876974E+03 0.  0.
         23    2    1    2    0    0 -0.19675636930E+02  0.34014518762E+02  0.22124344227E+03  0.24276079492E+03  0.91869606655E+02 0.  0.
          5    1    3    3  502    0 -0.44301302486E+01 -0.67375505889E+02  0.21214595009E+03  0.22267119568E+03  0.41800000000E+01 0. -1.
         -5    1    3    3    0  502  0.24105767179E+02  0.33360987126E+02  0.25070730345E+02  0.48374139717E+02  0.41800000000E+01 0. -1.
        -11    1    4    4    0    0 -0.93327537993E+01  0.57692770889E+02  0.79436425229E+02  0.98618972615E+02  0.00000000000E+00 0. -1.
         11    1    4    4    0    0 -0.10342883131E+02 -0.23678252127E+02  0.14180701704E+03  0.14414182230E+03  0.00000000000E+00 0.  1.
</event>
<event>
 8    1  0.6692409E-009  0.7839486E+02  0.7561462E-02  0.1333669E+00
         -1   -1    0    0    0  501 -0.00000000000E+00  0.00000000000E+00  0.16459240848E+03  0.16459240848E+03  0.00000000000E+00 0.  1.
          1   -1    0    0  501    0  0.00000000000E+00 -0.00000000000E+00 -0.79812806308E+02  0.79812806308E+02  0.00000000000E+00 0. -1.
         25    2    1    2    0    0 -0.36935365252E+02 -0.33381830786E+01  0.42409442552E+02  0.13719227289E+03  0.12509114377E+03 0.  0.
         23    2    1    2    0    0  0.36935365252E+02  0.33381830786E+01  0.42370159625E+02  0.10721294191E+03  0.91236066403E+02 0.  0.
          5    1    3    3  502    0 -0.62243438300E+02  0.35387742997E+02 -0.36003710298E+01  0.71812067491E+02  0.41800000000E+01 0. -1.
         -5    1    3    3    0  502  0.25308073048E+02 -0.38725926075E+02  0.46009813581E+02  0.65380205396E+02  0.41800000000E+01 0. -1.
        -11    1    4    4    0    0  0.24090092228E+02  0.73051866525E+01  0.71136975427E+02  0.75459708246E+02  0.00000000000E+00 0.  1.
         11    1    4    4    0    0  0.12845273024E+02 -0.39670035739E+01 -0.28766815802E+02  0.31753233659E+02  0.00000000000E+00 0. -1.
</event>
<event>
 8    1  0.6692409E-009  0.1004603E+03  0.7561462E-02  0.1279331E+00
         -2   -1    0    0    0  501 -0.00000000000E+00  0.00000000000E+00  0.27021700915E+02  0.27021700915E+02  0.00000000000E+00 0.  1.
          2   -1    0    0  501    0  0.00000000000E+00 -0.00000000000E+00 -0.46617492210E+03  0.46617492210E+03  0.00000000000E+00 0. -1.
         25    2    1    2    0    0  0.86487322126E+01  0.28279092361E+02 -0.24069143294E+03  0.27285673211E+03  0.12507566803E+03 0.  0.
         23    2    1    2    0    0 -0.86487322126E+01 -0.28279092361E+02 -0.19846178824E+03  0.22033989090E+03  0.91038884533E+02 0.  0.
          5    1    3    3  502    0  0.12541568873E+02  0.77574288036E+02 -0.13999205630E+03  0.16059361550E+03  0.41800000000E+01 0.  1.
         -5    1    3    3    0  502 -0.38928366609E+01 -0.49295195675E+02 -0.10069937665E+03  0.11226311661E+03  0.41800000000E+01 0.  1.
        -11    1    4    4    0    0 -0.34822033871E+02 -0.30560310863E+02 -0.44799049430E+02  0.64447354273E+02  0.00000000000E+00 0.  1.
         11    1    4    4    0    0  0.26173301658E+02  0.22812185024E+01 -0.15366273881E+03  0.15589253663E+03  0.00000000000E+00 0. -1.
</event>
<event>
 8    1  0.6692409E-009  0.7164837E+02  0.7561462E-02  0.1354576E+00
         -1   -1    0    0    0  501 -0.00000000000E+00  0.00000000000E+00  0.61333656343E+02  0.61333656343E+02  0.00000000000E+00 0. -1.
          1   -1    0    0  501    0  0.00000000000E+00 -0.00000000000E+00 -0.20992747951E+03  0.20992747951E+03  0.00000000000E+00 0.  1.
         25    2    1    2    0    0 -0.29431514926E+01 -0.28549434541E+02 -0.60863511792E+02  0.14204006969E+03  0.12508909616E+03 0.  0.
         23    2    1    2    0    0  0.29431514926E+01  0.28549434541E+02 -0.87730311378E+02  0.12922106616E+03  0.90430879969E+02 0.  0.
          5    1    3    3  502    0  0.38063332888E+02 -0.27018330934E+02 -0.82933908059E+02  0.95259188654E+02  0.41800000000E+01 0.  1.
         -5    1    3    3    0  502 -0.41006484381E+02 -0.15311036075E+01  0.22070396268E+02  0.46780881041E+02  0.41800000000E+01 0.  1.
        -11    1    4    4    0    0  0.25078717139E+02  0.14550197682E+02 -0.97152688439E+02  0.10138685899E+03  0.00000000000E+00 0.  1.
         11    1    4    4    0    0 -0.22135565646E+02  0.13999236860E+02  0.94223770604E+01  0.27834207167E+02  0.00000000000E+00 0. -1.
</event>
<event>
 8    1  0.6692409E-009  0.1117137E+03  0.7561462E-02  0.1257429E+00
         -2   -1    0    0    0  501 -0.00000000000E+00  0.00000000000E+00  0.62831392825E+02  0.62831392825E+02  0.00000000000E+00 0.  1.
          2   -1    0    0  501    0  0.00000000000E+00 -0.00000000000E+00 -0.32502723870E+03  0.32502723870E+03  0.00000000000E+00 0. -1.
         25    2    1    2    0    0  0.78501484057E+02 -0.48363185846E+02 -0.16052437824E+03  0.22342277663E+03  0.12509268709E+03 0.  0.
         23    2    1    2    0    0 -0.78501484057E+02  0.48363185846E+02 -0.10167146764E+03  0.16443585490E+03  0.90557066540E+02 0.  0.
          5    1    3    3  502    0  0.10233268265E+01  0.33303226673E+00  0.20281000956E+02  0.20735223849E+02  0.41800000000E+01 0. -1.
         -5    1    3    3    0  502  0.77478157231E+02 -0.48696218113E+02 -0.18080537919E+03  0.20268755278E+03  0.41800000000E+01 0. -1.
        -11    1    4    4    0    0  0.73567701346E+01  0.40639626174E+02 -0.45986134868E+02  0.61809593774E+02  0.00000000000E+00 0. -1.
         11    1    4    4    0    0 -0.85858254192E+02  0.77235596723E+01 -0.55685332773E+02  0.10262626113E+03  0.00000000000E+00 0.  1.
</event>
<event>
 8    1  0.6692409E-009  0.1988754E+03  0.7561462E-02  0.1150691E+00
          2   -1    0    0  501    0  0.00000000000E+00  0.00000000000E+00  0.40586001228E+03  0.40586001228E+03  0.00000000000E+00 0.  1.
         -2   -1    0    0    0  501 -0.00000000000E+00 -0.00000000000E+00 -0.10596998517E+03  0.10596998517E+03  0.00000000000E+00 0. -1.
         25    2    1    2    0    0  0.40578002561E+02  0.17189118803E+03  0.16275989180E+03  0.27079775567E+03  0.12508991679E+03 0.  0.
         23    2    1    2    0    0 -0.40578002561E+02 -0.17189118803E+03  0.13713013531E+03  0.24103224177E+03  0.89992848328E+02 0.  0.
          5    1    3    3  502    0 -0.40480080809E+02  0.23318617961E+02  0.40514322693E+02  0.61978041508E+02  0.41800000000E+01 0. -1.
         -5    1    3    3    0  502  0.81058083370E+02  0.14857257007E+03  0.12224556911E+03  0.20881971416E+03  0.41800000000E+01 0. -1.
        -11    1    4    4    0    0  0.79977063300E+01 -0.44483552616E+02  0.82644020274E+02  0.94195455553E+02  0.00000000000E+00 0.  1.
         11    1    4    4    0    0 -0.48575708891E+02 -0.12740763541E+03  0.54486115039E+02  0.14683678622E+03  0.00000000000E+00 0. -1.
</event>
<event>
 8    1  0.6692409E-009  0.1656033E+03  0.7561462E-02  0.1182512E+00
         -3   -1    0    0    0  501 -0.00000000000E+00  0.00000000000E+00  0.12397384682E+03  0.12397384682E+03  0.00000000000E+00 0.  1.
          3   -1    0    0  501    0  0.00000000000E+00 -0.00000000000E+00 -0.24710998510E+03  0.24710998510E+03  0.00000000000E+00 0. -1.
         25    2    1    2    0    0  0.23801389745E+01  0.13609191094E+03 -0.48088499418E+02  0.19101492533E+03  0.12509006612E+03 0.  0.
         23    2    1    2    0    0 -0.23801389745E+01 -0.13609191094E+03 -0.75047638871E+02  0.18006890659E+03  0.90917488609E+02 0.  0.
          5    1    3    3  502    0 -0.20380489680E+02  0.15338601578E+03 -0.32417162602E+02  0.15814859793E+03  0.41800000000E+01 0. -1.
         -5    1    3    3    0  502  0.22760628654E+02 -0.17294104847E+02 -0.15671336816E+02  0.32866327401E+02  0.41800000000E+01 0. -1.
        -11    1    4    4    0    0  0.25331248484E+02 -0.38574723579E+02 -0.62830374760E+02  0.77957279592E+02  0.00000000000E+00 0. -1.
         11    1    4    4    0    0 -0.27711387458E+02 -0.97517187357E+02 -0.12217264112E+02  0.10211162699E+03  0.00000000000E+00 0.  1.
</event>
<event>
 8    1  0.6692409E-009  0.1292434E+03  0.7561462E-02  0.1228583E+00
          1   -1    0    0  501    0  0.00000000000E+00  0.00000000000E+00  0.23203576416E+03  0.23203576416E+03  0.00000000000E+00 0. -1.
         -1   -1    0    0    0  501 -0.00000000000E+00 -0.00000000000E+00 -0.78917761951E+02  0.78917761951E+02  0.00000000000E+00 0.  1.
         25    2    1    2    0    0 -0.74096948764E+02  0.27601027519E+02  0.97844904273E+02  0.17740384011E+03  0.12508526155E+03 0.  0.
         23    2    1    2    0    0  0.74096948764E+02 -0.27601027519E+02  0.55273097938E+02  0.13354968601E+03  0.92348409516E+02 0.  0.
          5    1    3    3  502    0 -0.33977173157E+02  0.74131934670E+02  0.33267533073E+02  0.88171385327E+02  0.41800000000E+01 0. -1.
         -5    1    3    3    0  502 -0.40119775607E+02 -0.46530907151E+02  0.64577371201E+02  0.89232454781E+02  0.41800000000E+01 0. -1.
        -11    1    4    4    0    0  0.19061217558E+02 -0.51751366537E+02  0.47806606608E+02  0.72986338370E+02  0.00000000000E+00 0.  1.
         11    1    4    4    0    0  0.55035731206E+02  0.24150339017E+02  0.74664913299E+01  0.60563347635E+02  0.00000000000E+00 0. -1.
</event>
<event>
 8    1  0.6692409E-009  0.1113563E+03  0.7561462E-02  0.1258079E+00
         -2   -1    0    0    0  501 -0.00000000000E+00  0.00000000000E+00  0.91956851427E+02  0.91956851427E+02  0.00000000000E+00 0.  1.
          2   -1    0    0  501    0  0.00000000000E+00 -0.00000000000E+00 -0.14615646880E+03  0.14615646880E+03  0.00000000000E+00 0. -1.
         25    2    1    2    0    0 -0.28278070862E+02 -0.19162325763E+02 -0.10644155927E+02  0.13010337896E+03  0.12508695832E+03 0.  0.
         23    2    1    2    0    0  0.28278070862E+02  0.19162325763E+02 -0.43555461443E+02  0.10800994126E+03  0.92748181486E+02 0.  0.
          5    1    3    3  502    0  0.42990661053E+01  0.48526009850E+02 -0.22700185176E+02  0.53907572830E+02  0.41800000000E+01 0.  1.
         -5    1    3    3    0  502 -0.32577136968E+02 -0.67688335614E+02  0.12056029249E+02  0.76195806134E+02  0.41800000000E+01 0.  1.
        -11    1    4    4    0    0  0.12205442869E+02  0.56567593960E+02 -0.21715250012E+02  0.61809526815E+02  0.00000000000E+00 0.  1.
         11    1    4    4    0    0  0.16072627994E+02 -0.37405268196E+02 -0.21840211430E+02  0.46200414444E+02  0.00000000000E+00 0. -1.
</event>
<event>
 8    1  0.6692409E-009  0.1362747E+03  0.7561462E-02  0.1218431E+00
          2   -1    0    0  501    0  0.00000000000E+00  0.00000000000E+00  0.39951982717E+03  0.39951982717E+03  0.00000000000E+00 0. -1.
         -2   -1    0    0    0  501 -0.00000000000E+00 -0.00000000000E+00 -0.69288798110E+02  0.69288798110E+02  0.00000000000E+00 0.  1.
         25    2    1    2    0    0 -0.97159431435E+02 -0.33324602757E+02  0.69322526345E+02  0.17607878192E+03  0.12509052929E+03 0.  0.
         23    2    1    2    0    0  0.97159431435E+02  0.33324602757E+02  0.26090850272E+03  0.29272984336E+03  0.84065629948E+02 0.  0.
          5    1    3    3  502    0 -0.57310232462E+02  0.34779425100E+02 -0.53240921860E+01  0.67378702219E+02  0.41800000000E+01 0. -1.
         -5    1    3    3    0  502 -0.39849198973E+02 -0.68104027857E+02  0.74646618531E+02  0.10870007970E+03  0.41800000000E+01 0. -1.
        -11    1    4    4    0    0  0.10023202744E+02  0.37807489710E+02  0.43675884272E+02  0.58629802477E+02  0.00000000000E+00 0.  1.
         11    1    4    4    0    0  0.87136228691E+02 -0.44828869536E+01  0.21723261844E+03  0.23410004088E+03  0.00000000000E+00 0. -1.
</event>
<event>
 8    1  0.6692409E-009  0.1359488E+03  0.7561462E-02  0.1218886E+00
          1   -1    0    0  501    0  0.00000000000E+00  0.00000000000E+00  0.21382397939E+03  0.21382397939E+03  0.00000000000E+00 0. -1.
         -1   -1    0    0    0  501 -0.00000000000E+00 -0.00000000000E+00 -0.16624449690E+03  0.16624449690E+03  0.00000000000E+00 0.  1.
         25    2    1    2    0    0  0.76257600159E+02  0.91570207779E+02  0.11966067835E+03  0.21016058355E+03  0.12509383837E+03 0.  0.
         23    2    1    2    0    0 -0.76257600159E+02 -0.91570207779E+02 -0.72081195859E+02  0.16990789275E+03  0.97327635782E+02 0.  0.
          5    1    3    3  502    0  0.17428376112E+02  0.35553683458E+02 -0.22970072401E+02  0.45966393457E+02  0.41800000000E+01 0.  1.
         -5    1    3    3    0  502  0.58829224047E+02  0.56016524321E+02  0.14263075075E+03  0.16419419009E+03  0.41800000000E+01 0.  1.
        -11    1    4    4    0    0  0.12065252881E+02 -0.53015088930E+02 -0.42772487595E+02  0.69178433607E+02  0.00000000000E+00 0.  1.
         11    1    4    4    0    0 -0.88322853040E+02 -0.38555118849E+02 -0.29308708264E+02  0.10072945914E+03  0.00000000000E+00 0. -1.
</event>
<event>
 8    1  0.6692409E-009  0.1295946E+03  0.7561462E-02  0.1228058E+00
         -4   -1    0    0    0  501 -0.00000000000E+00  0.00000000000E+00  0.41455799999E+02  0.41455799999E+02  0.00000000000E+00 0.  1.
          4   -1    0    0  501    0  0.00000000000E+00 -0.00000000000E+00 -0.47831383078E+03  0.47831383078E+03  0.00000000000E+00 0. -1.
         25    2    1    2    0    0 -0.37754808357E+02  0.78985571256E+02 -0.27855673660E+03  0.31765558455E+03  0.12508824435E+03 0.  0.
         23    2    1    2    0    0  0.37754808357E+02 -0.78985571256E+02 -0.15830129418E+03  0.20211404622E+03  0.90147889162E+02 0.  0.
          5    1    3    3  502    0  0.43731788374E+02  0.99245705736E+01 -0.97451492238E+02  0.10735563402E+03  0.41800000000E+01 0.  1.
         -5    1    3    3    0  502 -0.81486596732E+02  0.69061000682E+02 -0.18110524436E+03  0.21029995054E+03  0.41800000000E+01 0.  1.
        -11    1    4    4    0    0  0.55087573376E+02 -0.57179847359E+02 -0.58837027360E+02  0.98822929895E+02  0.00000000000E+00 0.  1.
         11    1    4    4    0    0 -0.17332765019E+02 -0.21805723897E+02 -0.99464266823E+02  0.10329111633E+03  0.00000000000E+00 0. -1.
</event>
<event>
 8    1  0.6692409E-009  0.9990357E+02  0.7561462E-02  0.1280499E+00
          1   -1    0    0  501    0  0.00000000000E+00  0.00000000000E+00  0.11500500652E+03  0.11500500652E+03  0.00000000000E+00 0. -1.
         -1   -1    0    0    0  501 -0.00000000000E+00 -0.00000000000E+00 -0.17900353054E+03  0.17900353054E+03  0.00000000000E+00 0.  1.
         25    2    1    2    0    0 -0.57117695848E+02 -0.68846377429E+02 -0.62172767239E+02  0.16588314984E+03  0.12509800778E+03 0.  0.
         23    2    1    2    0    0  0.57117695848E+02  0.68846377429E+02 -0.18257567837E+01  0.12812538722E+03  0.91708923224E+02 0.  0.
          5    1    3    3  502    0  0.58987543760E+01 -0.11894371842E+02  0.34456296969E+02  0.37161541753E+02  0.41800000000E+01 0.  1.
         -5    1    3    3    0  502 -0.63016450224E+02 -0.56952005588E+02 -0.96629064208E+02  0.12872160809E+03  0.41800000000E+01 0.  1.
        -11    1    4    4    0    0  0.10209507443E+02  0.48761887460E+02 -0.40414052217E+02  0.64150224688E+02  0.00000000000E+00 0. -1.
         11    1    4    4    0    0  0.46908188406E+02  0.20084489969E+02  0.38588295434E+02  0.63975162534E+02  0.00000000000E+00 0.  1.
</event>
<event>
 8    1  0.6692409E-009  0.1998952E+03  0.7561462E-02  0.1149827E+00
          2   -1    0    0  501    0  0.00000000000E+00  0.00000000000E+00  0.48331131885E+03  0.48331131885E+03  0.00000000000E+00 0. -1.
         -2   -1    0    0    0  501 -0.00000000000E+00 -0.00000000000E+00 -0.86754042224E+02  0.86754042224E+02  0.00000000000E+00 0.  1.
         25    2    1    2    0    0 -0.15079700360E+03  0.79733370727E+02  0.24496997937E+03  0.32365846653E+03  0.12508942985E+03 0.  0.
         23    2    1    2    0    0  0.15079700360E+03 -0.79733370727E+02  0.15158729726E+03  0.24640689454E+03  0.92954302135E+02 0.  0.
          5    1    3    3  502    0 -0.17868780428E+02 -0.32612610273E+02  0.41982985282E+02  0.56239835668E+02  0.41800000000E+01 0.  1.
         -5    1    3    3    0  502 -0.13292822318E+03  0.11234598100E+03  0.20298699409E+03  0.26741863086E+03  0.41800000000E+01 0.  1.
        -11    1    4    4    0    0  0.15761110773E+03 -0.62159384285E+02  0.15190914574E+03  0.22755535347E+03  0.00000000000E+00 0. -1.
         11    1    4    4    0    0 -0.68141041213E+01 -0.17573986442E+02 -0.32184848281E+00  0.18851541074E+02  0.00000000000E+00 0.  1.
</event>
<event>
 8    1  0.6692409E-009  0.1057417E+03  0.7561462E-02  0.1268665E+00
         -1   -1    0    0    0  501 -0.00000000000E+00  0.00000000000E+00  0.89445380365E+03  0.89445380365E+03  0.00000000000E+00 0.  1.
          1   -1    0    0  501    0  0.00000000000E+00 -0.00000000000E+00 -0.13407190482E+02  0.13407190482E+02  0.00000000000E+00 0. -1.
         25    2    1    2    0    0  0.23196940941E+02  0.49797622021E+01  0.56386622528E+03  0.57806096260E+03  0.12508581204E+03 0.  0.
         23    2    1    2    0    0 -0.23196940941E+02 -0.49797622021E+01  0.31718038789E+03  0.32980003153E+03  0.87188108336E+02 0.  0.
          5    1    3    3  502    0  0.71573716210E+02 -0.53673314668E+01  0.41368784216E+03  0.41988892370E+03  0.41800000000E+01 0. -1.
         -5    1    3    3    0  502 -0.48376775269E+02  0.10347093669E+02  0.15017838312E+03  0.15817203890E+03  0.41800000000E+01 0. -1.
        -11    1    4    4    0    0  0.27635899037E+02 -0.23053995652E+02  0.14275255036E+03  0.14721929311E+03  0.00000000000E+00 0. -1.
         11    1    4    4    0    0 -0.50832839978E+02  0.18074233450E+02  0.17442783753E+03  0.18258073842E+03  0.00000000000E+00 0.  1.
</event>
<event>
 8    1  0.6692409E-009  0.1118408E+03  0.7561462E-02  0.1257199E+00
          1   -1    0    0  501    0  0.00000000000E+00  0.00000000000E+00  0.10812334683E+03  0.10812334683E+03  0.00000000000E+00 0. -1.
         -1   -1    0    0    0  501 -0.00000000000E+00 -0.00000000000E+00 -0.19836139236E+03  0.19836139236E+03  0.00000000000E+00 0.  1.
         25    2    1    2    0    0 -0.51757809083E+02  0.24110602861E+02 -0.13280848937E+03  0.19117073099E+03  0.12509181255E+03 0.  0.
         23    2    1    2    0    0  0.51757809083E+02 -0.24110602861E+02  0.42570443837E+02  0.11531400821E+03  0.90691156287E+02 0.  0.
          5    1    3    3  502    0  0.18118078086E+02 -0.38926300700E+02 -0.46148920558E+02  0.63172121291E+02  0.41800000000E+01 0.  1.
         -5    1    3    3    0  502 -0.69875887169E+02  0.63036903560E+02 -0.86659568810E+02  0.12799860970E+03  0.41800000000E+01 0.  1.
        -11    1    4    4    0    0 -0.14632221386E+02 -0.11850434489E+02 -0.16931953332E+02  0.25322435584E+02  0.00000000000E+00 0.  1.
         11    1    4    4    0    0  0.66390030469E+02 -0.12260168372E+02  0.59502397169E+02  0.89991572622E+02  0.00000000000E+00 0. -1.
</event>
<event>
 8    1  0.6692409E-009  0.1306228E+03  0.7561462E-02  0.1226535E+00
         -2   -1    0    0    0  501 -0.00000000000E+00  0.00000000000E+00  0.20957853258E+03  0.20957853258E+03  0.00000000000E+00 0.  1.
          2   -1    0    0  501    0  0.00000000000E+00 -0.00000000000E+00 -0.99107921641E+02  0.99107921641E+02  0.00000000000E+00 0. -1.
         25    2    1    2    0    0  0.32103230627E+02  0.71983150440E+02  0.25066872726E+01  0.14787335362E+03  0.12509218147E+03 0.  0.
         23    2    1    2    0    0 -0.32103230627E+02 -0.71983150440E+02  0.10796392367E+03  0.16081310060E+03  0.89400520960E+02 0.  0.
          5    1    3    3  502    0 -0.37931129442E+02 -0.90348811777E+01  0.98964587899E+01  0.40445172212E+02  0.41800000000E+01 0.  1.
         -5    1    3    3    0  502  0.70034360069E+02  0.81018031618E+02 -0.73897715173E+01  0.10742818141E+03  0.41800000000E+01 0.  1.
        -11    1    4    4    0    0  0.28683841776E+02 -0.24464877316E+02  0.16501004049E+02  0.41153081728E+02  0.00000000000E+00 0.  1.
         11    1    4    4    0    0 -0.60787072403E+02 -0.47518273125E+02  0.91462919621E+02  0.11966001888E+03  0.00000000000E+00 0. -1.
</event>
<event>
 8    1  0.6692409E-009  0.1185885E+03  0.7561462E-02  0.1245444E+00
          1   -1    0    0  501    0  0.00000000000E+00  0.00000000000E+00  0.84313345969E+03  0.84313345969E+03  0.00000000000E+00 0. -1.
         -1   -1    0    0    0  501 -0.00000000000E+00 -0.00000000000E+00 -0.17236616319E+02  0.17236616319E+02  0.00000000000E+00 0.  1.
         25    2    1    2    0    0 -0.44312281702E+02 -0.23132497770E+02  0.41966681940E+03  0.44075547134E+03  0.12508579236E+03 0.  0.
         23    2    1    2    0    0  0.44312281702E+02  0.23132497770E+02  0.40623002397E+03  0.41961460467E+03  0.92492666249E+02 0.  0.
          5    1    3    3  502    0 -0.44440777865E+02 -0.72153366425E+02  0.28610956619E+03  0.29842460906E+03  0.41800000000E+01 0. -1.
         -5    1    3    3    0  502  0.12849616388E+00  0.49020868655E+02  0.13355725320E+03  0.14233086228E+03  0.41800000000E+01 0. -1.
        -11    1    4    4    0    0 -0.12455259512E+02  0.41610511125E+02  0.13203118477E+03  0.13899209286E+03  0.00000000000E+00 0.  1.
         11    1    4    4    0    0  0.56767541213E+02 -0.18478013355E+02  0.27419883921E+03  0.28062251181E+03  0.00000000000E+00 0. -1.
</event>
<event>
 8    1  0.6692409E-009  0.1122157E+03  0.7561462E-02  0.1256521E+00
          1   -1    0    0  501    0  0.00000000000E+00  0.00000000000E+00  0.77939326073E+03  0.77939326073E+03  0.00000000000E+00 0. -1.
         -1   -1    0    0    0  501 -0.00000000000E+00 -0.00000000000E+00 -0.20075967633E+02  0.20075967633E+02  0.00000000000E+00 0.  1.
         25    2    1    2    0    0  0.54559335875E+02 -0.26227520146E+02  0.48268038010E+03  0.50228694754E+03  0.12508886595E+03 0.  0.
         23    2    1    2    0    0 -0.54559335875E+02  0.26227520146E+02  0.27663691299E+03  0.29718228082E+03  0.90137242371E+02 0.  0.
          5    1    3    3  502    0  0.28189783416E+02  0.50324498093E+02  0.19375498996E+03  0.20220209576E+03  0.41800000000E+01 0. -1.
         -5    1    3    3    0  502  0.26369552459E+02 -0.76552018239E+02  0.28892539015E+03  0.30008485177E+03  0.41800000000E+01 0. -1.
        -11    1    4    4    0    0 -0.47857231453E+02 -0.98235071523E+01  0.24151520145E+03  0.24640699752E+03  0.00000000000E+00 0. -1.
         11    1    4    4    0    0 -0.67021044214E+01  0.36051027298E+02  0.35121711536E+02  0.50775283300E+02  0.00000000000E+00 0.  1.
</event>
<event>
 8    1  0.6692409E-009  0.1047938E+03  0.7561462E-02  0.1270526E+00
         -2   -1    0    0    0  501 -0.00000000000E+00  0.00000000000E+00  0.13235406729E+02  0.13235406729E+02  0.00000000000E+00 0. -1.
          2   -1    0    0  501    0  0.00000000000E+00 -0.00000000000E+00 -0.92837492267E+03  0.92837492267E+03  0.00000000000E+00 0.  1.
         25    2    1    2    0    0 -0.16270796832E+02  0.15101652719E+02 -0.62449928458E+03  0.63729117435E+03  0.12509150936E+03 0.  0.
         23    2    1    2    0    0  0.16270796832E+02 -0.15101652719E+02 -0.29064023136E+03  0.30431915505E+03  0.87439151996E+02 0.  0.
          5    1    3    3  502    0 -0.13111027326E+02  0.67438090668E+02 -0.25741650477E+03  0.26645923598E+03  0.41800000000E+01 0. -1.
         -5    1    3    3    0  502 -0.31597695058E+01 -0.52336437949E+02 -0.36708277981E+03  0.37083193836E+03  0.41800000000E+01 0. -1.
        -11    1    4    4    0    0 -0.30598351419E+02 -0.25872835338E+02 -0.16483162751E+03  0.16963233225E+03  0.00000000000E+00 0. -1.
         11    1    4    4    0    0  0.46869148252E+02  0.10771182619E+02 -0.12580860385E+03  0.13468682280E+03  0.00000000000E+00 0.  1.
</event>
<event>
 8    1  0.6692409E-009  0.1103778E+03  0.7561462E-02  0.1259872E+00
          2   -1    0    0  501    0  0.00000000000E+00  0.00000000000E+00  0.58848123014E+03  0.58848123014E+03  0.00000000000E+00 0. -1.
         -2   -1    0    0    0  501 -0.00000000000E+00 -0.00000000000E+00 -0.22003449670E+02  0.22003449670E+02  0.00000000000E+00 0.  1.
         25    2    1    2    0    0  0.37851660159E+01  0.19603682280E+02  0.39350169970E+03  0.41338786503E+03  0.12508919795E+03 0.  0.
         23    2    1    2    0    0 -0.37851660159E+01 -0.19603682280E+02  0.17297608077E+03  0.19709681479E+03  0.92346077550E+02 0.  0.
          5    1    3    3  502    0  0.35282693272E+02  0.63332875541E+02  0.22624995264E+03  0.23761825485E+03  0.41800000000E+01 0.  1.
         -5    1    3    3    0  502 -0.31497527256E+02 -0.43729193261E+02  0.16725174707E+03  0.17576961018E+03  0.41800000000E+01 0.  1.
        -11    1    4    4    0    0  0.28186864264E+02  0.26027935297E+02  0.79532047238E+02  0.88302317471E+02  0.00000000000E+00 0. -1.
         11    1    4    4    0    0 -0.31972030280E+02 -0.45631617577E+02  0.93444033533E+02  0.10879449731E+03  0.00000000000E+00 0.  1.
</event>
<event>
 8    1  0.6692409E-009  0.8060066E+02  0.7561462E-02  0.1327355E+00
          1   -1    0    0  501    0  0.00000000000E+00  0.00000000000E+00  0.16663215554E+03  0.16663215554E+03  0.00000000000E+00 0. -1.
         -1   -1    0    0    0  501 -0.00000000000E+00 -0.00000000000E+00 -0.76370503777E+02  0.76370503777E+02  0.00000000000E+00 0.  1.
         25    2    1    2    0    0  0.10006902797E+02  0.29297287931E+02  0.56131202646E+02  0.14055938332E+03  0.12509100345E+03 0.  0.
         23    2    1    2    0    0 -0.10006902797E+02 -0.29297287931E+02  0.34130449113E+02  0.10244327600E+03  0.91494634032E+02 0.  0.
          5    1    3    3  502    0  0.50792216550E+02 -0.14315643755E+02 -0.71918180514E+01  0.53422669019E+02  0.41800000000E+01 0.  1.
         -5    1    3    3    0  502 -0.40785313753E+02  0.43612931687E+02  0.63323020697E+02  0.87136714297E+02  0.41800000000E+01 0.  1.
        -11    1    4    4    0    0 -0.23796920056E+02 -0.13208674199E+02  0.61837557966E+02  0.67562164363E+02  0.00000000000E+00 0. -1.
         11    1    4    4    0    0  0.13790017259E+02 -0.16088613733E+02 -0.27707108853E+02  0.34881111634E+02  0.00000000000E+00 0.  1.
</event>
<event>
 8    1  0.6692409E-009  0.9361618E+02  0.7561462E-02  0.1294324E+00
         -2   -1    0    0    0  501 -0.00000000000E+00  0.00000000000E+00  0.40386521229E+02  0.40386521229E+02  0.00000000000E+00 0.  1.
          2   -1    0    0  501    0  0.00000000000E+00 -0.00000000000E+00 -0.32661633387E+03  0.32661633387E+03  0.00000000000E+00 0. -1.
         25    2    1    2    0    0  0.27822195775E+02 -0.19863165886E+01 -0.11880407586E+03  0.17475791095E+03  0.12509156234E+03 0.  0.
         23    2    1    2    0    0 -0.27822195775E+02  0.19863165886E+01 -0.16742573678E+03  0.19224494414E+03  0.90270267427E+02 0.  0.
          5    1    3    3  502    0 -0.25903071667E+02 -0.30395036656E+02 -0.10483180132E+03  0.11225865821E+03  0.41800000000E+01 0. -1.
         -5    1    3    3    0  502  0.53725267442E+02  0.28408720067E+02 -0.13972274538E+02  0.62499252742E+02  0.41800000000E+01 0. -1.
        -11    1    4    4    0    0  0.24237330443E+02  0.19634075981E+02 -0.26329013943E+02  0.40818648947E+02  0.00000000000E+00 0.  1.
         11    1    4    4    0    0 -0.52059526218E+02 -0.17647759393E+02 -0.14109672284E+03  0.15142629520E+03  0.00000000000E+00 0. -1.
</event>
<event>
 8    1  0.6692409E-009  0.1235949E+03  0.7561462E-02  0.1237282E+00
          1   -1    0    0  501    0  0.00000000000E+00  0.00000000000E+00  0.19072120454E+03  0.19072120454E+03  0.00000000000E+00 0. -1.
         -1   -1    0    0    0  501 -0.00000000000E+00 -0.00000000000E+00 -0.93226949502E+02  0.93226949502E+02  0.00000000000E+00 0.  1.
         25    2    1    2    0    0 -0.12536159234E+01 -0.65816762383E+02  0.92443530909E+02  0.16889588432E+03  0.12508635245E+03 0.  0.
         23    2    1    2    0    0  0.12536159234E+01  0.65816762383E+02  0.50507241276E+01  0.11505226972E+03  0.94223655152E+02 0.  0.
          5    1    3    3  502    0 -0.55916837936E+02 -0.58865385737E+02  0.75874633723E+02  0.11120368180E+03  0.41800000000E+01 0.  1.
         -5    1    3    3    0  502  0.54663222012E+02 -0.69513766460E+01  0.16568897186E+02  0.57692202523E+02  0.41800000000E+01 0.  1.
        -11    1    4    4    0    0  0.74672964801E+01  0.87630956920E+02 -0.89412325430E+01  0.88401870834E+02  0.00000000000E+00 0.  1.
         11    1    4    4    0    0 -0.62136805567E+01 -0.21814194537E+02  0.13991956671E+02  0.26650398887E+02  0.00000000000E+00 0. -1.
</event>
<event>
 8    1  0.6692409E-009  0.1056930E+03  0.7561462E-02  0.1268760E+00
          1   -1    0    0  501    0  0.00000000000E+00  0.00000000000E+00  0.47043263071E+03  0.47043263071E+03  0.00000000000E+00 0. -1.
         -1   -1    0    0    0  501 -0.00000000000E+00 -0.00000000000E+00 -0.50292885874E+02  0.50292885874E+02  0.00000000000E+00 0.  1.
         25    2    1    2    0    0  0.52729517751E+02  0.39678663237E+02  0.80459739913E+02  0.16271512696E+03  0.12509054495E+03 0.  0.
         23    2    1    2    0    0 -0.52729517751E+02 -0.39678663237E+02  0.33968000492E+03  0.35801038963E+03  0.91837546675E+02 0.  0.
          5    1    3    3  502    0  0.21577069821E+02  0.61514538069E+02  0.10023058285E+03  0.11963799762E+03  0.41800000000E+01 0.  1.
         -5    1    3    3    0  502  0.31152447931E+02 -0.21835874832E+02 -0.19770842933E+02  0.43077129339E+02  0.41800000000E+01 0.  1.
        -11    1    4    4    0    0  0.10584972739E+02 -0.43103225875E+02  0.89236095311E+02  0.99664489339E+02  0.00000000000E+00 0. -1.
         11    1    4    4    0    0 -0.63314490490E+02  0.34245626381E+01  0.25044390961E+03  0.25834590029E+03  0.00000000000E+00 0.  1.
</event>
<event>
 8    1  0.6692409E-009  0.1169449E+03  0.7561462E-02  0.1248224E+00
          1   -1    0    0  501    0  0.00000000000E+00  0.00000000000E+00  0.74527464442E+03  0.74527464442E+03  0.00000000000E+00 0. -1.
         -1   -1    0    0    0  501 -0.00000000000E+00 -0.00000000000E+00 -0.24093499648E+02  0.24093499648E+02  0.00000000000E+00 0.  1.
         25    2    1    2    0    0 -0.39109735640E+02 -0.68155450801E+02  0.41144609341E+03  0.43716077547E+03  0.12508764502E+03 0.  0.
         23    2    1    2    0    0  0.39109735640E+02  0.68155450801E+02  0.30973505137E+03  0.33220736860E+03  0.90836098603E+02 0.  0.
          5    1    3    3  502    0 -0.31788479294E+02  0.17032426018E+02  0.26542963019E+03  0.26790104878E+03  0.41800000000E+01 0. -1.
         -5    1    3    3    0  502 -0.73212563460E+01 -0.85187876818E+02  0.14601646322E+03  0.16925972670E+03  0.41800000000E+01 0. -1.
        -11    1    4    4    0    0  0.50083143214E+02  0.78620911247E+01  0.82309262686E+02  0.96669273479E+02  0.00000000000E+00 0.  1.
         11    1    4    4    0    0 -0.10973407574E+02  0.60293359676E+02  0.22742578868E+03  0.23553809512E+03  0.00000000000E+00 0. -1.
</event>
<event>
 8    1  0.6692409E-009  0.8398027E+02  0.7561462E-02  0.1318121E+00
         -1   -1    0    0    0  501 -0.00000000000E+00  0.00000000000E+00  0.12412705172E+02  0.12412705172E+02  0.00000000000E+00 0.  1.
          1   -1    0    0  501    0  0.00000000000E+00 -0.00000000000E+00 -0.11879654835E+04  0.11879654835E+04  0.00000000000E+00 0. -1.
         25    2    1    2    0    0 -0.20572280158E+01  0.57091713546E+01 -0.93090189213E+03  0.93928849381E+03  0.12509082702E+03 0.  0.
         23    2    1    2    0    0  0.20572280158E+01 -0.57091713546E+01 -0.24465088621E+03  0.26108969487E+03  0.90977721569E+02 0.  0.
          5    1    3    3  502    0 -0.43125952976E+02  0.25052438075E+02 -0.78113881423E+03  0.78274056492E+03  0.41800000000E+01 0. -1.
         -5    1    3    3    0  502  0.41068724960E+02 -0.19343266721E+02 -0.14976307789E+03  0.15654792888E+03  0.41800000000E+01 0. -1.
        -11    1    4    4    0    0 -0.24841251444E+02  0.22377111681E+02 -0.37164334959E+02  0.49990105955E+02  0.00000000000E+00 0.  1.
         11    1    4    4    0    0  0.26898479460E+02 -0.28086283035E+02 -0.20748655125E+03  0.21109958892E+03  0.00000000000E+00 0. -1.
</event>
<event>
 8    1  0.6692409E-009  0.9483099E+02  0.7561462E-02  0.1291557E+00
         -2   -1    0    0    0  501 -0.00000000000E+00  0.00000000000E+00  0.13342005084E+03  0.13342005084E+03  0.00000000000E+00 0.  1.
          2   -1    0    0  501    0  0.00000000000E+00 -0.00000000000E+00 -0.99814882341E+02  0.99814882341E+02  0.00000000000E+00 0. -1.
         25    2    1    2    0    0 -0.28643879407E+02 -0.19791576259E+02  0.37830755366E+02  0.13526276973E+03  0.12511064106E+03 0.  0.
         23    2    1    2    0    0  0.28643879407E+02  0.19791576259E+02 -0.42255868701E+01  0.97972163445E+02  0.91479565518E+02 0.  0.
          5    1    3    3  502    0 -0.40537371550E+02  0.46666897153E+02  0.22403753671E+02  0.65882306886E+02  0.41800000000E+01 0.  1.
         -5    1    3    3    0  502  0.11893492143E+02 -0.66458473412E+02  0.15427001695E+02  0.69380462847E+02  0.41800000000E+01 0.  1.
        -11    1    4    4    0    0  0.18899315837E+02 -0.14875794233E+02  0.36435056030E+02  0.43657607596E+02  0.00000000000E+00 0.  1.
         11    1    4    4    0    0  0.97445635699E+01  0.34667370492E+02 -0.40660642900E+02  0.54314555849E+02  0.00000000000E+00 0. -1.
</event>
<event>
 8    1  0.6692409E-009  0.9071019E+02  0.7561462E-02  0.1301141E+00
         -2   -1    0    0    0  501 -0.00000000000E+00  0.00000000000E+00  0.13315588671E+03  0.13315588671E+03  0.00000000000E+00 0.  1.
          2   -1    0    0  501    0  0.00000000000E+00 -0.00000000000E+00 -0.13466913687E+03  0.13466913687E+03  0.00000000000E+00 0. -1.
         25    2    1    2    0    0 -0.26842067429E+02 -0.56814337670E+02  0.44979781089E+02  0.14703370671E+03  0.12508942663E+03 0.  0.
         23    2    1    2    0    0  0.26842067429E+02  0.56814337670E+02 -0.46493031250E+02  0.12079131686E+03  0.92090035970E+02 0.  0.
          5    1    3    3  502    0 -0.43900073908E+02 -0.36035734055E+02  0.82769469280E+02  0.10046913985E+03  0.41800000000E+01 0. -1.
         -5    1    3    3    0  502  0.17058006479E+02 -0.20778603615E+02 -0.37789688191E+02  0.46564566859E+02  0.41800000000E+01 0. -1.
        -11    1    4    4    0    0 -0.19055013674E+02  0.46456890983E+02  0.56830535423E+01  0.50533487545E+02  0.00000000000E+00 0.  1.
         11    1    4    4    0    0  0.45897081103E+02  0.10357446688E+02 -0.52176084792E+02  0.70257829314E+02  0.00000000000E+00 0. -1.
</event>
<event>
 8    1  0.6692409E-009  0.1111469E+03  0.7561462E-02  0.1258461E+00
          2   -1    0    0  501    0  0.00000000000E+00  0.00000000000E+00  0.65955111411E+02  0.65955111411E+02  0.00000000000E+00 0. -1.
         -2   -1    0    0    0  501 -0.00000000000E+00 -0.00000000000E+00 -0.21483906722E+03  0.21483906722E+03  0.00000000000E+00 0.  1.
         25    2    1    2    0    0 -0.29648270275E+02 -0.20562181814E+02 -0.11925371238E+03  0.17655257520E+03  0.12509013009E+03 0.  0.
         23    2    1    2    0    0  0.29648270275E+02  0.20562181814E+02 -0.29630243430E+02  0.10424160342E+03  0.93201594982E+02 0.  0.
          5    1    3    3  502    0  0.33621379253E+02 -0.49413890159E+02 -0.63717431447E+02  0.87461495263E+02  0.41800000000E+01 0. -1.
         -5    1    3    3    0  502 -0.63269649528E+02  0.28851708345E+02 -0.55536280929E+02  0.89091079942E+02  0.41800000000E+01 0. -1.
        -11    1    4    4    0    0 -0.30373197594E+02  0.61422158332E+01 -0.29100531649E+02  0.42509985765E+02  0.00000000000E+00 0.  1.
         11    1    4    4    0    0  0.60021467869E+02  0.14419965980E+02 -0.52971178055E+00  0.61731617658E+02  0.00000000000E+00 0. -1.
</event>
<event>
 8    1  0.6692409E-009  0.5313734E+03  0.7561462E-02  0.1005900E+00
          1   -1    0    0  501    0  0.00000000000E+00  0.00000000000E+00  0.46347717190E+03  0.46347717190E+03  0.00000000000E+00 0. -1.
         -1   -1    0    0    0  501 -0.00000000000E+00 -0.00000000000E+00 -0.83833087615E+03  0.83833087615E+03  0.00000000000E+00 0.  1.
         25    2    1    2    0    0 -0.33311904095E+03 -0.40461542705E+03 -0.52242832798E+03  0.75050921832E+03  0.12510311609E+03 0.  0.
         23    2    1    2    0    0  0.33311904095E+03  0.40461542705E+03  0.14757462373E+03  0.55129882974E+03  0.86430265865E+02 0.  0.
          5    1    3    3  502    0 -0.58322373948E+02 -0.13264117833E+03 -0.90912886895E+02  0.17110758866E+03  0.41800000000E+01 0. -1.
         -5    1    3    3    0  502 -0.27479666700E+03 -0.27197424872E+03 -0.43151544108E+03  0.57940162966E+03  0.41800000000E+01 0. -1.
        -11    1    4    4    0    0  0.33334123018E+02  0.92711028752E+02  0.24628834100E+02  0.10155332628E+03  0.00000000000E+00 0.  1.
         11    1    4    4    0    0  0.29978491793E+03  0.31190439830E+03  0.12294578963E+03  0.44974550346E+03  0.00000000000E+00 0. -1.
</event>
<event>
 8    1  0.6692409E-009  0.2133682E+03  0.7561462E-02  0.1138926E+00
          2   -1    0    0  501    0  0.00000000000E+00  0.00000000000E+00  0.14160223624E+03  0.14160223624E+03  0.00000000000E+00 0. -1.
         -2   -1    0    0    0  501 -0.00000000000E+00 -0.00000000000E+00 -0.45830393045E+03  0.45830393045E+03  0.00000000000E+00 0.  1.
         25    2    1    2    0    0  0.10582068796E+03 -0.15014265900E+03 -0.32621631620E+03  0.39472291149E+03  0.12509298880E+03 0.  0.
         23    2    1    2    0    0 -0.10582068796E+03  0.15014265900E+03  0.95146219830E+01  0.20518325521E+03  0.90932965057E+02 0.  0.
          5    1    3    3  502    0  0.11083881250E+03 -0.16903590722E+03 -0.29397402858E+03  0.35678646578E+03  0.41800000000E+01 0.  1.
         -5    1    3    3    0  502 -0.50181245478E+01  0.18893248213E+02 -0.32242287617E+02  0.37936445706E+02  0.41800000000E+01 0.  1.
        -11    1    4    4    0    0  0.13217252548E+02  0.40967000976E+02 -0.31766190790E+01  0.43163431776E+02  0.00000000000E+00 0.  1.
         11    1    4    4    0    0 -0.11903794050E+03  0.10917565803E+03  0.12691241062E+02  0.16201982343E+03  0.00000000000E+00 0. -1.
</event>
<event>
 8    1  0.6692409E-009  0.1414398E+03  0.7561462E-02  0.1211405E+00
          2   -1    0    0  501    0  0.00000000000E+00  0.00000000000E+00  0.27423226920E+02  0.27423226920E+02  0.00000000000E+00 0. -1.
         -2   -1    0    0    0  501 -0.00000000000E+00 -0.00000000000E+00 -0.78389122418E+03  0.78389122418E+03  0.00000000000E+00 0.  1.
         25    2    1    2    0    0  0.96468499923E+02 -0.91812520000E+01 -0.46397960827E+03  0.49021990139E+03  0.12509199800E+03 0.  0.
         23    2    1    2    0    0 -0.96468499923E+02  0.91812520000E+01 -0.29248838898E+03  0.32109454970E+03  0.90342599548E+02 0.  0.
          5    1    3    3  502    0  0.98289842419E+02 -0.50613330717E+02 -0.26952815674E+03  0.29135116619E+03  0.41800000000E+01 0.  1.
         -5    1    3    3    0  502 -0.18213424966E+01  0.41432078717E+02 -0.19445145154E+03  0.19886873520E+03  0.41800000000E+01 0.  1.
        -11    1    4    4    0    0 -0.10056489631E+03  0.33425763247E+02 -0.25628154425E+03  0.27732798262E+03  0.00000000000E+00 0.  1.
         11    1    4    4    0    0  0.40963963894E+01 -0.24244511247E+02 -0.36206844732E+02  0.43766567085E+02  0.00000000000E+00 0. -1.
</event>
<event>
 8    1  0.6692409E-009  0.1930076E+03  0.7561462E-02  0.1155776E+00
          2   -1    0    0  501    0  0.00000000000E+00  0.00000000000E+00  0.10602510617E+04  0.10602510617E+04  0.00000000000E+00 0. -1.
         -2   -1    0    0    0  501 -0.00000000000E+00 -0.00000000000E+00 -0.63314821466E+02  0.63314821466E+02  0.00000000000E+00 0.  1.
         25    2    1    2    0    0  0.15458448712E+03 -0.81854149539E+02  0.17136280628E+03  0.27497139051E+03  0.12509032244E+03 0.  0.
         23    2    1    2    0    0 -0.15458448712E+03  0.81854149539E+02  0.82557343399E+03  0.84859449270E+03  0.89132781097E+02 0.  0.
          5    1    3    3  502    0  0.11340310754E+03 -0.10907769404E+03  0.15937209931E+03  0.22399809502E+03  0.41800000000E+01 0.  1.
         -5    1    3    3    0  502  0.41181379576E+02  0.27223544497E+02  0.11990706971E+02  0.50973295483E+02  0.41800000000E+01 0.  1.
        -11    1    4    4    0    0 -0.24847471566E+02 -0.14503605600E+01  0.33949099219E+02  0.42095625981E+02  0.00000000000E+00 0.  1.
         11    1    4    4    0    0 -0.12973701555E+03  0.83304510099E+02  0.79162433477E+03  0.80649886672E+03  0.00000000000E+00 0. -1.
</event>
<event>
 8    1  0.6692409E-009  0.7103198E+02  0.7561462E-02  0.1356618E+00
          1   -1    0    0  501    0  0.00000000000E+00  0.00000000000E+00  0.18649988580E+03  0.18649988580E+03  0.00000000000E+00 0. -1.
         -1   -1    0    0    0  501 -0.00000000000E+00 -0.00000000000E+00 -0.10123416745E+03  0.10123416745E+03  0.00000000000E+00 0.  1.
         25    2    1    2    0    0  0.56162308730E+02  0.22600691962E+01  0.11316750261E+03  0.17780368409E+03  0.12509178068E+03 0.  0.
         23    2    1    2    0    0 -0.56162308730E+02 -0.22600691962E+01 -0.27901784253E+02  0.10993036917E+03  0.90259978209E+02 0.  0.
          5    1    3    3  502    0  0.19239010791E+02  0.17619322653E+02 -0.23490483355E+02  0.35353292283E+02  0.41800000000E+01 0. -1.
         -5    1    3    3    0  502  0.36923297939E+02 -0.15359253457E+02  0.13665798596E+03  0.14245039180E+03  0.41800000000E+01 0. -1.
        -11    1    4    4    0    0 -0.59926257758E+02 -0.15311664325E+02 -0.52960153485E+02  0.81427153275E+02  0.00000000000E+00 0.  1.
         11    1    4    4    0    0  0.37639490283E+01  0.13051595129E+02  0.25058369232E+02  0.28503215893E+02  0.00000000000E+00 0. -1.
</event>
<event>
 8    1  0.6692409E-009  0.1103341E+03  0.7561462E-02  0.1259952E+00
          2   -1    0    0  501    0  0.00000000000E+00  0.00000000000E+00  0.88349556775E+03  0.88349556775E+03  0.00000000000E+00 0. -1.
         -2   -1    0    0    0  501 -0.00000000000E+00 -0.00000000000E+00 -0.18331783426E+02  0.18331783426E+02  0.00000000000E+00 0.  1.
         25    2    1    2    0    0  0.57793814782E+02  0.27355237433E+02  0.52469105602E+03  0.54317100374E+03  0.12508237683E+03 0.  0.
         23    2    1    2    0    0 -0.57793814782E+02 -0.27355237433E+02  0.34047272830E+03  0.35865634744E+03  0.92866909046E+02 0.  0.
          5    1    3    3  502    0 -0.25208409203E+02 -0.25265518226E+02  0.22223726689E+03  0.22512371155E+03  0.41800000000E+01 0.  1.
         -5    1    3    3    0  502  0.83002223985E+02  0.52620755658E+02  0.30245378913E+03  0.31804729220E+03  0.41800000000E+01 0.  1.
        -11    1    4    4    0    0 -0.60047828767E+02 -0.11424517851E+01  0.31926104803E+03  0.32486099139E+03  0.00000000000E+00 0. -1.
         11    1    4    4    0    0  0.22540139854E+01 -0.26212785648E+02  0.21211680273E+02  0.33795356049E+02  0.00000000000E+00 0.  1.
</event>
<event>
 8    1  0.6692409E-009  0.1169712E+03  0.7561462E-02  0.1248179E+00
         -1   -1    0    0    0  501 -0.00000000000E+00  0.00000000000E+00  0.67913883630E+02  0.67913883630E+02  0.00000000000E+00 0.  1.
          1   -1    0    0  501    0  0.00000000000E+00 -0.00000000000E+00 -0.27337173149E+03  0.27337173149E+03  0.00000000000E+00 0. -1.
         25    2    1    2    0    0 -0.58257760808E+02 -0.56949664331E+02 -0.13159588647E+03  0.19900181839E+03  0.12508803071E+03 0.  0.
         23    2    1    2    0    0  0.58257760808E+02  0.56949664331E+02 -0.73861961392E+02  0.14228379673E+03  0.90287643170E+02 0.  0.
          5    1    3    3  502    0  0.38231440186E+02 -0.42689828486E+01 -0.42117838910E+02  0.57194859802E+02  0.41800000000E+01 0.  1.
         -5    1    3    3    0  502 -0.96489200994E+02 -0.52680681483E+02 -0.89478047560E+02  0.14180695859E+03  0.41800000000E+01 0.  1.
        -11    1    4    4    0    0  0.29545280420E+02  0.11984890537E+02  0.17585597655E+02  0.36411734937E+02  0.00000000000E+00 0.  1.
         11    1    4    4    0    0  0.28712480388E+02  0.44964773794E+02 -0.91447559047E+02  0.10587206179E+03  0.00000000000E+00 0. -1.
</event>
<event>
 8    1  0.6692409E-009  0.2294491E+03  0.7561462E-02  0.1127028E+00
         -2   -1    0    0    0  501 -0.00000000000E+00  0.00000000000E+00  0.64443473037E+02  0.64443473037E+02  0.00000000000E+00 0.  1.
          2   -1    0    0  501    0  0.00000000000E+00 -0.00000000000E+00 -0.88699259622E+03  0.88699259622E+03  0.00000000000E+00 0. -1.
         25    2    1    2    0    0 -0.21198630310E+03 -0.12919958713E+01 -0.45580083498E+03  0.51801794511E+03  0.12509327854E+03 0.  0.
         23    2    1    2    0    0  0.21198630310E+03  0.12919958713E+01 -0.36674828820E+03  0.43341812414E+03  0.91690247480E+02 0.  0.
          5    1    3    3  502    0 -0.14347911152E+02  0.26104171536E+02 -0.13888441819E+02  0.33130824652E+02  0.41800000000E+01 0. -1.
         -5    1    3    3    0  502 -0.19763839194E+03 -0.27396167407E+02 -0.44191239316E+03  0.48488712046E+03  0.41800000000E+01 0. -1.
        -11    1    4    4    0    0  0.75567376904E+02  0.42552877369E+02 -0.16504099860E+03  0.18643955333E+03  0.00000000000E+00 0. -1.
         11    1    4    4    0    0  0.13641892619E+03 -0.41260881498E+02 -0.20170728960E+03  0.24697857082E+03  0.00000000000E+00 0.  1.
</event>
<event>
 8    1  0.6692409E-009  0.1418184E+03  0.7561462E-02  0.1210903E+00
          1   -1    0    0  501    0  0.00000000000E+00  0.00000000000E+00  0.32087979297E+03  0.32087979297E+03  0.00000000000E+00 0. -1.
         -1   -1    0    0    0  501 -0.00000000000E+00 -0.00000000000E+00 -0.80860145154E+02  0.80860145154E+02  0.00000000000E+00 0.  1.
         25    2    1    2    0    0 -0.10082172718E+03 -0.55491981186E+02  0.15600517318E+03  0.23069267383E+03  0.12504845082E+03 0.  0.
         23    2    1    2    0    0  0.10082172718E+03  0.55491981186E+02  0.84014474639E+02  0.17104726430E+03  0.94627448589E+02 0.  0.
          5    1    3    3  502    0  0.16623426905E+01 -0.32886000106E+02  0.11200154131E+03  0.11681639458E+03  0.41800000000E+01 0.  1.
         -5    1    3    3    0  502 -0.10248406987E+03 -0.22605981079E+02  0.44003631869E+02  0.11387627925E+03  0.41800000000E+01 0.  1.
        -11    1    4    4    0    0  0.46934340554E+02  0.74686884726E+02  0.32315189780E+02  0.93942719589E+02  0.00000000000E+00 0.  1.
         11    1    4    4    0    0  0.53887386630E+02 -0.19194903540E+02  0.51699284859E+02  0.77104544708E+02  0.00000000000E+00 0. -1.
</event>
<event>
 8    1  0.6692409E-009  0.1088492E+03  0.7561462E-02  0.1262716E+00
          1   -1    0    0  501    0  0.00000000000E+00  0.00000000000E+00  0.24458772319E+02  0.24458772319E+02  0.00000000000E+00 0. -1.
         -1   -1    0    0    0  501 -0.00000000000E+00 -0.00000000000E+00 -0.61923473644E+03  0.61923473644E+03  0.00000000000E+00 0.  1.
         25    2    1    2    0    0 -0.37511424916E+02 -0.43032760117E+02 -0.30494057215E+03  0.33450655850E+03  0.12508780793E+03 0.  0.
         23    2    1    2    0    0  0.37511424916E+02  0.43032760117E+02 -0.28983539198E+03  0.30918695026E+03  0.91285761923E+02 0.  0.
          5    1    3    3  502    0 -0.75437825300E+02 -0.15923153581E+02 -0.11245044202E+03  0.13640742875E+03  0.41800000000E+01 0. -1.
         -5    1    3    3    0  502  0.37926400384E+02 -0.27109606537E+02 -0.19249013012E+03  0.19809912975E+03  0.41800000000E+01 0. -1.
        -11    1    4    4    0    0  0.51525682522E+02  0.54916752329E+02 -0.27626496669E+03  0.28634433375E+03  0.00000000000E+00 0.  1.
         11    1    4    4    0    0 -0.14014257606E+02 -0.11883992211E+02 -0.13570425280E+02  0.22842616518E+02  0.00000000000E+00 0. -1.
</event>
<event>
 8    1  0.6692409E-009  0.2406402E+03  0.7561462E-02  0.1119367E+00
         -1   -1    0    0    0  501 -0.00000000000E+00  0.00000000000E+00  0.24462862133E+03  0.24462862133E+03  0.00000000000E+00 0.  1.
          1   -1    0    0  501    0  0.00000000000E+00 -0.00000000000E+00 -0.27554044734E+03  0.27554044734E+03  0.00000000000E+00 0. -1.
         25    2    1    2    0    0  0.14470409768E+03 -0.18214914520E+03  0.25981375045E+02  0.26540539239E+03  0.12508958180E+03 0.  0.
         23    2    1    2    0    0 -0.14470409768E+03  0.18214914520E+03 -0.56893201055E+02  0.25476367628E+03  0.86891354236E+02 0.  0.
          5    1    3    3  502    0  0.49100909816E+02 -0.16811449803E+02 -0.37426801451E+02  0.64123022824E+02  0.41800000000E+01 0. -1.
         -5    1    3    3    0  502  0.95603187863E+02 -0.16533769540E+03  0.63408176497E+02  0.20128236956E+03  0.41800000000E+01 0. -1.
        -11    1    4    4    0    0 -0.69145101012E+02  0.12710869189E+03  0.11983702209E+01  0.14470349214E+03  0.00000000000E+00 0.  1.
         11    1    4    4    0    0 -0.75558996667E+02  0.55040453317E+02 -0.58091571276E+02  0.11006018414E+03  0.00000000000E+00 0. -1.
</event>
<event>
 8    1  0.6692409E-009  0.1084047E+03  0.7561462E-02  0.1263553E+00
          2   -1    0    0  501    0  0.00000000000E+00  0.00000000000E+00  0.85767281353E+02  0.85767281353E+02  0.00000000000E+00 0.  1.
         -2   -1    0    0    0  501 -0.00000000000E+00 -0.00000000000E+00 -0.25594936243E+03  0.25594936243E+03  0.00000000000E+00 0. -1.
         25    2    1    2    0    0 -0.14619583805E+02  0.82048921973E+02 -0.27043633436E+02  0.15272533251E+03  0.12509161144E+03 0.  0.
         23    2    1    2    0    0  0.14619583805E+02 -0.82048921973E+02 -0.14313844764E+03  0.18899131127E+03  0.91012871154E+02 0.  0.
          5    1    3    3  502    0 -0.48404088055E+02  0.71193142102E+01  0.25251891876E+02  0.55215675479E+02  0.41800000000E+01 0. -1.
         -5    1    3    3    0  502  0.33784504250E+02  0.74929607763E+02 -0.52295525312E+02  0.97509657032E+02  0.41800000000E+01 0. -1.
        -11    1    4    4    0    0 -0.33241125689E+01 -0.33198487515E+02 -0.13149656784E+03  0.13566332095E+03  0.00000000000E+00 0. -1.
         11    1    4    4    0    0  0.17943696374E+02 -0.48850434458E+02 -0.11641879798E+02  0.53327990319E+02  0.00000000000E+00 0.  1.
</event>
<event>
 8    1  0.6692409E-009  0.2133932E+03  0.7561462E-02  0.1138907E+00
         -1   -1    0    0    0  501 -0.00000000000E+00  0.00000000000E+00  0.12804882066E+04  0.12804882066E+04  0.00000000000E+00 0.  1.
          1   -1    0    0  501    0  0.00000000000E+00 -0.00000000000E+00 -0.39355708024E+02  0.39355708024E+02  0.00000000000E+00 0. -1.
         25    2    1    2    0    0  0.12709625683E+03 -0.13334620853E+03  0.44364838004E+03  0.49639111872E+03  0.12508232412E+03 0.  0.
         23    2    1    2    0    0 -0.12709625683E+03  0.13334620853E+03  0.79748411855E+03  0.82345279591E+03  0.90326728783E+02 0.  0.
          5    1    3    3  502    0  0.35977582627E+02  0.21943598121E+02  0.76052138898E+02  0.87047735072E+02  0.41800000000E+01 0. -1.
         -5    1    3    3    0  502  0.91118674200E+02 -0.15528980665E+03  0.36759624114E+03  0.40934338365E+03  0.41800000000E+01 0. -1.
        -11    1    4    4    0    0  0.13713276981E+02  0.83497008904E+01  0.85422417217E+02  0.86918127187E+02  0.00000000000E+00 0.  1.
         11    1    4    4    0    0 -0.14080953381E+03  0.12499650764E+03  0.71206170133E+03  0.73653466873E+03  0.00000000000E+00 0. -1.
</event>
<event>
 8    1  0.6692409E-009  0.7454861E+02  0.7561462E-02  0.1345275E+00
          2   -1    0    0  501    0  0.00000000000E+00  0.00000000000E+00  0.48369698171E+03  0.48369698171E+03  0.00000000000E+00 0. -1.
         -2   -1    0    0    0  501 -0.00000000000E+00 -0.00000000000E+00 -0.27704181168E+02  0.27704181168E+02  0.00000000000E+00 0.  1.
         25    2    1    2    0    0 -0.64238267766E+01 -0.21379853218E+02  0.28223552588E+03  0.30951987816E+03  0.12508916512E+03 0.  0.
         23    2    1    2    0    0  0.64238267766E+01  0.21379853218E+02  0.17375727466E+03  0.20188128472E+03  0.10032995041E+03 0.  0.
          5    1    3    3  502    0 -0.11238237621E+01  0.12595600926E+02 -0.91011132065E+01  0.16131174914E+02  0.41800000000E+01 0.  1.
         -5    1    3    3    0  502 -0.53000030146E+01 -0.33975454143E+02  0.29133663908E+03  0.29338870324E+03  0.41800000000E+01 0.  1.
        -11    1    4    4    0    0  0.48912334265E+02 -0.78899848213E+01  0.10315387064E+03  0.11443508785E+03  0.00000000000E+00 0.  1.
         11    1    4    4    0    0 -0.42488507488E+02  0.29269838039E+02  0.70603404026E+02  0.87446196873E+02  0.00000000000E+00 0. -1.
</event>
<event>
 8    1  0.6692409E-009  0.2144839E+03  0.7561462E-02  0.1138064E+00
         -1   -1    0    0    0  501 -0.00000000000E+00  0.00000000000E+00  0.25451894795E+03  0.25451894795E+03  0.00000000000E+00 0.  1.
          1   -1    0    0  501    0  0.00000000000E+00 -0.00000000000E+00 -0.20242524847E+03  0.20242524847E+03  0.00000000000E+00 0. -1.
         25    2    1    2    0    0  0.41168986546E+02 -0.18853716468E+03  0.74661620010E+02  0.24179286414E+03  0.12509310023E+03 0.  0.
         23    2    1    2    0    0 -0.41168986546E+02  0.18853716468E+03 -0.22567920531E+02  0.21515133228E+03  0.92410155423E+02 0.  0.
          5    1    3    3  502    0 -0.14662284679E+02  0.12637476917E+02 -0.63219518947E+00  0.19813139216E+02  0.41800000000E+01 0. -1.
         -5    1    3    3    0  502  0.55831271225E+02 -0.20117464160E+03  0.75293815199E+02  0.22197972492E+03  0.41800000000E+01 0. -1.
        -11    1    4    4    0    0 -0.54463066481E+02  0.15054119492E+03  0.14086747918E+02  0.16070878459E+03  0.00000000000E+00 0.  1.
         11    1    4    4    0    0  0.13294079935E+02  0.37995969761E+02 -0.36654668449E+02  0.54442547686E+02  0.00000000000E+00 0. -1.
</event>
<event>
 8    1  0.6692409E-009  0.1796791E+03  0.7561462E-02  0.1168114E+00
         -2   -1    0    0    0  501 -0.00000000000E+00  0.00000000000E+00  0.41623068604E+03  0.41623068604E+03  0.00000000000E+00 0. -1.
          2   -1    0    0  501    0  0.00000000000E+00 -0.00000000000E+00 -0.10523738820E+03  0.10523738820E+03  0.00000000000E+00 0.  1.
         25    2    1    2    0    0 -0.72294502891E+02 -0.14941607401E+03  0.80548273608E+02  0.22292906760E+03  0.12513067760E+03 0.  0.
         23    2    1    2    0    0  0.72294502891E+02  0.14941607401E+03  0.23044502423E+03  0.29853900664E+03  0.92027012170E+02 0.  0.
          5    1    3    3  502    0 -0.15633395215E+02 -0.13324225251E+03  0.15584030639E+02  0.13512303768E+03  0.41800000000E+01 0.  1.
         -5    1    3    3    0  502 -0.56661107676E+02 -0.16173821496E+02  0.64964242969E+02  0.87806029915E+02  0.41800000000E+01 0.  1.
        -11    1    4    4    0    0  0.65297082547E+02  0.13120368648E+03  0.12901967472E+03  0.19525417486E+03  0.00000000000E+00 0.  1.
         11    1    4    4    0    0  0.69974203441E+01  0.18212387529E+02  0.10142534952E+03  0.10328483178E+03  0.00000000000E+00 0. -1.
</event>
<event>
 8    1  0.6692409E-009  0.9348670E+02  0.7561462E-02  0.1294621E+00
          3   -1    0    0  501    0  0.00000000000E+00  0.00000000000E+00  0.71303017656E+02  0.71303017656E+02  0.00000000000E+00 0. -1.
         -3   -1    0    0    0  501 -0.00000000000E+00 -0.00000000000E+00 -0.21344282088E+03  0.21344282088E+03  0.00000000000E+00 0.  1.
         25    2    1    2    0    0 -0.43680077257E+02 -0.35130035207E+02 -0.75066620058E+02  0.15628149098E+03  0.12508732331E+03 0.  0.
         23    2    1    2    0    0  0.43680077257E+02  0.35130035207E+02 -0.67073183166E+02  0.12846434756E+03  0.94139301943E+02 0.  0.
          5    1    3    3  502    0 -0.40926599299E+01  0.39756141081E+02  0.39358222346E+01  0.40376524313E+02  0.41800000000E+01 0. -1.
         -5    1    3    3    0  502 -0.39587417327E+02 -0.74886176288E+02 -0.79002442293E+02  0.11590496667E+03  0.41800000000E+01 0. -1.
        -11    1    4    4    0    0  0.18348429818E+02  0.31410312829E+02 -0.88112064239E+02  0.95325801823E+02  0.00000000000E+00 0.  1.
         11    1    4    4    0    0  0.25331647439E+02  0.37197223782E+01  0.21038881073E+02  0.33138545734E+02  0.00000000000E+00 0. -1.
</event>
<event>
 8    1  0.6692409E-009  0.2353790E+03  0.7561462E-02  0.1122910E+00
         -2   -1    0    0    0  501 -0.00000000000E+00  0.00000000000E+00  0.12509742188E+03  0.12509742188E+03  0.00000000000E+00 0. -1.
          2   -1    0    0  501    0  0.00000000000E+00 -0.00000000000E+00 -0.46879663472E+03  0.46879663472E+03  0.00000000000E+00 0.  1.
         25    2    1    2    0    0 -0.16629768646E+03 -0.12832091110E+03 -0.11619874582E+03  0.27068555926E+03  0.12508935493E+03 0.  0.
         23    2    1    2    0    0  0.16629768646E+03  0.12832091110E+03 -0.22750046703E+03  0.32320849734E+03  0.92661175839E+02 0.  0.
          5    1    3    3  502    0 -0.25394471927E+02  0.22977662660E+02 -0.33135236070E+02  0.47835849059E+02  0.41800000000E+01 0. -1.
         -5    1    3    3    0  502 -0.14090321453E+03 -0.15129857376E+03 -0.83063509746E+02  0.22284971020E+03  0.41800000000E+01 0. -1.
        -11    1    4    4    0    0  0.16868922816E+03  0.13896460359E+03 -0.21440593598E+03  0.30616518766E+03  0.00000000000E+00 0.  1.
         11    1    4    4    0    0 -0.23915416992E+01 -0.10643692495E+02 -0.13094531044E+02  0.17043309682E+02  0.00000000000E+00 0. -1.
</event>
<event>
 8    1  0.6692409E-009  0.1959214E+03  0.7561462E-02  0.1153226E+00
         -4   -1    0    0    0  501 -0.00000000000E+00  0.00000000000E+00  0.80306683379E+03  0.80306683379E+03  0.00000000000E+00 0.  1.
          4   -1    0    0  501    0  0.00000000000E+00 -0.00000000000E+00 -0.50017207159E+02  0.50017207159E+02  0.00000000000E+00 0. -1.
         25    2    1    2    0    0 -0.15713685996E+03  0.37458296007E+02  0.30926461842E+03  0.37065785645E+03  0.12509007012E+03 0.  0.
         23    2    1    2    0    0  0.15713685996E+03 -0.37458296007E+02  0.44378500821E+03  0.48242618450E+03  0.98462039788E+02 0.  0.
          5    1    3    3  502    0  0.82554053434E+01  0.36364992296E+02  0.41937536981E+02  0.56274272897E+02  0.41800000000E+01 0.  1.
         -5    1    3    3    0  502 -0.16539226531E+03  0.10933037116E+01  0.26732708144E+03  0.31438358356E+03  0.41800000000E+01 0.  1.
        -11    1    4    4    0    0  0.10241039459E+03 -0.71062110364E+02  0.30577362562E+03  0.33020481912E+03  0.00000000000E+00 0. -1.
         11    1    4    4    0    0  0.54726465369E+02  0.33603814357E+02  0.13801138259E+03  0.15222136537E+03  0.00000000000E+00 0.  1.
</event>
<event>
 8    1  0.6692409E-009  0.1386677E+03  0.7561462E-02  0.1215133E+00
          2   -1    0    0  501    0  0.00000000000E+00  0.00000000000E+00  0.31460653349E+03  0.31460653349E+03  0.00000000000E+00 0. -1.
         -2   -1    0    0    0  501 -0.00000000000E+00 -0.00000000000E+00 -0.89240273004E+02  0.89240273004E+02  0.00000000000E+00 0.  1.
         25    2    1    2    0    0 -0.11925756350E+03  0.43880817658E+02  0.11955785367E+03  0.21468221817E+03  0.12508589775E+03 0.  0.
         23    2    1    2    0    0  0.11925756350E+03 -0.43880817658E+02  0.10580840681E+03  0.18916458832E+03  0.91869091163E+02 0.  0.
          5    1    3    3  502    0 -0.43842283056E+02  0.53108608588E+02  0.12019233331E+03  0.13858693834E+03  0.41800000000E+01 0. -1.
         -5    1    3    3    0  502 -0.75415280441E+02 -0.92277909295E+01 -0.63447964199E+00  0.76095279839E+02  0.41800000000E+01 0. -1.
        -11    1    4    4    0    0  0.49872281992E+02  0.51676955230E+00 -0.60582381293E+01  0.50241554625E+02  0.00000000000E+00 0.  1.
         11    1    4    4    0    0  0.69385281505E+02 -0.44397587210E+02  0.11186664494E+03  0.13892303369E+03  0.00000000000E+00 0. -1.
</event>
<event>
 8    1  0.6692409E-009  0.1076521E+03  0.7561462E-02  0.1264981E+00
         -1   -1    0    0    0  501 -0.00000000000E+00  0.00000000000E+00  0.14920013503E+02  0.14920013503E+02  0.00000000000E+00 0.  1.
          1   -1    0    0  501    0  0.00000000000E+00 -0.00000000000E+00 -0.11351584141E+04  0.11351584141E+04  0.00000000000E+00 0. -1.
         25    2    1    2    0    0 -0.66665798550E+02  0.32337692735E+01 -0.75120891329E+03  0.76446681005E+03  0.12505953108E+03 0.  0.
         23    2    1    2    0    0  0.66665798550E+02 -0.32337692735E+01 -0.36902948728E+03  0.38561161751E+03  0.89770658470E+02 0.  0.
          5    1    3    3  502    0 -0.26124227317E+00  0.31385082616E+02 -0.47666379249E+02  0.57224538173E+02  0.41800000000E+01 0.  1.
         -5    1    3    3    0  502 -0.66404556277E+02 -0.28151313342E+02 -0.70354253404E+03  0.70724227188E+03  0.41800000000E+01 0.  1.
        -11    1    4    4    0    0  0.79372199807E+02 -0.27501517635E+02 -0.26227893324E+03  0.27540246621E+03  0.00000000000E+00 0.  1.
         11    1    4    4    0    0 -0.12706401257E+02  0.24267748362E+02 -0.10675055404E+03  0.11020915130E+03  0.00000000000E+00 0. -1.
</event>
<event>
 8    1  0.6692409E-009  0.1170014E+03  0.7561462E-02  0.1248127E+00
          1   -1    0    0  501    0  0.00000000000E+00  0.00000000000E+00  0.10698737916E+04  0.10698737916E+04  0.00000000000E+00 0. -1.
         -1   -1    0    0    0  501 -0.00000000000E+00 -0.00000000000E+00 -0.19848999999E+02  0.19848999999E+02  0.00000000000E+00 0.  1.
         25    2    1    2    0    0 -0.49155937765E+02  0.62272150370E+02  0.76811992108E+03  0.78227259759E+03  0.12509227332E+03 0.  0.
         23    2    1    2    0    0  0.49155937765E+02 -0.62272150370E+02  0.28190487052E+03  0.30745019401E+03  0.93600955367E+02 0.  0.
          5    1    3    3  502    0 -0.64723333712E+02  0.20657390215E+02  0.68094424875E+03  0.68433791361E+03  0.41800000000E+01 0. -1.
         -5    1    3    3    0  502  0.15567395947E+02  0.41614760155E+02  0.87175672330E+02  0.97934683976E+02  0.41800000000E+01 0. -1.
        -11    1    4    4    0    0 -0.18522648611E+02 -0.48939785511E+02  0.14492443863E+03  0.15408206914E+03  0.00000000000E+00 0.  1.
         11    1    4    4    0    0  0.67678586375E+02 -0.13332364858E+02  0.13698043188E+03  0.15336812487E+03  0.00000000000E+00 0. -1.
</event>
<event>
 8    1  0.6692409E-009  0.7360259E+02  0.7561462E-02  0.1348254E+00
         -3   -1    0    0    0  501 -0.00000000000E+00  0.00000000000E+00  0.20589147316E+03  0.20589147316E+03  0.00000000000E+00 0.  1.
          3   -1    0    0  501    0  0.00000000000E+00 -0.00000000000E+00 -0.20679367697E+03  0.20679367697E+03  0.00000000000E+00 0. -1.
         25    2    1    2    0    0 -0.53894104071E+02 -0.37415526493E+02  0.16249382108E+03  0.21530660412E+03  0.12509274885E+03 0.  0.
         23    2    1    2    0    0  0.53894104071E+02  0.37415526493E+02 -0.16339602488E+03  0.19737854600E+03  0.89193796864E+02 0.  0.
          5    1    3    3  502    0 -0.55200252207E+02 -0.31479957653E+02  0.18286737994E+03  0.19363885618E+03  0.41800000000E+01 0. -1.
         -5    1    3    3    0  502  0.13061481352E+01 -0.59355688408E+01 -0.20373558858E+02  0.21667747944E+02  0.41800000000E+01 0. -1.
        -11    1    4    4    0    0  0.71430927007E+01  0.27424114075E+02 -0.14235136006E+03  0.14514480879E+03  0.00000000000E+00 0. -1.
         11    1    4    4    0    0  0.46751011371E+02  0.99914124187E+01 -0.21044664820E+02  0.52233737217E+02  0.00000000000E+00 0.  1.
</event>
<event>
 8    1  0.6692409E-009  0.2393081E+03  0.7561462E-02  0.1120255E+00
          1   -1    0    0  501    0  0.00000000000E+00  0.00000000000E+00  0.26389965481E+04  0.26389965481E+04  0.00000000000E+00 0. -1.
         -1   -1    0    0    0  501 -0.00000000000E+00 -0.00000000000E+00 -0.27769912406E+02  0.27769912406E+02  0.00000000000E+00 0.  1.
         25    2    1    2    0    0 -0.55681251389E+02  0.21664299548E+03  0.18571926397E+04  0.18747928596E+04  0.12509666682E+03 0.  0.
         23    2    1    2    0    0  0.55681251389E+02 -0.21664299548E+03  0.75403399595E+03  0.79197360091E+03  0.92845722744E+02 0.  0.
          5    1    3    3  502    0  0.15321099823E+02  0.14812580893E+03  0.86895414627E+03  0.88163188015E+03  0.41800000000E+01 0.  1.
         -5    1    3    3    0  502 -0.71002351211E+02  0.68517186550E+02  0.98823849343E+03  0.99316097941E+03  0.41800000000E+01 0.  1.
        -11    1    4    4    0    0  0.65786442098E+02 -0.15449933665E+03  0.42502504263E+03  0.45699473503E+03  0.00000000000E+00 0.  1.
         11    1    4    4    0    0 -0.10105190709E+02 -0.62143658836E+02  0.32900895333E+03  0.33497886587E+03  0.00000000000E+00 0. -1.
</event>
<event>
 8    1  0.6692409E-009  0.1404846E+03  0.7561462E-02  0.1212678E+00
          2   -1    0    0  501    0  0.00000000000E+00  0.00000000000E+00  0.19605997305E+03  0.19605997305E+03  0.00000000000E+00 0. -1.
         -2   -1    0    0    0  501 -0.00000000000E+00 -0.00000000000E+00 -0.17905573132E+03  0.17905573132E+03  0.00000000000E+00 0.  1.
         25    2    1    2    0    0  0.12558005461E+03 -0.17852017239E+02 -0.75117319034E+02  0.19333620023E+03  0.12508888867E+03 0.  0.
         23    2    1    2    0    0 -0.12558005461E+03  0.17852017239E+02  0.92121560759E+02  0.18177950413E+03  0.92023700919E+02 0.  0.
          5    1    3    3  502    0  0.46757178300E+02  0.36879481756E+01 -0.97701343809E+02  0.10845671794E+03  0.41800000000E+01 0. -1.
         -5    1    3    3    0  502  0.78822876308E+02 -0.21539965414E+02  0.22584024775E+02  0.84879482294E+02  0.41800000000E+01 0. -1.
        -11    1    4    4    0    0 -0.60175171892E+02 -0.33530856090E+02  0.63863771508E+02  0.93935887357E+02  0.00000000000E+00 0. -1.
         11    1    4    4    0    0 -0.65404882716E+02  0.51382873329E+02  0.28257789251E+02  0.87843616775E+02  0.00000000000E+00 0.  1.
</event>
<event>
 8    1  0.6692409E-009  0.9019203E+02  0.7561462E-02  0.1302387E+00
          4   -1    0    0  501    0  0.00000000000E+00  0.00000000000E+00  0.57845639614E+02  0.57845639614E+02  0.00000000000E+00 0. -1.
         -4   -1    0    0    0  501 -0.00000000000E+00 -0.00000000000E+00 -0.19883608334E+03  0.19883608334E+03  0.00000000000E+00 0.  1.
         25    2    1    2    0    0 -0.24081290640E+01 -0.13332364968E+02 -0.78074349752E+02  0.14807573888E+03  0.12508904554E+03 0.  0.
         23    2    1    2    0    0  0.24081290640E+01  0.13332364968E+02 -0.62916093974E+02  0.10860598408E+03  0.87482991806E+02 0.  0.
          5    1    3    3  502    0  0.48221747471E+02  0.24990060087E+02 -0.61823326524E+02  0.82398034776E+02  0.41800000000E+01 0. -1.
         -5    1    3    3    0  502 -0.50629876535E+02 -0.38322425055E+02 -0.16251023228E+02  0.65677704102E+02  0.41800000000E+01 0. -1.
        -11    1    4    4    0    0  0.27647765929E+02 -0.84775311544E+01  0.81973691432E+01  0.30057683813E+02  0.00000000000E+00 0. -1.
         11    1    4    4    0    0 -0.25239636865E+02  0.21809896123E+02 -0.71113463117E+02  0.78548300265E+02  0.00000000000E+00 0.  1.
</event>
<event>
 8    1  0.6692409E-009  0.8929217E+02  0.7561462E-02  0.1304575E+00
          2   -1    0    0  501    0  0.00000000000E+00  0.00000000000E+00  0.33129332616E+02  0.33129332616E+02  0.00000000000E+00 0. -1.
         -2   -1    0    0    0  501 -0.00000000000E+00 -0.00000000000E+00 -0.46421902722E+03  0.46421902722E+03  0.00000000000E+00 0.  1.
         25    2    1    2    0    0 -0.25635983158E+02 -0.53917686473E+02 -0.19151436607E+03  0.23641581597E+03  0.12510141918E+03 0.  0.
         23    2    1    2    0    0  0.25635983158E+02  0.53917686473E+02 -0.23957532853E+03  0.26093254387E+03  0.84410508010E+02 0.  0.
          5    1    3    3  502    0  0.87270873656E+00 -0.47880724643E+02 -0.55065297529E+01  0.48385118402E+02  0.41800000000E+01 0.  1.
         -5    1    3    3    0  502 -0.26508691894E+02 -0.60369618295E+01 -0.18600783632E+03  0.18803069757E+03  0.41800000000E+01 0.  1.
        -11    1    4    4    0    0  0.45049619270E+02 -0.68569241093E+00 -0.93766983708E+02  0.10402973423E+03  0.00000000000E+00 0.  1.
         11    1    4    4    0    0 -0.19413636112E+02  0.54603378884E+02 -0.14580834482E+03  0.15690280964E+03  0.00000000000E+00 0. -1.
</event>
<event>
 7    1  0.6692409E-009  0.1932784E+03  0.7561462E-02  0.1155537E+00
         -2   -1    0    0    0  501 -0.00000000000E+00  0.00000000000E+00  0.54035794068E+02  0.54035794068E+02  0.00000000000E+00 0.  1.
          2   -1    0    0  501    0  0.00000000000E+00 -0.00000000000E+00 -0.13662629068E+04  0.13662629068E+04  0.00000000000E+00 0. -1.
         23    2    1    2    0    0 -0.67088799750E+02  0.16292619252E+03 -0.17145997676E+03  0.25922595752E+03  0.82181032862E+02 0.  0.
          5    1    1    2  502    0  0.48042090767E+02 -0.12816616607E+02 -0.50832147369E+03  0.51076462403E+03  0.41800000000E+01 0.  1.
         -5    1    1    2    0  502  0.19046708983E+02 -0.15010957591E+03 -0.63244566224E+03  0.65030811927E+03  0.41800000000E+01 0.  1.
        -11    1    3    3    0    0 -0.70402341511E+01  0.92371621515E+02 -0.46467475858E+02  0.10364028016E+03  0.00000000000E+00 0.  1.
         11    1    3    3    0    0 -0.60048565598E+02  0.70554571007E+02 -0.12499250090E+03  0.15558567737E+03  0.00000000000E+00 0. -1.
</event>
<event>
 8    1  0.6692409E-009  0.1019983E+03  0.7561462E-02  0.1276149E+00
          2   -1    0    0  501    0  0.00000000000E+00  0.00000000000E+00  0.71509334971E+03  0.71509334971E+03  0.00000000000E+00 0. -1.
         -2   -1    0    0    0  501 -0.00000000000E+00 -0.00000000000E+00 -0.19549280104E+02  0.19549280104E+02  0.00000000000E+00 0.  1.
         25    2    1    2    0    0 -0.31100599522E+02 -0.33705218006E+02  0.43270515546E+03  0.45274998504E+03  0.12508200661E+03 0.  0.
         23    2    1    2    0    0  0.31100599522E+02  0.33705218006E+02  0.26283891415E+03  0.28189264478E+03  0.90971860370E+02 0.  0.
          5    1    3    3  502    0 -0.47356501782E+02  0.34134205807E+02  0.25865578198E+03  0.26519439704E+03  0.41800000000E+01 0.  1.
         -5    1    3    3    0  502  0.16255902261E+02 -0.67839423813E+02  0.17404937348E+03  0.18755558800E+03  0.41800000000E+01 0.  1.
        -11    1    4    4    0    0  0.27361991307E+02 -0.11892859528E+02  0.22844933829E+02  0.37576717229E+02  0.00000000000E+00 0.  1.
         11    1    4    4    0    0  0.37386082149E+01  0.45598077534E+02  0.23999398032E+03  0.24431592755E+03  0.00000000000E+00 0. -1.
</event>
<event>
 8    1  0.6692409E-009  0.1266852E+03  0.7561462E-02  0.1232459E+00
         -1   -1    0    0    0  501 -0.00000000000E+00  0.00000000000E+00  0.14844132899E+03  0.14844132899E+03  0.00000000000E+00 0.  1.
          1   -1    0    0  501    0  0.00000000000E+00 -0.00000000000E+00 -0.14915198104E+03  0.14915198104E+03  0.00000000000E+00 0. -1.
         25    2    1    2    0    0  0.26533060328E+02 -0.82133296845E+02 -0.56260411001E+02  0.16205707821E+03  0.12508949201E+03 0.  0.
         23    2    1    2    0    0 -0.26533060328E+02  0.82133296845E+02  0.55549758953E+02  0.13553623182E+03  0.88512217660E+02 0.  0.
          5    1    3    3  502    0  0.58023903906E+02 -0.80328707103E+02 -0.20545493072E+01  0.99202662173E+02  0.41800000000E+01 0. -1.
         -5    1    3    3    0  502 -0.31490843578E+02 -0.18045897414E+01 -0.54205861694E+02  0.62854416037E+02  0.41800000000E+01 0. -1.
        -11    1    4    4    0    0  0.29516724638E+02  0.49162321224E+02  0.35693625667E+02  0.67544102442E+02  0.00000000000E+00 0.  1.
         11    1    4    4    0    0 -0.56049784966E+02  0.32970975621E+02  0.19856133286E+02  0.67992129377E+02  0.00000000000E+00 0. -1.
</event>
<event>
 8    1  0.6692409E-009  0.2045421E+03  0.7561462E-02  0.1145962E+00
         -2   -1    0    0    0  501 -0.00000000000E+00  0.00000000000E+00  0.12368854496E+03  0.12368854496E+03  0.00000000000E+00 0.  1.
          2   -1    0    0  501    0  0.00000000000E+00 -0.00000000000E+00 -0.40373136474E+03  0.40373136474E+03  0.00000000000E+00 0. -1.
         25    2    1    2    0    0  0.16909005523E+03  0.88845434102E+02 -0.98739289043E+02  0.24876127159E+03  0.12509102728E+03 0.  0.
         23    2    1    2    0    0 -0.16909005523E+03 -0.88845434102E+02 -0.18130353074E+03  0.27865863810E+03  0.91075289675E+02 0.  0.
          5    1    3    3  502    0  0.57484340157E+02  0.61867936682E+02 -0.10364519658E+03  0.13376057015E+03  0.41800000000E+01 0.  1.
         -5    1    3    3    0  502  0.11160571507E+03  0.26977497420E+02  0.49059075377E+01  0.11500070144E+03  0.41800000000E+01 0.  1.
        -11    1    4    4    0    0 -0.10920536225E+03 -0.86524251853E+01 -0.11365890410E+03  0.15785760066E+03  0.00000000000E+00 0. -1.
         11    1    4    4    0    0 -0.59884692983E+02 -0.80193008917E+02 -0.67644626642E+02  0.12080103744E+03  0.00000000000E+00 0.  1.
</event>
<event>
 8    1  0.6692409E-009  0.1076141E+03  0.7561462E-02  0.1265053E+00
         -2   -1    0    0    0  501 -0.00000000000E+00  0.00000000000E+00  0.34071976085E+02  0.34071976085E+02  0.00000000000E+00 0.  1.
          2   -1    0    0  501    0  0.00000000000E+00 -0.00000000000E+00 -0.43219787818E+03  0.43219787818E+03  0.00000000000E+00 0. -1.
         25    2    1    2    0    0 -0.54432384615E+02 -0.20620654340E+02 -0.24934128186E+03  0.28495664300E+03  0.12506445406E+03 0.  0.
         23    2    1    2    0    0  0.54432384615E+02  0.20620654340E+02 -0.14878462023E+03  0.18131321126E+03  0.85729350173E+02 0.  0.
          5    1    3    3  502    0 -0.39362911856E+02  0.50306892001E+02 -0.13644731680E+03  0.15071683673E+03  0.41800000000E+01 0. -1.
         -5    1    3    3    0  502 -0.15069472759E+02 -0.70927546340E+02 -0.11289396506E+03  0.13423980626E+03  0.41800000000E+01 0. -1.
        -11    1    4    4    0    0  0.45893723668E+02  0.37762805825E+02 -0.41878718797E+02  0.72705505046E+02  0.00000000000E+00 0.  1.
         11    1    4    4    0    0  0.85386609466E+01 -0.17142151485E+02 -0.10690590144E+03  0.10860770622E+03  0.00000000000E+00 0. -1.
</event>
<event>
 7    1  0.6692409E-009  0.9549906E+02  0.7561462E-02  0.1290056E+00
         -2   -1    0    0    0  501 -0.00000000000E+00  0.00000000000E+00  0.28425185865E+03  0.28425185865E+03  0.00000000000E+00 0.  1.
          2   -1    0    0  501    0  0.00000000000E+00 -0.00000000000E+00 -0.54616010111E+02  0.54616010111E+02  0.00000000000E+00 0. -1.
         23    2    1    2    0    0  0.49178338895E+02  0.57859171100E+01  0.15042268217E+03  0.18280847543E+03  0.91323433603E+02 0.  0.
          5    1    1    2  502    0 -0.76350678989E+02 -0.87808118940E+01  0.96508468634E+02  0.12344183147E+03  0.41800000000E+01 0. -1.
         -5    1    1    2    0  502  0.27172340094E+02  0.29948947840E+01 -0.17295302265E+02  0.32617561856E+02  0.41800000000E+01 0. -1.
        -11    1    3    3    0    0  0.40623386721E+01  0.33290213387E+02  0.13694131848E+02  0.36225269494E+02  0.00000000000E+00 0. -1.
         11    1    3    3    0    0  0.45116000223E+02 -0.27504296277E+02  0.13672855032E+03  0.14658320594E+03  0.00000000000E+00 0.  1.
</event>
<event>
 8    1  0.6692409E-009  0.1252465E+03  0.7561462E-02  0.1234685E+00
         -2   -1    0    0    0  501 -0.00000000000E+00  0.00000000000E+00  0.40407324047E+02  0.40407324047E+02  0.00000000000E+00 0.  1.
          2   -1    0    0  501    0  0.00000000000E+00 -0.00000000000E+00 -0.74515946230E+03  0.74515946230E+03  0.00000000000E+00 0. -1.
         25    2    1    2    0    0  0.99302764498E+02 -0.22912061555E+02 -0.57573512788E+03  0.59791663846E+03  0.12508943789E+03 0.  0.
         23    2    1    2    0    0 -0.99302764498E+02  0.22912061555E+02 -0.12901701038E+03  0.18765014789E+03  0.90449916722E+02 0.  0.
          5    1    3    3  502    0 -0.60301000173E+01  0.17842530360E+02 -0.29000799725E+03  0.29064897878E+03  0.41800000000E+01 0. -1.
         -5    1    3    3    0  502  0.10533286451E+03 -0.40754591916E+02 -0.28572713063E+03  0.30726765968E+03  0.41800000000E+01 0. -1.
        -11    1    4    4    0    0 -0.94866084115E+02  0.23045134953E-01 -0.13363341717E+03  0.16388247200E+03  0.00000000000E+00 0.  1.
         11    1    4    4    0    0 -0.44366803825E+01  0.22889016420E+02  0.46164067872E+01  0.23767675888E+02  0.00000000000E+00 0. -1.
</event>
<event>
 8    1  0.6692409E-009  0.1082541E+03  0.7561462E-02  0.1263838E+00
          1   -1    0    0  501    0  0.00000000000E+00  0.00000000000E+00  0.35513843304E+03  0.35513843304E+03  0.00000000000E+00 0. -1.
         -1   -1    0    0    0  501 -0.00000000000E+00 -0.00000000000E+00 -0.40706555044E+02  0.40706555044E+02  0.00000000000E+00 0.  1.
         25    2    1    2    0    0  0.32099926240E+02 -0.41059692521E+02  0.17626629398E+03  0.22233588085E+03  0.12508850429E+03 0.  0.
         23    2    1    2    0    0 -0.32099926240E+02  0.41059692521E+02  0.13816558401E+03  0.17350910723E+03  0.91100922448E+02 0.  0.
          5    1    3    3  502    0  0.68787664137E+02 -0.49604580814E+02  0.15991190821E+03  0.18105702959E+03  0.41800000000E+01 0.  1.
         -5    1    3    3    0  502 -0.36687737897E+02  0.85448882928E+01  0.16354385768E+02  0.41278851265E+02  0.41800000000E+01 0.  1.
        -11    1    4    4    0    0 -0.21496795664E+02 -0.21406323876E+02  0.86784974921E+02  0.91934622410E+02  0.00000000000E+00 0. -1.
         11    1    4    4    0    0 -0.10603130577E+02  0.62466016397E+02  0.51380609091E+02  0.81574484817E+02  0.00000000000E+00 0.  1.
</event>
<event>
 8    1  0.6692409E-009  0.2036839E+03  0.7561462E-02  0.1146668E+00
          2   -1    0    0  501    0  0.00000000000E+00  0.00000000000E+00  0.92622385902E+03  0.92622385902E+03  0.00000000000E+00 0. -1.
         -2   -1    0    0    0  501 -0.00000000000E+00 -0.00000000000E+00 -0.49359399520E+02  0.49359399520E+02  0.00000000000E+00 0.  1.
         25    2    1    2    0    0 -0.17822698395E+03 -0.47330194916E+02  0.43629774917E+03  0.48990564307E+03  0.12508720165E+03 0.  0.
         23    2    1    2    0    0  0.17822698395E+03  0.47330194916E+02  0.44056671033E+03  0.48567761548E+03  0.88197022445E+02 0.  0.
          5    1    3    3  502    0 -0.15852982622E+03 -0.84253989570E+02  0.33214738162E+03  0.37758415761E+03  0.41800000000E+01 0. -1.
         -5    1    3    3    0  502 -0.19697157728E+02  0.36923794654E+02  0.10415036755E+03  0.11232148545E+03  0.41800000000E+01 0. -1.
        -11    1    4    4    0    0  0.12277956067E+03  0.21837822706E+02  0.37900173789E+03  0.39899126349E+03  0.00000000000E+00 0. -1.
         11    1    4    4    0    0  0.55447423281E+02  0.25492372210E+02  0.61564972438E+02  0.86686351987E+02  0.00000000000E+00 0.  1.
</event>
<event>
 8    1  0.6692409E-009  0.1137010E+03  0.7561462E-02  0.1253866E+00
         -3   -1    0    0    0  501 -0.00000000000E+00  0.00000000000E+00  0.97962753523E+02  0.97962753523E+02  0.00000000000E+00 0.  1.
          3   -1    0    0  501    0  0.00000000000E+00 -0.00000000000E+00 -0.20273053971E+03  0.20273053971E+03  0.00000000000E+00 0. -1.
         25    2    1    2    0    0  0.51866085945E+02  0.34212372855E+02  0.12160682622E+02  0.14019993039E+03  0.12509021126E+03 0.  0.
         23    2    1    2    0    0 -0.51866085945E+02 -0.34212372855E+02 -0.11692846880E+03  0.16049336283E+03  0.90693303884E+02 0.  0.
          5    1    3    3  502    0  0.81717734116E+01  0.74646415638E+02  0.24809989355E+02  0.79195159070E+02  0.41800000000E+01 0.  1.
         -5    1    3    3    0  502  0.43694312533E+02 -0.40434042783E+02 -0.12649306733E+02  0.61004771325E+02  0.41800000000E+01 0.  1.
        -11    1    4    4    0    0  0.72267584933E+01 -0.32608714983E+02 -0.89103257856E+02  0.95157474177E+02  0.00000000000E+00 0. -1.
         11    1    4    4    0    0 -0.59092844438E+02 -0.16036578715E+01 -0.27825210949E+02  0.65335888658E+02  0.00000000000E+00 0.  1.
</event>
<event>
 8    1  0.6692409E-009  0.1231770E+03  0.7561462E-02  0.1237946E+00
         -2   -1    0    0    0  501 -0.00000000000E+00  0.00000000000E+00  0.52019827769E+02  0.52019827769E+02  0.00000000000E+00 0.  1.
          2   -1    0    0  501    0  0.00000000000E+00 -0.00000000000E+00 -0.63852476471E+03  0.63852476471E+03  0.00000000000E+00 0. -1.
         25    2    1    2    0    0  0.26777447452E+02 -0.73747396855E+02 -0.54436780954E+03  0.56403877424E+03  0.12509083323E+03 0.  0.
         23    2    1    2    0    0 -0.26777447452E+02  0.73747396855E+02 -0.42137127405E+02  0.12650581824E+03  0.89846949344E+02 0.  0.
          5    1    3    3  502    0  0.68984934931E+02 -0.17904499987E+02 -0.19393135472E+03  0.20665511150E+03  0.41800000000E+01 0. -1.
         -5    1    3    3    0  502 -0.42207487478E+02 -0.55842896868E+02 -0.35043645482E+03  0.35738366274E+03  0.41800000000E+01 0. -1.
        -11    1    4    4    0    0  0.11224434649E+02  0.64840969363E+02 -0.54627000909E+02  0.85524548929E+02  0.00000000000E+00 0. -1.
         11    1    4    4    0    0 -0.38001882101E+02  0.89064274917E+01  0.12489873503E+02  0.40981269307E+02  0.00000000000E+00 0.  1.
</event>
<event>
 8    1  0.6692409E-009  0.7922616E+02  0.7561462E-02  0.1331262E+00
          2   -1    0    0  501    0  0.00000000000E+00  0.00000000000E+00  0.58072216280E+02  0.58072216280E+02  0.00000000000E+00 0. -1.
         -2   -1    0    0    0  501 -0.00000000000E+00 -0.00000000000E+00 -0.31860070513E+03  0.31860070513E+03  0.00000000000E+00 0.  1.
         25    2    1    2    0    0 -0.73040372292E+01  0.13650219782E+01 -0.25590218093E+03  0.28493707415E+03  0.12509195729E+03 0.  0.
         23    2    1    2    0    0  0.73040372292E+01 -0.13650219782E+01 -0.46263079218E+01  0.91735847257E+02  0.91317307790E+02 0.  0.
          5    1    3    3  502    0  0.73162132709E+01 -0.44892871136E+02 -0.31924192411E+02  0.55727222402E+02  0.41800000000E+01 0.  1.
         -5    1    3    3    0  502 -0.14620250500E+02  0.46257893115E+02 -0.22397798852E+03  0.22920985175E+03  0.41800000000E+01 0.  1.
        -11    1    4    4    0    0  0.35300688198E+02 -0.56815516427E+01 -0.35117646551E+02  0.50116541337E+02  0.00000000000E+00 0.  1.
         11    1    4    4    0    0 -0.27996650969E+02  0.43165296646E+01  0.30491338629E+02  0.41619305919E+02  0.00000000000E+00 0. -1.
</event>
<event>
 8    1  0.6692409E-009  0.1242151E+03  0.7561462E-02  0.1236301E+00
         -1   -1    0    0    0  501 -0.00000000000E+00  0.00000000000E+00  0.12013114156E+03  0.12013114156E+03  0.00000000000E+00 0.  1.
          1   -1    0    0  501    0  0.00000000000E+00 -0.00000000000E+00 -0.18884688704E+03  0.18884688704E+03  0.00000000000E+00 0. -1.
         25    2    1    2    0    0  0.55474189746E+02 -0.83703420723E+02 -0.67819404041E+02  0.17415745191E+03  0.12509075953E+03 0.  0.
         23    2    1    2    0    0 -0.55474189746E+02  0.83703420723E+02 -0.89634144187E+00  0.13482057669E+03  0.89956301071E+02 0.  0.
          5    1    3    3  502    0  0.72572654439E+02 -0.60916551612E+02  0.58885508941E+01  0.95025069662E+02  0.41800000000E+01 0. -1.
         -5    1    3    3    0  502 -0.17098464693E+02 -0.22786869111E+02 -0.73707954935E+02  0.79132382243E+02  0.41800000000E+01 0. -1.
        -11    1    4    4    0    0 -0.74000550331E+02  0.68256667871E+02 -0.21679508874E+02  0.10298084901E+03  0.00000000000E+00 0. -1.
         11    1    4    4    0    0  0.18526360585E+02  0.15446752853E+02  0.20783167432E+02  0.31839727679E+02  0.00000000000E+00 0.  1.
</event>
<event>
 8    1  0.6692409E-009  0.1052300E+03  0.7561462E-02  0.1269667E+00
          1   -1    0    0  501    0  0.00000000000E+00  0.00000000000E+00  0.19215237871E+03  0.19215237871E+03  0.00000000000E+00 0. -1.
         -1   -1    0    0    0  501 -0.00000000000E+00 -0.00000000000E+00 -0.23308885467E+03  0.23308885467E+03  0.00000000000E+00 0.  1.
         25    2    1    2    0    0 -0.61131299691E+02  0.67732011618E+02 -0.17919938458E+03  0.23682096971E+03  0.12508833302E+03 0.  0.
         23    2    1    2    0    0  0.61131299691E+02 -0.67732011618E+02  0.13826290863E+03  0.18842026367E+03  0.89782529811E+02 0.  0.
          5    1    3    3  502    0 -0.11990576999E+02 -0.80050954931E+01 -0.13568351340E+03  0.13651133176E+03  0.41800000000E+01 0.  1.
         -5    1    3    3    0  502 -0.49140722692E+02  0.75737107112E+02 -0.43515871183E+02  0.10030963795E+03  0.41800000000E+01 0.  1.
        -11    1    4    4    0    0  0.81416210439E+01 -0.47747985053E+02  0.11797090981E+02  0.49853058337E+02  0.00000000000E+00 0.  1.
         11    1    4    4    0    0  0.52989678647E+02 -0.19984026565E+02  0.12646581764E+03  0.13856720533E+03  0.00000000000E+00 0. -1.
</event>
<event>
 8    1  0.6692409E-009  0.9864279E+02  0.7561462E-02  0.1283176E+00
         -2   -1    0    0    0  501 -0.00000000000E+00  0.00000000000E+00  0.32228563148E+03  0.32228563148E+03  0.00000000000E+00 0.  1.
          2   -1    0    0  501    0  0.00000000000E+00 -0.00000000000E+00 -0.47444731839E+02  0.47444731839E+02  0.00000000000E+00 0. -1.
         25    2    1    2    0    0 -0.54434141926E+02  0.74726042888E+01  0.12549225607E+03  0.18551457335E+03  0.12509370476E+03 0.  0.
         23    2    1    2    0    0  0.54434141926E+02 -0.74726042888E+01  0.14934864358E+03  0.18421578997E+03  0.92798299094E+02 0.  0.
          5    1    3    3  502    0  0.22229404594E+02 -0.37417555564E+02  0.63526347915E+02  0.77118669416E+02  0.41800000000E+01 0. -1.
         -5    1    3    3    0  502 -0.76663546520E+02  0.44890159853E+02  0.61965908152E+02  0.10839590393E+03  0.41800000000E+01 0. -1.
        -11    1    4    4    0    0  0.29890170797E+02 -0.21066470380E+02  0.15171433889E+03  0.15605915260E+03  0.00000000000E+00 0.  1.
         11    1    4    4    0    0  0.24543971129E+02  0.13593866091E+02 -0.23656953106E+01  0.28156637377E+02  0.00000000000E+00 0. -1.
</event>
<event>
 8    1  0.6692409E-009  0.1036379E+03  0.7561462E-02  0.1272827E+00
         -1   -1    0    0    0  501 -0.00000000000E+00  0.00000000000E+00  0.42012776919E+02  0.42012776919E+02  0.00000000000E+00 0.  1.
          1   -1    0    0  501    0  0.00000000000E+00 -0.00000000000E+00 -0.52668252154E+03  0.52668252154E+03  0.00000000000E+00 0. -1.
         25    2    1    2    0    0  0.12167350366E+01  0.11796467758E+02 -0.46219622905E+03  0.47897161814E+03  0.12509124564E+03 0.  0.
         23    2    1    2    0    0 -0.12167350366E+01 -0.11796467758E+02 -0.22473515567E+02  0.89723680319E+02  0.86050234237E+02 0.  0.
          5    1    3    3  502    0 -0.50048700891E+02  0.40924982914E+02 -0.28124143127E+03  0.28860689830E+03  0.41800000000E+01 0. -1.
         -5    1    3    3    0  502  0.51265435927E+02 -0.29128515156E+02 -0.18095479778E+03  0.19036471983E+03  0.41800000000E+01 0. -1.
        -11    1    4    4    0    0 -0.12135890828E+01 -0.47580098846E+02 -0.25165325043E+02  0.53838946769E+02  0.00000000000E+00 0.  1.
         11    1    4    4    0    0 -0.31459537687E-02  0.35783631088E+02  0.26918094760E+01  0.35884733550E+02  0.00000000000E+00 0. -1.
</event>
<event>
 8    1  0.6692409E-009  0.1110262E+03  0.7561462E-02  0.1258681E+00
          3   -1    0    0  501    0  0.00000000000E+00  0.00000000000E+00  0.13581974208E+03  0.13581974208E+03  0.00000000000E+00 0. -1.
         -3   -1    0    0    0  501 -0.00000000000E+00 -0.00000000000E+00 -0.14181590720E+03  0.14181590720E+03  0.00000000000E+00 0.  1.
         25    2    1    2    0    0  0.80733599764E+02  0.18345654748E+02  0.25802275412E+02  0.15216289543E+03  0.12503324418E+03 0.  0.
         23    2    1    2    0    0 -0.80733599764E+02 -0.18345654748E+02 -0.31798440534E+02  0.12547275385E+03  0.88756937530E+02 0.  0.
          5    1    3    3  502    0 -0.67004460611E+00  0.51201082857E+02 -0.17389894637E+02  0.54239106565E+02  0.41800000000E+01 0.  1.
         -5    1    3    3    0  502  0.81403644370E+02 -0.32855428109E+02  0.43192170049E+02  0.97923788869E+02  0.41800000000E+01 0.  1.
        -11    1    4    4    0    0 -0.23317492578E+02 -0.55169262749E+01  0.31158029162E+02  0.39306039192E+02  0.00000000000E+00 0. -1.
         11    1    4    4    0    0 -0.57416107185E+02 -0.12828728473E+02 -0.62956469697E+02  0.86166714659E+02  0.00000000000E+00 0.  1.
</event>
<event>
 8    1  0.6692409E-009  0.9340154E+02  0.7561462E-02  0.1294817E+00
          2   -1    0    0  501    0  0.00000000000E+00  0.00000000000E+00  0.23693722197E+03  0.23693722197E+03  0.00000000000E+00 0. -1.
         -2   -1    0    0    0  501 -0.00000000000E+00 -0.00000000000E+00 -0.58477508270E+02  0.58477508270E+02  0.00000000000E+00 0.  1.
         25    2    1    2    0    0 -0.40095195342E+01  0.28019647886E+02  0.14248817034E+03  0.19170719482E+03  0.12509033913E+03 0.  0.
         23    2    1    2    0    0  0.40095195342E+01 -0.28019647886E+02  0.35971543362E+02  0.10370753542E+03  0.93059787541E+02 0.  0.
          5    1    3    3  502    0  0.91569704453E+01 -0.36244486946E+02  0.11403888314E+03  0.12008268905E+03  0.41800000000E+01 0.  1.
         -5    1    3    3    0  502 -0.13166489979E+02  0.64264134832E+02  0.28449287195E+02  0.71624505764E+02  0.41800000000E+01 0.  1.
        -11    1    4    4    0    0  0.40065125883E+02 -0.25106458184E+02 -0.67143564884E+01  0.47755953949E+02  0.00000000000E+00 0.  1.
         11    1    4    4    0    0 -0.36055606348E+02 -0.29131897017E+01  0.42685899851E+02  0.55951581474E+02  0.00000000000E+00 0. -1.
</event>
<event>
 8    1  0.6692409E-009  0.2967176E+03  0.7561462E-02  0.1086893E+00
         -2   -1    0    0    0  501 -0.00000000000E+00  0.00000000000E+00  0.11548706907E+03  0.11548706907E+03  0.00000000000E+00 0.  1.
          2   -1    0    0  501    0  0.00000000000E+00 -0.00000000000E+00 -0.10452744970E+04  0.10452744970E+04  0.00000000000E+00 0. -1.
         25    2    1    2    0    0 -0.29047492711E+03 -0.47858466857E+02 -0.21850523707E+03  0.38737323189E+03  0.12508943210E+03 0.  0.
         23    2    1    2    0    0  0.29047492711E+03  0.47858466857E+02 -0.71128219086E+03  0.77338833419E+03  0.74438191138E+02 0.  0.
          5    1    3    3  502    0 -0.15917224319E+03 -0.12320994995E+00 -0.18414393593E+03  0.24343845161E+03  0.41800000000E+01 0.  1.
         -5    1    3    3    0  502 -0.13130268392E+03 -0.47735256907E+02 -0.34361301144E+02  0.14393478027E+03  0.41800000000E+01 0.  1.
        -11    1    4    4    0    0  0.10155657591E+03  0.14281042566E+02 -0.16381385829E+03  0.19326837935E+03  0.00000000000E+00 0. -1.
         11    1    4    4    0    0  0.18891835120E+03  0.33577424291E+02 -0.54746833257E+03  0.58011995484E+03  0.00000000000E+00 0.  1.
</event>
<event>
 8    1  0.6692409E-009  0.1116541E+03  0.7561462E-02  0.1257537E+00
         -1   -1    0    0    0  501 -0.00000000000E+00  0.00000000000E+00  0.47256596468E+02  0.47256596468E+02  0.00000000000E+00 0.  1.
          1   -1    0    0  501    0  0.00000000000E+00 -0.00000000000E+00 -0.38640069080E+03  0.38640069080E+03  0.00000000000E+00 0. -1.
         25    2    1    2    0    0 -0.60135064334E+02  0.52798000452E+02 -0.20190179294E+03  0.25063107427E+03  0.12509095324E+03 0.  0.
         23    2    1    2    0    0  0.60135064334E+02 -0.52798000452E+02 -0.13724230139E+03  0.18302621300E+03  0.90880638970E+02 0.  0.
          5    1    3    3  502    0 -0.37822199258E+02 -0.35305894109E+02 -0.42481003042E+02  0.67075576293E+02  0.41800000000E+01 0.  1.
         -5    1    3    3    0  502 -0.22312865076E+02  0.88103894561E+02 -0.15942078990E+03  0.18355549798E+03  0.41800000000E+01 0.  1.
        -11    1    4    4    0    0  0.17895181121E+02 -0.11068259551E+02  0.10705367273E+02  0.23608235116E+02  0.00000000000E+00 0.  1.
         11    1    4    4    0    0  0.42239883213E+02 -0.41729740900E+02 -0.14794766866E+03  0.15941797788E+03  0.00000000000E+00 0. -1.
</event>
<event>
 8    1  0.6692409E-009  0.1354977E+03  0.7561462E-02  0.1219519E+00
         -1   -1    0    0    0  501 -0.00000000000E+00  0.00000000000E+00  0.16380196943E+03  0.16380196943E+03  0.00000000000E+00 0.  1.
          1   -1    0    0  501    0  0.00000000000E+00 -0.00000000000E+00 -0.15758014980E+03  0.15758014980E+03  0.00000000000E+00 0. -1.
         25    2    1    2    0    0 -0.95554171069E+02 -0.10259001460E+02  0.66567813227E+02  0.17121437857E+03  0.12508894016E+03 0.  0.
         23    2    1    2    0    0  0.95554171069E+02  0.10259001460E+02 -0.60345993593E+02  0.15016774066E+03  0.98350722790E+02 0.  0.
          5    1    3    3  502    0  0.94436060229E+01 -0.34066196106E+02  0.51231168210E+02  0.62384232047E+02  0.41800000000E+01 0. -1.
         -5    1    3    3    0  502 -0.10499777709E+03  0.23807194646E+02  0.15336645017E+02  0.10883014652E+03  0.41800000000E+01 0. -1.
        -11    1    4    4    0    0  0.10783172891E+03 -0.51466800101E+01 -0.26745525639E+02  0.11121822340E+03  0.00000000000E+00 0.  1.
         11    1    4    4    0    0 -0.12277557841E+02  0.15405681470E+02 -0.33600467955E+02  0.38949517261E+02  0.00000000000E+00 0. -1.
</event>
<event>
 8    1  0.6692409E-009  0.1522684E+03  0.7561462E-02  0.1197713E+00
         -2   -1    0    0    0  501 -0.00000000000E+00  0.00000000000E+00  0.25498970706E+02  0.25498970706E+02  0.00000000000E+00 0.  1.
          2   -1    0    0  501    0  0.00000000000E+00 -0.00000000000E+00 -0.10604939047E+04  0.10604939047E+04  0.00000000000E+00 0. -1.
         25    2    1    2    0    0 -0.11315360763E+03  0.21409970302E+02 -0.68864497866E+03  0.70932693409E+03  0.12510262607E+03 0.  0.
         23    2    1    2    0    0  0.11315360763E+03 -0.21409970302E+02 -0.34634995537E+03  0.37666594135E+03  0.93042001469E+02 0.  0.
          5    1    3    3  502    0  0.12411699215E+01 -0.35047197987E+02 -0.80094934525E+02  0.87535807108E+02  0.41800000000E+01 0. -1.
         -5    1    3    3    0  502 -0.11439477755E+03  0.56457168289E+02 -0.60855004413E+03  0.62179112698E+03  0.41800000000E+01 0. -1.
        -11    1    4    4    0    0  0.67826257421E+00  0.21271001917E+02 -0.21481183684E+02  0.30238333538E+02  0.00000000000E+00 0.  1.
         11    1    4    4    0    0  0.11247534506E+03 -0.42680972219E+02 -0.32486877169E+03  0.34642760781E+03  0.00000000000E+00 0. -1.
</event>
<event>
 8    1  0.6692409E-009  0.2211193E+03  0.7561462E-02  0.1133051E+00
          2   -1    0    0  501    0  0.00000000000E+00  0.00000000000E+00  0.10625949353E+04  0.10625949353E+04  0.00000000000E+00 0. -1.
         -2   -1    0    0    0  501 -0.00000000000E+00 -0.00000000000E+00 -0.68351017096E+02  0.68351017096E+02  0.00000000000E+00 0.  1.
         25    2    1    2    0    0 -0.20586047054E+03 -0.67682470360E+01  0.77522855659E+03  0.81182016620E+03  0.12509326437E+03 0.  0.
         23    2    1    2    0    0  0.20586047054E+03  0.67682470360E+01  0.21901536161E+03  0.31912578620E+03  0.10700091725E+03 0.  0.
          5    1    3    3  502    0 -0.87253971479E+02  0.19992370036E+02  0.53593736128E+03  0.54337765689E+03  0.41800000000E+01 0.  1.
         -5    1    3    3    0  502 -0.11860649907E+03 -0.26760617072E+02  0.23929119531E+03  0.26844250930E+03  0.41800000000E+01 0.  1.
        -11    1    4    4    0    0  0.89165224920E+02 -0.48876951925E+02  0.11223720898E+03  0.15144829099E+03  0.00000000000E+00 0.  1.
         11    1    4    4    0    0  0.11669524563E+03  0.55645198961E+02  0.10677815264E+03  0.16767749521E+03  0.00000000000E+00 0. -1.
</event>
<event>
 8    1  0.6692409E-009  0.8306871E+02  0.7561462E-02  0.1320562E+00
          1   -1    0    0  501    0  0.00000000000E+00  0.00000000000E+00  0.93973406490E+03  0.93973406490E+03  0.00000000000E+00 0. -1.
         -1   -1    0    0    0  501 -0.00000000000E+00 -0.00000000000E+00 -0.19371958764E+02  0.19371958764E+02  0.00000000000E+00 0.  1.
         25    2    1    2    0    0  0.23188426990E+02 -0.44791340680E+02  0.71113755604E+03  0.72381488351E+03  0.12508954648E+03 0.  0.
         23    2    1    2    0    0 -0.23188426990E+02  0.44791340680E+02  0.20922455010E+03  0.23529114015E+03  0.95094904826E+02 0.  0.
          5    1    3    3  502    0 -0.12416990624E+02 -0.24175980021E+01  0.31960520138E+01  0.13700860730E+02  0.41800000000E+01 0.  1.
         -5    1    3    3    0  502  0.35605417614E+02 -0.42373742678E+02  0.70794150403E+03  0.71011402278E+03  0.41800000000E+01 0.  1.
        -11    1    4    4    0    0  0.29778315976E+02  0.30105859574E+02  0.14347376649E+03  0.14959222090E+03  0.00000000000E+00 0. -1.
         11    1    4    4    0    0 -0.52966742966E+02  0.14685481107E+02  0.65750783607E+02  0.85698919251E+02  0.00000000000E+00 0.  1.
</event>
<event>
 8    1  0.6692409E-009  0.2490697E+03  0.7561462E-02  0.1113894E+00
          2   -1    0    0  501    0  0.00000000000E+00  0.00000000000E+00  0.14098421968E+04  0.14098421968E+04  0.00000000000E+00 0.  1.
         -2   -1    0    0    0  501 -0.00000000000E+00 -0.00000000000E+00 -0.50497175188E+02  0.50497175188E+02  0.00000000000E+00 0. -1.
         25    2    1    2    0    0  0.29506045061E+02  0.23911028755E+03  0.78661067095E+03  0.83213434575E+03  0.12508751098E+03 0.  0.
         23    2    1    2    0    0 -0.29506045061E+02 -0.23911028755E+03  0.57273435068E+03  0.62820502627E+03  0.92588240454E+02 0.  0.
          5    1    3    3  502    0  0.11030599431E+02  0.74723042171E+02  0.97341492070E+02  0.12328035380E+03  0.41800000000E+01 0. -1.
         -5    1    3    3    0  502  0.18475445629E+02  0.16438724538E+03  0.68926917888E+03  0.70885399194E+03  0.41800000000E+01 0. -1.
        -11    1    4    4    0    0  0.19781425295E+02 -0.17517423987E+03  0.41868966485E+03  0.45428884484E+03  0.00000000000E+00 0.  1.
         11    1    4    4    0    0 -0.49287470355E+02 -0.63936047679E+02  0.15404468583E+03  0.17391618142E+03  0.00000000000E+00 0. -1.
</event>
<event>
 8    1  0.6692409E-009  0.1115064E+03  0.7561462E-02  0.1257805E+00
          1   -1    0    0  501    0  0.00000000000E+00  0.00000000000E+00  0.83892051245E+02  0.83892051245E+02  0.00000000000E+00 0. -1.
         -1   -1    0    0    0  501 -0.00000000000E+00 -0.00000000000E+00 -0.19280561554E+03  0.19280561554E+03  0.00000000000E+00 0.  1.
         25    2    1    2    0    0 -0.20781376693E+02 -0.61989363683E+02 -0.30134727551E+02  0.14432492939E+03  0.12508811538E+03 0.  0.
         23    2    1    2    0    0  0.20781376693E+02  0.61989363683E+02 -0.78778836739E+02  0.13237273740E+03  0.83915967852E+02 0.  0.
          5    1    3    3  502    0  0.31592235836E+01  0.35802348225E+02  0.71473491638E+01  0.36882866376E+02  0.41800000000E+01 0. -1.
         -5    1    3    3    0  502 -0.23940600276E+02 -0.97791711908E+02 -0.37282076714E+02  0.10744206301E+03  0.41800000000E+01 0. -1.
        -11    1    4    4    0    0  0.38375302744E+02  0.27072276169E+02 -0.29487896418E+01  0.47056002360E+02  0.00000000000E+00 0. -1.
         11    1    4    4    0    0 -0.17593926052E+02  0.34917087514E+02 -0.75830047097E+02  0.85316735036E+02  0.00000000000E+00 0.  1.
</event>
<event>
 8    1  0.6692409E-009  0.1107918E+03  0.7561462E-02  0.1259111E+00
          1   -1    0    0  501    0  0.00000000000E+00  0.00000000000E+00  0.20898036762E+02  0.20898036762E+02  0.00000000000E+00 0. -1.
         -1   -1    0    0    0  501 -0.00000000000E+00 -0.00000000000E+00 -0.97622958092E+03  0.97622958092E+03  0.00000000000E+00 0.  1.
         25    2    1    2    0    0  0.21287322626E+02  0.46976485898E+02 -0.78522268156E+03  0.79679552860E+03  0.12509402235E+03 0.  0.
         23    2    1    2    0    0 -0.21287322626E+02 -0.46976485898E+02 -0.17010886260E+03  0.20033208908E+03  0.92390369897E+02 0.  0.
          5    1    3    3  502    0  0.61431381442E+02  0.10852732724E+02 -0.21221818012E+03  0.22123658108E+03  0.41800000000E+01 0. -1.
         -5    1    3    3    0  502 -0.40144058816E+02  0.36123753174E+02 -0.57300450144E+03  0.57555894752E+03  0.41800000000E+01 0. -1.
        -11    1    4    4    0    0 -0.35212358513E+02  0.17225957920E+02 -0.76670202977E+02  0.86110184316E+02  0.00000000000E+00 0.  1.
         11    1    4    4    0    0  0.13925035887E+02 -0.64202443819E+02 -0.93438659621E+02  0.11422190477E+03  0.00000000000E+00 0. -1.
</event>
<event>
 8    1  0.6692409E-009  0.8435265E+02  0.7561462E-02  0.1317134E+00
         -3   -1    0    0    0  501 -0.00000000000E+00  0.00000000000E+00  0.21365491705E+03  0.21365491705E+03  0.00000000000E+00 0.  1.
          3   -1    0    0  501    0  0.00000000000E+00 -0.00000000000E+00 -0.82271552782E+02  0.82271552782E+02  0.00000000000E+00 0. -1.
         25    2    1    2    0    0  0.49686051516E+02  0.24034391723E+02  0.12843325575E+03  0.18759144278E+03  0.12509633296E+03 0.  0.
         23    2    1    2    0    0 -0.49686051516E+02 -0.24034391723E+02  0.29501085185E+01  0.10833502705E+03  0.93174133991E+02 0.  0.
          5    1    3    3  502    0  0.16550185515E+02 -0.21876054672E+02  0.12783811091E+03  0.13081485164E+03  0.41800000000E+01 0.  1.
         -5    1    3    3    0  502  0.33135866001E+02  0.45910446395E+02  0.59514483637E+00  0.56776591138E+02  0.41800000000E+01 0.  1.
        -11    1    4    4    0    0  0.15346236851E+02 -0.75092649030E+01 -0.29277437054E+02  0.33897851928E+02  0.00000000000E+00 0.  1.
         11    1    4    4    0    0 -0.65032288367E+02 -0.16525126820E+02  0.32227545572E+02  0.74437175123E+02  0.00000000000E+00 0. -1.
</event>
<event>
 8    1  0.6692409E-009  0.9710885E+02  0.7561462E-02  0.1286496E+00
          2   -1    0    0  501    0  0.00000000000E+00  0.00000000000E+00  0.16443325254E+03  0.16443325254E+03  0.00000000000E+00 0.  1.
         -2   -1    0    0    0  501 -0.00000000000E+00 -0.00000000000E+00 -0.82342318832E+02  0.82342318832E+02  0.00000000000E+00 0. -1.
         25    2    1    2    0    0  0.16501926407E+02 -0.38874126182E+02  0.37840778059E+02  0.13733910631E+03  0.12508634769E+03 0.  0.
         23    2    1    2    0    0 -0.16501926407E+02  0.38874126182E+02  0.44250155650E+02  0.10943646506E+03  0.90745536243E+02 0.  0.
          5    1    3    3  502    0 -0.48954697956E+01  0.25824937025E+02 -0.30676637676E+02  0.40613070506E+02  0.41800000000E+01 0.  1.
         -5    1    3    3    0  502  0.21397396202E+02 -0.64699063207E+02  0.68517415735E+02  0.96726035808E+02  0.41800000000E+01 0.  1.
        -11    1    4    4    0    0  0.35178442136E+02  0.31317683946E+02  0.14267822645E+02  0.49212710573E+02  0.00000000000E+00 0.  1.
         11    1    4    4    0    0 -0.51680368543E+02  0.75564422362E+01  0.29982333005E+02  0.60223754487E+02  0.00000000000E+00 0. -1.
</event>
<event>
 8    1  0.6692409E-009  0.1756782E+03  0.7561462E-02  0.1172052E+00
         -2   -1    0    0    0  501 -0.00000000000E+00  0.00000000000E+00  0.58577247761E+02  0.58577247761E+02  0.00000000000E+00 0.  1.
          2   -1    0    0  501    0  0.00000000000E+00 -0.00000000000E+00 -0.73109467848E+03  0.73109467848E+03  0.00000000000E+00 0. -1.
         25    2    1    2    0    0 -0.13819155125E+03 -0.45418241957E+02 -0.16200576023E+03  0.25110345456E+03  0.12508939606E+03 0.  0.
         23    2    1    2    0    0  0.13819155125E+03  0.45418241957E+02 -0.51051167049E+03  0.53856847168E+03  0.90962142906E+02 0.  0.
          5    1    3    3  502    0 -0.99479342613E+02  0.24195768263E+02 -0.12909581660E+03  0.16481740525E+03  0.41800000000E+01 0. -1.
         -5    1    3    3    0  502 -0.38712208634E+02 -0.69614010220E+02 -0.32909943626E+02  0.86286049311E+02  0.41800000000E+01 0. -1.
        -11    1    4    4    0    0  0.59617574207E+02  0.64949682607E+02 -0.31097968934E+03  0.32323533781E+03  0.00000000000E+00 0.  1.
         11    1    4    4    0    0  0.78573977041E+02 -0.19531440649E+02 -0.19953198115E+03  0.21533313387E+03  0.00000000000E+00 0. -1.
</event>
<event>
 8    1  0.6692409E-009  0.1021599E+03  0.7561462E-02  0.1275818E+00
         -1   -1    0    0    0  501 -0.00000000000E+00  0.00000000000E+00  0.63145758348E+02  0.63145758348E+02  0.00000000000E+00 0.  1.
          1   -1    0    0  501    0  0.00000000000E+00 -0.00000000000E+00 -0.44523078617E+03  0.44523078617E+03  0.00000000000E+00 0. -1.
         25    2    1    2    0    0 -0.90447274202E+02  0.32982846487E+02 -0.76950354761E+02  0.17559809815E+03  0.12507900465E+03 0.  0.
         23    2    1    2    0    0  0.90447274202E+02 -0.32982846487E+02 -0.30513467306E+03  0.33277844637E+03  0.91464463526E+02 0.  0.
          5    1    3    3  502    0 -0.57900024225E+02  0.61306770084E+01  0.26266975264E+02  0.64011127122E+02  0.41800000000E+01 0.  1.
         -5    1    3    3    0  502 -0.32547249976E+02  0.26852169479E+02 -0.10321733002E+03  0.11158697103E+03  0.41800000000E+01 0.  1.
        -11    1    4    4    0    0  0.38572170421E+02  0.54897158102E+01 -0.27393975473E+02  0.47627504689E+02  0.00000000000E+00 0. -1.
         11    1    4    4    0    0  0.51875103781E+02 -0.38472562297E+02 -0.27774069759E+03  0.28515094168E+03  0.00000000000E+00 0.  1.
</event>
<event>
 8    1  0.6692409E-009  0.9081426E+02  0.7561462E-02  0.1300892E+00
         -1   -1    0    0    0  501 -0.00000000000E+00  0.00000000000E+00  0.15096310328E+02  0.15096310328E+02  0.00000000000E+00 0.  1.
          1   -1    0    0  501    0  0.00000000000E+00 -0.00000000000E+00 -0.13192402862E+04  0.13192402862E+04  0.00000000000E+00 0. -1.
         25    2    1    2    0    0  0.44472033097E+02  0.34585066099E+02 -0.10311207830E+04  0.10402071843E+04  0.12508808360E+03 0.  0.
         23    2    1    2    0    0 -0.44472033097E+02 -0.34585066099E+02 -0.27302319286E+03  0.29412941219E+03  0.93789971494E+02 0.  0.
          5    1    3    3  502    0  0.11989535067E+02  0.67309864675E+02 -0.86640474445E+03  0.86910817533E+03  0.41800000000E+01 0. -1.
         -5    1    3    3    0  502  0.32482498030E+02 -0.32724798576E+02 -0.16471603854E+03  0.17109900898E+03  0.41800000000E+01 0. -1.
        -11    1    4    4    0    0  0.52087560358E+01 -0.10284019167E+02  0.35646014594E+01  0.12066423382E+02  0.00000000000E+00 0.  1.
         11    1    4    4    0    0 -0.49680789132E+02 -0.24301046932E+02 -0.27658779431E+03  0.28206298881E+03  0.00000000000E+00 0. -1.
</event>
<event>
 8    1  0.6692409E-009  0.1387717E+03  0.7561462E-02  0.1214991E+00
          1   -1    0    0  501    0  0.00000000000E+00  0.00000000000E+00  0.16805733509E+03  0.16805733509E+03  0.00000000000E+00 0. -1.
         -1   -1    0    0    0  501 -0.00000000000E+00 -0.00000000000E+00 -0.12315107094E+03  0.12315107094E+03  0.00000000000E+00 0.  1.
         25    2    1    2    0    0  0.91543889194E+02  0.11411427418E+02  0.60467231136E+01  0.15552437413E+03  0.12506303916E+03 0.  0.
         23    2    1    2    0    0 -0.91543889194E+02 -0.11411427418E+02  0.38859541035E+02  0.13568403189E+03  0.91594695565E+02 0.  0.
          5    1    3    3  502    0  0.84815794446E+02 -0.46343691413E+02 -0.14229415652E+01  0.96752022636E+02  0.41800000000E+01 0.  1.
         -5    1    3    3    0  502  0.67280947477E+01  0.57755118831E+02  0.74696646788E+01  0.58772351498E+02  0.41800000000E+01 0.  1.
        -11    1    4    4    0    0 -0.64395990151E+02  0.31531643877E+02 -0.33424337312E-01  0.71701389319E+02  0.00000000000E+00 0. -1.
         11    1    4    4    0    0 -0.27147899043E+02 -0.42943071295E+02  0.38892965372E+02  0.63982642569E+02  0.00000000000E+00 0.  1.
</event>
<event>
 8    1  0.6692409E-009  0.1003674E+03  0.7561462E-02  0.1279525E+00
         -1   -1    0    0    0  501 -0.00000000000E+00  0.00000000000E+00  0.13977318761E+03  0.13977318761E+03  0.00000000000E+00 0.  1.
          1   -1    0    0  501    0  0.00000000000E+00 -0.00000000000E+00 -0.10207374851E+03  0.10207374851E+03  0.00000000000E+00 0. -1.
         25    2    1    2    0    0  0.48210115915E+02  0.23469639640E+00  0.15369972203E+02  0.13493729299E+03  0.12509023397E+03 0.  0.
         23    2    1    2    0    0 -0.48210115915E+02 -0.23469639640E+00  0.22329466903E+02  0.10690964313E+03  0.92772821149E+02 0.  0.
          5    1    3    3  502    0  0.16277994985E+02  0.58161111204E+02 -0.14480962626E+02  0.62248362676E+02  0.41800000000E+01 0.  1.
         -5    1    3    3    0  502  0.31932120930E+02 -0.57926414808E+02  0.29850934830E+02  0.72688930311E+02  0.41800000000E+01 0.  1.
        -11    1    4    4    0    0 -0.27141880899E+02 -0.28044811434E+02  0.49251809512E+02  0.62840543340E+02  0.00000000000E+00 0.  1.
         11    1    4    4    0    0 -0.21068235016E+02  0.27810115037E+02 -0.26922342609E+02  0.44069099794E+02  0.00000000000E+00 0. -1.
</event>
<event>
 8    1  0.6692409E-009  0.2306318E+03  0.7561462E-02  0.1126196E+00
          2   -1    0    0  501    0  0.00000000000E+00  0.00000000000E+00  0.19376092724E+04  0.19376092724E+04  0.00000000000E+00 0. -1.
         -2   -1    0    0    0  501 -0.00000000000E+00 -0.00000000000E+00 -0.32969414830E+02  0.32969414830E+02  0.00000000000E+00 0.  1.
         25    2    1    2    0    0 -0.17208803083E+03 -0.11895342250E+03  0.62651380572E+03  0.67225908162E+03  0.12509403256E+03 0.  0.
         23    2    1    2    0    0  0.17208803083E+03  0.11895342250E+03  0.12781260518E+04  0.12983196056E+04  0.90903172703E+02 0.  0.
          5    1    3    3  502    0 -0.18601197681E+03 -0.11023803344E+03  0.61460407762E+03  0.65154318672E+03  0.41800000000E+01 0.  1.
         -5    1    3    3    0  502  0.13923945981E+02 -0.87153890635E+01  0.11909728106E+02  0.20715894907E+02  0.41800000000E+01 0.  1.
        -11    1    4    4    0    0  0.80280487263E+02  0.32490831565E+01  0.43785476293E+03  0.44516548226E+03  0.00000000000E+00 0. -1.
         11    1    4    4    0    0  0.91807543569E+02  0.11570433935E+03  0.84027128889E+03  0.85315412331E+03  0.00000000000E+00 0.  1.
</event>
<event>
 8    1  0.6692409E-009  0.1670102E+03  0.7561462E-02  0.1181002E+00
         -2   -1    0    0    0  501 -0.00000000000E+00  0.00000000000E+00  0.21136546487E+03  0.21136546487E+03  0.00000000000E+00 0.  1.
          2   -1    0    0  501    0  0.00000000000E+00 -0.00000000000E+00 -0.15865894666E+03  0.15865894666E+03  0.00000000000E+00 0. -1.
         25    2    1    2    0    0  0.66907529375E+02 -0.13091871988E+03  0.30043588932E+02  0.19536334123E+03  0.12509152313E+03 0.  0.
         23    2    1    2    0    0 -0.66907529375E+02  0.13091871988E+03  0.22662929281E+02  0.17466107030E+03  0.91523507441E+02 0.  0.
          5    1    3    3  502    0  0.18940342112E+02 -0.12925181204E+03 -0.12227907433E+02  0.13126980458E+03  0.41800000000E+01 0.  1.
         -5    1    3    3    0  502  0.47967187263E+02 -0.16669078408E+01  0.42271496365E+02  0.64093536652E+02  0.41800000000E+01 0.  1.
        -11    1    4    4    0    0 -0.21326250449E+02  0.94281384398E+02  0.51424244025E+02  0.10949082736E+03  0.00000000000E+00 0.  1.
         11    1    4    4    0    0 -0.45581278926E+02  0.36637335479E+02 -0.28761314744E+02  0.65170242943E+02  0.00000000000E+00 0. -1.
</event>
<event>
 8    1  0.6692409E-009  0.1195788E+03  0.7561462E-02  0.1243794E+00
         -1   -1    0    0    0  501 -0.00000000000E+00  0.00000000000E+00  0.42387954782E+02  0.42387954782E+02  0.00000000000E+00 0.  1.
          1   -1    0    0  501    0  0.00000000000E+00 -0.00000000000E+00 -0.46452563134E+03  0.46452563134E+03  0.00000000000E+00 0. -1.
         25    2    1    2    0    0  0.65806960197E+02 -0.14280595246E+02 -0.13404607810E+03  0.19531980513E+03  0.12508790434E+03 0.  0.
         23    2    1    2    0    0 -0.65806960197E+02  0.14280595246E+02 -0.28809159846E+03  0.31159378099E+03  0.97772306098E+02 0.  0.
          5    1    3    3  502    0 -0.41056925604E+01 -0.58750520529E+02 -0.58463049939E+02  0.83089596112E+02  0.41800000000E+01 0. -1.
         -5    1    3    3    0  502  0.69912652758E+02  0.44469925284E+02 -0.75583028164E+02  0.11223020902E+03  0.41800000000E+01 0. -1.
        -11    1    4    4    0    0  0.49089274757E+01  0.25134014690E+02 -0.15869715003E+02  0.30127464508E+02  0.00000000000E+00 0.  1.
         11    1    4    4    0    0 -0.70715887673E+02 -0.10853419445E+02 -0.27222188345E+03  0.28146631648E+03  0.00000000000E+00 0. -1.
</event>
<event>
 8    1  0.6692409E-009  0.1091579E+03  0.7561462E-02  0.1262137E+00
          1   -1    0    0  501    0  0.00000000000E+00  0.00000000000E+00  0.58846669210E+02  0.58846669210E+02  0.00000000000E+00 0. -1.
         -1   -1    0    0    0  501 -0.00000000000E+00 -0.00000000000E+00 -0.24213589511E+03  0.24213589511E+03  0.00000000000E+00 0.  1.
         25    2    1    2    0    0 -0.16518854100E+02 -0.22218356607E+02 -0.14997413335E+03  0.19724905127E+03  0.12509364349E+03 0.  0.
         23    2    1    2    0    0  0.16518854100E+02  0.22218356607E+02 -0.33315092541E+02  0.10373351304E+03  0.94256132036E+02 0.  0.
          5    1    3    3  502    0 -0.44688041624E+02 -0.63609303687E+02 -0.89077148811E+02  0.11830205163E+03  0.41800000000E+01 0. -1.
         -5    1    3    3    0  502  0.28169187524E+02  0.41390947080E+02 -0.60896984544E+02  0.78946999642E+02  0.41800000000E+01 0. -1.
        -11    1    4    4    0    0  0.51978659834E+02  0.12625349799E+02  0.95060354348E+00  0.53498450284E+02  0.00000000000E+00 0. -1.
         11    1    4    4    0    0 -0.35459805735E+02  0.95930068085E+01 -0.34265696085E+02  0.50235062760E+02  0.00000000000E+00 0.  1.
</event>
<event>
 7    1  0.6692409E-009  0.1030904E+03  0.7561462E-02  0.1273928E+00
          1   -1    0    0  501    0  0.00000000000E+00  0.00000000000E+00  0.13270341920E+04  0.13270341920E+04  0.00000000000E+00 0. -1.
         -1   -1    0    0    0  501 -0.00000000000E+00 -0.00000000000E+00 -0.11722234806E+02  0.11722234806E+02  0.00000000000E+00 0.  1.
         23    2    1    2    0    0  0.14969621484E+02 -0.21986125113E+02  0.30309456999E+03  0.31850157746E+03  0.94177795800E+02 0.  0.
          5    1    1    2  502    0 -0.46207682741E+01  0.71130453527E+02  0.43284952550E+03  0.43869930139E+03  0.41800000000E+01 0.  1.
         -5    1    1    2    0  502 -0.10348853210E+02 -0.49144328414E+02  0.57936786169E+03  0.58155554794E+03  0.41800000000E+01 0.  1.
        -11    1    3    3    0    0  0.23275506740E+02  0.26453580468E+02  0.53135495427E+02  0.63756740882E+02  0.00000000000E+00 0.  1.
         11    1    3    3    0    0 -0.83058852559E+01 -0.48439705581E+02  0.24995907456E+03  0.25474483658E+03  0.00000000000E+00 0. -1.
</event>
<event>
 8    1  0.6692409E-009  0.1277411E+03  0.7561462E-02  0.1230847E+00
         -4   -1    0    0    0  501 -0.00000000000E+00  0.00000000000E+00  0.60840851802E+03  0.60840851802E+03  0.00000000000E+00 0.  1.
          4   -1    0    0  501    0  0.00000000000E+00 -0.00000000000E+00 -0.31710114422E+02  0.31710114422E+02  0.00000000000E+00 0. -1.
         25    2    1    2    0    0 -0.57158175651E+02  0.43305655474E+02  0.36297446434E+03  0.39056229320E+03  0.12508399683E+03 0.  0.
         23    2    1    2    0    0  0.57158175651E+02 -0.43305655474E+02  0.21372393926E+03  0.24955633925E+03  0.10704208241E+03 0.  0.
          5    1    3    3  502    0  0.31392218230E+02 -0.47421424667E+01  0.16835029762E+03  0.17136876726E+03  0.41800000000E+01 0. -1.
         -5    1    3    3    0  502 -0.88550393881E+02  0.48047797940E+02  0.19462416672E+03  0.21919352594E+03  0.41800000000E+01 0. -1.
        -11    1    4    4    0    0  0.16883267287E+02 -0.71498673543E+02  0.16364707287E+03  0.17938079466E+03  0.00000000000E+00 0.  1.
         11    1    4    4    0    0  0.40274908364E+02  0.28193018069E+02  0.50076866386E+02  0.70175544591E+02  0.00000000000E+00 0. -1.
</event>
<event>
 8    1  0.6692409E-009  0.1350632E+03  0.7561462E-02  0.1220130E+00
         -1   -1    0    0    0  501 -0.00000000000E+00  0.00000000000E+00  0.22876896128E+03  0.22876896128E+03  0.00000000000E+00 0.  1.
          1   -1    0    0  501    0  0.00000000000E+00 -0.00000000000E+00 -0.94828225515E+02  0.94828225515E+02  0.00000000000E+00 0. -1.
         25    2    1    2    0    0 -0.88455942359E+02 -0.35649098565E+02  0.44085439944E+02  0.16335806493E+03  0.12508804657E+03 0.  0.
         23    2    1    2    0    0  0.88455942359E+02  0.35649098565E+02  0.89855295825E+02  0.16023912187E+03  0.92234971805E+02 0.  0.
          5    1    3    3  502    0  0.20886298763E+02  0.77915197492E+01  0.39488610016E+02  0.45538642679E+02  0.41800000000E+01 0. -1.
         -5    1    3    3    0  502 -0.10934224112E+03 -0.43440618314E+02  0.45968299281E+01  0.11781942225E+03  0.41800000000E+01 0. -1.
        -11    1    4    4    0    0  0.39398940465E+02  0.62431730871E+02  0.34192826239E+02  0.81358139701E+02  0.00000000000E+00 0. -1.
         11    1    4    4    0    0  0.49057001894E+02 -0.26782632306E+02  0.55662469586E+02  0.78880982173E+02  0.00000000000E+00 0.  1.
</event>
<event>
 7    1  0.6692409E-009  0.1197850E+03  0.7561462E-02  0.1243452E+00
         -4   -1    0    0    0  501 -0.00000000000E+00  0.00000000000E+00  0.14011129618E+03  0.14011129618E+03  0.00000000000E+00 0.  1.
          4   -1    0    0  501    0  0.00000000000E+00 -0.00000000000E+00 -0.15718778090E+03  0.15718778090E+03  0.00000000000E+00 0. -1.
         23    2    1    2    0    0  0.68734728089E+02 -0.62238661605E+01 -0.82613544643E+02  0.14019296420E+03  0.89810189277E+02 0.  0.
          5    1    1    2  502    0 -0.45487165741E+02  0.60797076800E+02  0.60963678731E+02  0.97464913271E+02  0.41800000000E+01 0.  1.
         -5    1    1    2    0  502 -0.23247562348E+02 -0.54573210639E+02  0.45733811962E+01  0.59641199604E+02  0.41800000000E+01 0.  1.
        -11    1    3    3    0    0  0.44619917265E+02  0.34723331092E+02 -0.16734664387E+02  0.58963511861E+02  0.00000000000E+00 0.  1.
         11    1    3    3    0    0  0.24114810825E+02 -0.40947197253E+02 -0.65878880257E+02  0.81229452342E+02  0.00000000000E+00 0. -1.
</event>
<event>
 8    1  0.6692409E-009  0.6779078E+02  0.7561462E-02  0.1367771E+00
          1   -1    0    0  501    0  0.00000000000E+00  0.00000000000E+00  0.31776602468E+03  0.31776602468E+03  0.00000000000E+00 0. -1.
         -1   -1    0    0    0  501 -0.00000000000E+00 -0.00000000000E+00 -0.72955690074E+02  0.72955690074E+02  0.00000000000E+00 0.  1.
         25    2    1    2    0    0  0.15761886666E+02 -0.21915920707E+01 -0.29334541040E+01  0.12610433280E+03  0.12506181452E+03 0.  0.
         23    2    1    2    0    0 -0.15761886666E+02  0.21915920707E+01  0.24774378871E+03  0.26461738196E+03  0.91608590435E+02 0.  0.
          5    1    3    3  502    0  0.16388155182E+02 -0.26744082150E+02  0.54769160876E+02  0.63253070624E+02  0.41800000000E+01 0. -1.
         -5    1    3    3    0  502 -0.62626851557E+00  0.24552490079E+02 -0.57702614980E+02  0.62851262174E+02  0.41800000000E+01 0. -1.
        -11    1    4    4    0    0  0.29333494516E+02 -0.12082115123E+02  0.17496805083E+03  0.17782083741E+03  0.00000000000E+00 0.  1.
         11    1    4    4    0    0 -0.45095381182E+02  0.14273707194E+02  0.72775737885E+02  0.86796544550E+02  0.00000000000E+00 0. -1.
</event>
<event>
 8    1  0.6692409E-009  0.1016165E+03  0.7561462E-02  0.1276933E+00
          2   -1    0    0  501    0  0.00000000000E+00  0.00000000000E+00  0.63944215712E+03  0.63944215712E+03  0.00000000000E+00 0. -1.
         -2   -1    0    0    0  501 -0.00000000000E+00 -0.00000000000E+00 -0.22935790639E+02  0.22935790639E+02  0.00000000000E+00 0.  1.
         25    2    1    2    0    0 -0.55666735266E+02 -0.48394474243E+01  0.35691418653E+03  0.38230516742E+03  0.12508916351E+03 0.  0.
         23    2    1    2    0    0  0.55666735266E+02  0.48394474243E+01  0.25959217996E+03  0.28007278034E+03  0.89053111828E+02 0.  0.
          5    1    3    3  502    0 -0.27023775955E+02 -0.42563214187E+02  0.47950420568E+02  0.69703851410E+02  0.41800000000E+01 0.  1.
         -5    1    3    3    0  502 -0.28642959311E+02  0.37723766763E+02  0.30896376596E+03  0.31260131601E+03  0.41800000000E+01 0.  1.
        -11    1    4    4    0    0 -0.22979515513E+02 -0.99961731803E+01  0.65192371175E+02  0.69842872728E+02  0.00000000000E+00 0.  1.
         11    1    4    4    0    0  0.78646250779E+02  0.14835620605E+02  0.19439980878E+03  0.21022990761E+03  0.00000000000E+00 0. -1.
</event>
<event>
 8    1  0.6692409E-009  0.1229580E+03  0.7561462E-02  0.1238296E+00
         -2   -1    0    0    0  501 -0.00000000000E+00  0.00000000000E+00  0.35400550364E+02  0.35400550364E+02  0.00000000000E+00 0.  1.
          2   -1    0    0  501    0  0.00000000000E+00 -0.00000000000E+00 -0.62347254644E+03  0.62347254644E+03  0.00000000000E+00 0. -1.
         25    2    1    2    0    0  0.95376357426E+02  0.31432015593E+02 -0.27792077107E+03  0.32089335328E+03  0.12509183836E+03 0.  0.
         23    2    1    2    0    0 -0.95376357426E+02 -0.31432015593E+02 -0.31015122500E+03  0.33797974352E+03  0.89173446177E+02 0.  0.
          5    1    3    3  502    0  0.10473333324E+02  0.55881221432E+02 -0.47927233502E+02  0.74477471297E+02  0.41800000000E+01 0.  1.
         -5    1    3    3    0  502  0.84903024103E+02 -0.24449205839E+02 -0.22999353757E+03  0.24641588198E+03  0.41800000000E+01 0.  1.
        -11    1    4    4    0    0 -0.25154555731E+02 -0.70827038183E+01 -0.87633895215E+01  0.27562898311E+02  0.00000000000E+00 0.  1.
         11    1    4    4    0    0 -0.70221801695E+02 -0.24349311774E+02 -0.30138783548E+03  0.31041684521E+03  0.00000000000E+00 0. -1.
</event>
<event>
 8    1  0.6692409E-009  0.1932632E+03  0.7561462E-02  0.1155551E+00
          2   -1    0    0  501    0  0.00000000000E+00  0.00000000000E+00  0.18222563419E+04  0.18222563419E+04  0.00000000000E+00 0. -1.
         -2   -1    0    0    0  501 -0.00000000000E+00 -0.00000000000E+00 -0.22558949386E+02  0.22558949386E+02  0.00000000000E+00 0.  1.
         25    2    1    2    0    0  0.37202743514E+02  0.16252471139E+03  0.10932847916E+04  0.11129770967E+04  0.12509219139E+03 0.  0.
         23    2    1    2    0    0 -0.37202743514E+02 -0.16252471139E+03  0.70641260093E+03  0.73183819458E+03  0.93648568372E+02 0.  0.
          5    1    3    3  502    0  0.53938598553E+02  0.17153416932E+03  0.84498245583E+03  0.86391328658E+03  0.41800000000E+01 0.  1.
         -5    1    3    3    0  502 -0.16735855039E+02 -0.90094579356E+01  0.24830233575E+03  0.24906381012E+03  0.41800000000E+01 0.  1.
        -11    1    4    4    0    0 -0.47957802285E+01 -0.15348237735E+03  0.51184088018E+03  0.53437900997E+03  0.00000000000E+00 0.  1.
         11    1    4    4    0    0 -0.32406963286E+02 -0.90423340339E+01  0.19457172075E+03  0.19745918461E+03  0.00000000000E+00 0. -1.
</event>
<event>
 8    1  0.6692409E-009  0.1453836E+03  0.7561462E-02  0.1206263E+00
          1   -1    0    0  501    0  0.00000000000E+00  0.00000000000E+00  0.86628454677E+03  0.86628454677E+03  0.00000000000E+00 0. -1.
         -1   -1    0    0    0  501 -0.00000000000E+00 -0.00000000000E+00 -0.26218698393E+02  0.26218698393E+02  0.00000000000E+00 0.  1.
         25    2    1    2    0    0  0.13486299368E+02  0.99540465544E+02  0.37057993489E+03  0.40381650184E+03  0.12509234375E+03 0.  0.
         23    2    1    2    0    0 -0.13486299368E+02 -0.99540465544E+02  0.46948591348E+03  0.48868674332E+03  0.91145628441E+02 0.  0.
          5    1    3    3  502    0  0.27696578254E+00  0.12753062008E+03  0.27273387654E+03  0.30110691719E+03  0.41800000000E+01 0. -1.
         -5    1    3    3    0  502  0.13209333585E+02 -0.27990154534E+02  0.97846058347E+02  0.10270958465E+03  0.41800000000E+01 0. -1.
        -11    1    4    4    0    0  0.31469559367E+02 -0.73570528847E+02  0.22658281067E+03  0.24029716181E+03  0.00000000000E+00 0.  1.
         11    1    4    4    0    0 -0.44955858735E+02 -0.25969936697E+02  0.24290310281E+03  0.24838958151E+03  0.00000000000E+00 0. -1.
</event>
<event>
 8    1  0.6692409E-009  0.1128097E+03  0.7561462E-02  0.1255453E+00
          2   -1    0    0  501    0  0.00000000000E+00  0.00000000000E+00  0.15759093748E+04  0.15759093748E+04  0.00000000000E+00 0. -1.
         -2   -1    0    0    0  501 -0.00000000000E+00 -0.00000000000E+00 -0.93473331069E+01  0.93473331069E+01  0.00000000000E+00 0.  1.
         25    2    1    2    0    0  0.36842060825E+02 -0.32249827821E+02  0.11215749030E+04  0.11295906323E+04  0.12508934697E+03 0.  0.
         23    2    1    2    0    0 -0.36842060825E+02  0.32249827821E+02  0.44498713871E+03  0.45566607561E+03  0.84974290270E+02 0.  0.
          5    1    3    3  502    0  0.50047100584E+02  0.34750953987E+02  0.38119492107E+03  0.38605618934E+03  0.41800000000E+01 0. -1.
         -5    1    3    3    0  502 -0.13205039760E+02 -0.67000781809E+02  0.74037998194E+03  0.74353444298E+03  0.41800000000E+01 0. -1.
        -11    1    4    4    0    0 -0.46516844903E+02 -0.14237040292E+02  0.17997227461E+03  0.18643103230E+03  0.00000000000E+00 0. -1.
         11    1    4    4    0    0  0.96747840780E+01  0.46486868114E+02  0.26501486410E+03  0.26923504331E+03  0.00000000000E+00 0.  1.
</event>
<event>
 8    1  0.6692409E-009  0.1458388E+03  0.7561462E-02  0.1205682E+00
          1   -1    0    0  501    0  0.00000000000E+00  0.00000000000E+00  0.64086878408E+03  0.64086878408E+03  0.00000000000E+00 0. -1.
         -1   -1    0    0    0  501 -0.00000000000E+00 -0.00000000000E+00 -0.41647617922E+02  0.41647617922E+02  0.00000000000E+00 0.  1.
         25    2    1    2    0    0 -0.14525048228E+02 -0.11774881480E+03  0.26305015453E+03  0.31451360840E+03  0.12509062979E+03 0.  0.
         23    2    1    2    0    0  0.14525048228E+02  0.11774881480E+03  0.33617101162E+03  0.36800279359E+03  0.91320023130E+02 0.  0.
          5    1    3    3  502    0 -0.34169231468E+02 -0.24133252211E+01  0.14192096325E+03  0.14605612869E+03  0.41800000000E+01 0.  1.
         -5    1    3    3    0  502  0.19644183241E+02 -0.11533548958E+03  0.12112919128E+03  0.16845747971E+03  0.41800000000E+01 0.  1.
        -11    1    4    4    0    0 -0.28798734905E+02  0.69624227718E+02  0.24393972039E+03  0.25531057049E+03  0.00000000000E+00 0. -1.
         11    1    4    4    0    0  0.43323783132E+02  0.48124587080E+02  0.92231291231E+02  0.11269222311E+03  0.00000000000E+00 0.  1.
</event>
<event>
 8    1  0.6692409E-009  0.7949523E+02  0.7561462E-02  0.1330490E+00
          1   -1    0    0  501    0  0.00000000000E+00  0.00000000000E+00  0.18816655111E+03  0.18816655111E+03  0.00000000000E+00 0. -1.
         -1   -1    0    0    0  501 -0.00000000000E+00 -0.00000000000E+00 -0.67556312869E+02  0.67556312869E+02  0.00000000000E+00 0.  1.
         25    2    1    2    0    0 -0.39544680780E+01 -0.11488595878E+02  0.91716214157E+02  0.15558909532E+03  0.12509387272E+03 0.  0.
         23    2    1    2    0    0  0.39544680780E+01  0.11488595878E+02  0.28894024081E+02  0.10013376865E+03  0.95101426611E+02 0.  0.
          5    1    3    3  502    0 -0.41551579789E+02  0.40302863612E+02  0.25460553367E+02  0.63376389737E+02  0.41800000000E+01 0. -1.
         -5    1    3    3    0  502  0.37597111711E+02 -0.51791459490E+02  0.66255660789E+02  0.92212705587E+02  0.41800000000E+01 0. -1.
        -11    1    4    4    0    0  0.66594221764E+01 -0.11705005716E+02 -0.32106638048E+02  0.34816537296E+02  0.00000000000E+00 0.  1.
         11    1    4    4    0    0 -0.27049540984E+01  0.23193601593E+02  0.61000662129E+02  0.65317231354E+02  0.00000000000E+00 0. -1.
</event>
<event>
 8    1  0.6692409E-009  0.1777165E+03  0.7561462E-02  0.1170031E+00
         -1   -1    0    0    0  501 -0.00000000000E+00  0.00000000000E+00  0.21754577016E+03  0.21754577016E+03  0.00000000000E+00 0.  1.
          1   -1    0    0  501    0  0.00000000000E+00 -0.00000000000E+00 -0.31489346961E+03  0.31489346961E+03  0.00000000000E+00 0. -1.
         25    2    1    2    0    0  0.84619497943E+02 -0.13383294335E+03  0.13010562022E+03  0.24009065392E+03  0.12507731020E+03 0.  0.
         23    2    1    2    0    0 -0.84619497943E+02  0.13383294335E+03 -0.22745331967E+03  0.29234858585E+03  0.93064315717E+02 0.  0.
          5    1    3    3  502    0 -0.26599082077E+02 -0.16424301075E+02  0.51107199625E+02  0.60055699868E+02  0.41800000000E+01 0.  1.
         -5    1    3    3    0  502  0.11121858002E+03 -0.11740864228E+03  0.78998420590E+02  0.18003495405E+03  0.41800000000E+01 0.  1.
        -11    1    4    4    0    0 -0.73061158467E+02  0.85705090385E+02 -0.83713519393E+02  0.14032550988E+03  0.00000000000E+00 0.  1.
         11    1    4    4    0    0 -0.11558339476E+02  0.48127852970E+02 -0.14373980028E+03  0.15202307597E+03  0.00000000000E+00 0. -1.
</event>
<event>
 8    1  0.6692409E-009  0.1277386E+03  0.7561462E-02  0.1230850E+00
         -2   -1    0    0    0  501 -0.00000000000E+00  0.00000000000E+00  0.27311476367E+03  0.27311476367E+03  0.00000000000E+00 0.  1.
          2   -1    0    0  501    0  0.00000000000E+00 -0.00000000000E+00 -0.75656886052E+02  0.75656886052E+02  0.00000000000E+00 0. -1.
         25    2    1    2    0    0 -0.17334282916E+01  0.84093263368E+02  0.15682162758E+03  0.21752132905E+03  0.12509126268E+03 0.  0.
         23    2    1    2    0    0  0.17334282916E+01 -0.84093263368E+02  0.40636250041E+02  0.13125032067E+03  0.92199024628E+02 0.  0.
          5    1    3    3  502    0  0.15988311959E+01 -0.32918979224E+02  0.41316051014E+02  0.53016072334E+02  0.41800000000E+01 0.  1.
         -5    1    3    3    0  502 -0.33322594874E+01  0.11701224259E+03  0.11550557657E+03  0.16450525672E+03  0.41800000000E+01 0.  1.
        -11    1    4    4    0    0 -0.66038014540E+00 -0.94469716179E+02  0.58018612057E+02  0.11086533598E+03  0.00000000000E+00 0.  1.
         11    1    4    4    0    0  0.23938084370E+01  0.10376452811E+02 -0.17382362015E+02  0.20384984695E+02  0.00000000000E+00 0. -1.
</event>
<event>
 8    1  0.6692409E-009  0.2583302E+03  0.7561462E-02  0.1108151E+00
         -1   -1    0    0    0  501 -0.00000000000E+00  0.00000000000E+00  0.58163263564E+02  0.58163263564E+02  0.00000000000E+00 0.  1.
          1   -1    0    0  501    0  0.00000000000E+00 -0.00000000000E+00 -0.12561217766E+04  0.12561217766E+04  0.00000000000E+00 0. -1.
         25    2    1    2    0    0 -0.21927217942E+03  0.11401391383E+03 -0.61585840564E+03  0.67528444442E+03  0.12509214146E+03 0.  0.
         23    2    1    2    0    0  0.21927217942E+03 -0.11401391383E+03 -0.58210010737E+03  0.63900059572E+03  0.91661142907E+02 0.  0.
          5    1    3    3  502    0 -0.18410421504E+03  0.44341736071E+02 -0.50737871061E+03  0.54158210821E+03  0.41800000000E+01 0. -1.
         -5    1    3    3    0  502 -0.35167964379E+02  0.69672177760E+02 -0.10847969503E+03  0.13370233621E+03  0.41800000000E+01 0. -1.
        -11    1    4    4    0    0  0.83957650181E+02 -0.26917710838E+02 -0.11467577044E+03  0.14465124440E+03  0.00000000000E+00 0.  1.
         11    1    4    4    0    0  0.13531452924E+03 -0.87096202993E+02 -0.46742433692E+03  0.49434935132E+03  0.00000000000E+00 0. -1.
</event>
<event>
 8    1  0.6692409E-009  0.1112095E+03  0.7561462E-02  0.1258346E+00
         -2   -1    0    0    0  501 -0.00000000000E+00  0.00000000000E+00  0.18168746148E+02  0.18168746148E+02  0.00000000000E+00 0.  1.
          2   -1    0    0  501    0  0.00000000000E+00 -0.00000000000E+00 -0.83155499779E+03  0.83155499779E+03  0.00000000000E+00 0. -1.
         25    2    1    2    0    0 -0.22709472208E+02 -0.19661032206E+02 -0.61999678829E+03  0.63319820385E+03  0.12506666841E+03 0.  0.
         23    2    1    2    0    0  0.22709472208E+02  0.19661032206E+02 -0.19338946335E+03  0.21652554009E+03  0.92636648587E+02 0.  0.
          5    1    3    3  502    0 -0.27766892313E+02  0.48788878912E+02 -0.20707746793E+03  0.21459241631E+03  0.41800000000E+01 0.  1.
         -5    1    3    3    0  502  0.50574201052E+01 -0.68449911119E+02 -0.41291932036E+03  0.41860578754E+03  0.41800000000E+01 0.  1.
        -11    1    4    4    0    0 -0.34908844954E+02 -0.38744633139E+01 -0.67568463848E+02  0.76152059912E+02  0.00000000000E+00 0. -1.
         11    1    4    4    0    0  0.57618317162E+02  0.23535495520E+02 -0.12582099950E+03  0.14037348018E+03  0.00000000000E+00 0.  1.
</event>
<event>
 8    1  0.6692409E-009  0.1045434E+03  0.7561462E-02  0.1271022E+00
          2   -1    0    0  501    0  0.00000000000E+00  0.00000000000E+00  0.12450460116E+03  0.12450460116E+03  0.00000000000E+00 0.  1.
         -2   -1    0    0    0  501 -0.00000000000E+00 -0.00000000000E+00 -0.10053335641E+03  0.10053335641E+03  0.00000000000E+00 0. -1.
         25    2    1    2    0    0  0.34403507031E+01  0.19587999118E+02 -0.92846773304E+01  0.12697441484E+03  0.12506306836E+03 0.  0.
         23    2    1    2    0    0 -0.34403507031E+01 -0.19587999118E+02  0.33255922083E+02  0.98063542736E+02  0.90083163454E+02 0.  0.
          5    1    3    3  502    0 -0.16706944730E+02 -0.45590849873E+02 -0.27872170928E+02  0.56142478629E+02  0.41800000000E+01 0.  1.
         -5    1    3    3    0  502  0.20147295433E+02  0.65178848991E+02  0.18587493598E+02  0.70831936210E+02  0.41800000000E+01 0.  1.
        -11    1    4    4    0    0  0.42918262893E+02 -0.40511742205E+01  0.11984801654E+02  0.44743991474E+02  0.00000000000E+00 0. -1.
         11    1    4    4    0    0 -0.46358613596E+02 -0.15536824897E+02  0.21271120429E+02  0.53319551262E+02  0.00000000000E+00 0.  1.
</event>
<event>
 8    1  0.6692409E-009  0.1097759E+03  0.7561462E-02  0.1260985E+00
          1   -1    0    0  501    0  0.00000000000E+00  0.00000000000E+00  0.63536927287E+02  0.63536927287E+02  0.00000000000E+00 0. -1.
         -1   -1    0    0    0  501 -0.00000000000E+00 -0.00000000000E+00 -0.67402058499E+03  0.67402058499E+03  0.00000000000E+00 0.  1.
         25    2    1    2    0    0 -0.80421563985E+02  0.26166035845E+01 -0.59797598518E+03  0.61619569877E+03  0.12508951099E+03 0.  0.
         23    2    1    2    0    0  0.80421563985E+02 -0.26166035845E+01 -0.12507672526E+02  0.12136181351E+03  0.89987628810E+02 0.  0.
          5    1    3    3  502    0  0.22487826589E+02 -0.13931828405E+02 -0.37422412386E+02  0.46018556433E+02  0.41800000000E+01 0. -1.
         -5    1    3    3    0  502 -0.10290939057E+03  0.16548431989E+02 -0.56055357279E+03  0.57017714234E+03  0.41800000000E+01 0. -1.
        -11    1    4    4    0    0  0.78009385584E+02  0.72048292343E+01 -0.42908791060E+02  0.89322663159E+02  0.00000000000E+00 0.  1.
         11    1    4    4    0    0  0.24121784006E+01 -0.98214328188E+01  0.30401118534E+02  0.32039150354E+02  0.00000000000E+00 0. -1.
</event>
<event>
 8    1  0.6692409E-009  0.9191050E+02  0.7561462E-02  0.1298290E+00
         -2   -1    0    0    0  501 -0.00000000000E+00  0.00000000000E+00  0.24818557166E+02  0.24818557166E+02  0.00000000000E+00 0. -1.
          2   -1    0    0  501    0  0.00000000000E+00 -0.00000000000E+00 -0.62947350836E+03  0.62947350836E+03  0.00000000000E+00 0.  1.
         25    2    1    2    0    0  0.41836671518E+02 -0.21240993604E+02 -0.44519456331E+03  0.46480819218E+03  0.12508784682E+03 0.  0.
         23    2    1    2    0    0 -0.41836671518E+02  0.21240993604E+02 -0.15946038788E+03  0.18948387334E+03  0.90967225207E+02 0.  0.
          5    1    3    3  502    0 -0.27124891661E+01  0.21080890463E+02 -0.76846530208E+01  0.22984512878E+02  0.41800000000E+01 0.  1.
         -5    1    3    3    0  502  0.44549160684E+02 -0.42321884067E+02 -0.43750991029E+03  0.44182367930E+03  0.41800000000E+01 0.  1.
        -11    1    4    4    0    0 -0.67776757676E+02  0.11957847650E+01 -0.89967651518E+02  0.11264678026E+03  0.00000000000E+00 0. -1.
         11    1    4    4    0    0  0.25940086158E+02  0.20045208839E+02 -0.69492736361E+02  0.76837093088E+02  0.00000000000E+00 0.  1.
</event>
<event>
 8    1  0.6692409E-009  0.1428378E+03  0.7561462E-02  0.1209561E+00
          1   -1    0    0  501    0  0.00000000000E+00  0.00000000000E+00  0.48293301762E+03  0.48293301762E+03  0.00000000000E+00 0. -1.
         -1   -1    0    0    0  501 -0.00000000000E+00 -0.00000000000E+00 -0.46176314350E+02  0.46176314350E+02  0.00000000000E+00 0.  1.
         25    2    1    2    0    0  0.36483036230E+02 -0.95103183065E+02  0.25805045110E+03  0.30432480333E+03  0.12509165937E+03 0.  0.
         23    2    1    2    0    0 -0.36483036230E+02  0.95103183065E+02  0.17870625217E+03  0.22478452865E+03  0.90645090281E+02 0.  0.
          5    1    3    3  502    0 -0.41437016282E+02 -0.72679290996E+01  0.88066717910E+02  0.97688629406E+02  0.41800000000E+01 0.  1.
         -5    1    3    3    0  502  0.77920052512E+02 -0.87835253965E+02  0.16998373319E+03  0.20663617392E+03  0.41800000000E+01 0.  1.
        -11    1    4    4    0    0  0.22555857709E+02  0.18362547273E+02  0.85804981452E+02  0.90600467445E+02  0.00000000000E+00 0. -1.
         11    1    4    4    0    0 -0.59038893939E+02  0.76740635791E+02  0.92901270721E+02  0.13418406120E+03  0.00000000000E+00 0.  1.
</event>
<event>
 8    1  0.6692409E-009  0.1211856E+03  0.7561462E-02  0.1241154E+00
         -2   -1    0    0    0  501 -0.00000000000E+00  0.00000000000E+00  0.13230252149E+03  0.13230252149E+03  0.00000000000E+00 0.  1.
          2   -1    0    0  501    0  0.00000000000E+00 -0.00000000000E+00 -0.22249931442E+03  0.22249931442E+03  0.00000000000E+00 0. -1.
         25    2    1    2    0    0 -0.24526360026E+02 -0.98630049606E+02  0.40526792201E+02  0.16618863075E+03  0.12508721391E+03 0.  0.
         23    2    1    2    0    0  0.24526360026E+02  0.98630049606E+02 -0.13072358513E+03  0.18861320515E+03  0.90315316685E+02 0.  0.
          5    1    3    3  502    0 -0.74594321336E+01 -0.11566182539E+03  0.63842656367E+02  0.13238828555E+03  0.41800000000E+01 0.  1.
         -5    1    3    3    0  502 -0.17066927893E+02  0.17031775780E+02 -0.23315864166E+02  0.33800345202E+02  0.41800000000E+01 0.  1.
        -11    1    4    4    0    0  0.18828832537E+02  0.60293177213E+02 -0.12753496956E+02  0.64439458702E+02  0.00000000000E+00 0.  1.
         11    1    4    4    0    0  0.56975274894E+01  0.38336872393E+02 -0.11797008817E+03  0.12417374645E+03  0.00000000000E+00 0. -1.
</event>
<event>
 8    1  0.6692409E-009  0.1572352E+03  0.7561462E-02  0.1191854E+00
         -1   -1    0    0    0  501 -0.00000000000E+00  0.00000000000E+00  0.11946221031E+03  0.11946221031E+03  0.00000000000E+00 0.  1.
          1   -1    0    0  501    0  0.00000000000E+00 -0.00000000000E+00 -0.24278656745E+03  0.24278656745E+03  0.00000000000E+00 0. -1.
         25    2    1    2    0    0 -0.12081761478E+03 -0.49885278537E+02 -0.72488877127E+02  0.19489825915E+03  0.12508100198E+03 0.  0.
         23    2    1    2    0    0  0.12081761478E+03  0.49885278537E+02 -0.50835480013E+02  0.16735051862E+03  0.91304506989E+02 0.  0.
          5    1    3    3  502    0 -0.13628401483E+03 -0.11006605614E+02 -0.67542454954E+02  0.15255796828E+03  0.41800000000E+01 0.  1.
         -5    1    3    3    0  502  0.15466400046E+02 -0.38878672923E+02 -0.49464221733E+01  0.42340290870E+02  0.41800000000E+01 0.  1.
        -11    1    4    4    0    0  0.16538687257E+02 -0.56576651394E+01  0.22348255193E+02  0.28372202262E+02  0.00000000000E+00 0.  1.
         11    1    4    4    0    0  0.10427892753E+03  0.55542943676E+02 -0.73183735206E+02  0.13897831635E+03  0.00000000000E+00 0. -1.
</event>
<event>
 8    1  0.6692409E-009  0.1395801E+03  0.7561462E-02  0.1213895E+00
          2   -1    0    0  501    0  0.00000000000E+00  0.00000000000E+00  0.37582955085E+03  0.37582955085E+03  0.00000000000E+00 0. -1.
         -2   -1    0    0    0  501 -0.00000000000E+00 -0.00000000000E+00 -0.83018000721E+02  0.83018000721E+02  0.00000000000E+00 0.  1.
         25    2    1    2    0    0 -0.82365890710E+02  0.99498004148E+02  0.86651383106E+02  0.19959928771E+03  0.12508965056E+03 0.  0.
         23    2    1    2    0    0  0.82365890710E+02 -0.99498004148E+02  0.20616016702E+03  0.25924826386E+03  0.89574857338E+02 0.  0.
          5    1    3    3  502    0 -0.58145965176E+02  0.10322257730E+03  0.99423620210E+01  0.11896292151E+03  0.41800000000E+01 0. -1.
         -5    1    3    3    0  502 -0.24219925534E+02 -0.37245731538E+01  0.76709021085E+02  0.80636366199E+02  0.41800000000E+01 0. -1.
        -11    1    4    4    0    0  0.30889981432E+02 -0.99269570834E+01  0.12127039928E+03  0.12553583222E+03  0.00000000000E+00 0. -1.
         11    1    4    4    0    0  0.51475909277E+02 -0.89571047065E+02  0.84889767744E+02  0.13371243164E+03  0.00000000000E+00 0.  1.
</event>
<event>
 8    1  0.6692409E-009  0.7669217E+02  0.7561462E-02  0.1338710E+00
         -1   -1    0    0    0  501 -0.00000000000E+00  0.00000000000E+00  0.50696486433E+02  0.50696486433E+02  0.00000000000E+00 0.  1.
          1   -1    0    0  501    0  0.00000000000E+00 -0.00000000000E+00 -0.28039113836E+03  0.28039113836E+03  0.00000000000E+00 0. -1.
         25    2    1    2    0    0  0.44576226820E+02 -0.10428065358E+02 -0.15123880977E+03  0.20154553377E+03  0.12510651485E+03 0.  0.
         23    2    1    2    0    0 -0.44576226820E+02  0.10428065358E+02 -0.78455842153E+02  0.12954209102E+03  0.92358267807E+02 0.  0.
          5    1    3    3  502    0  0.89465537255E+01 -0.30888741153E+02  0.10914030945E+02  0.34216131065E+02  0.41800000000E+01 0.  1.
         -5    1    3    3    0  502  0.35629673094E+02  0.20460675795E+02 -0.16215284072E+03  0.16732940271E+03  0.41800000000E+01 0.  1.
        -11    1    4    4    0    0 -0.31241966797E+02 -0.26138873196E+02  0.13433334189E+01  0.40756664804E+02  0.00000000000E+00 0.  1.
         11    1    4    4    0    0 -0.13334260023E+02  0.36566938554E+02 -0.79799175572E+02  0.88785426211E+02  0.00000000000E+00 0. -1.
</event>
<event>
 8    1  0.6692409E-009  0.1865426E+03  0.7561462E-02  0.1161617E+00
          3   -1    0    0  501    0  0.00000000000E+00  0.00000000000E+00  0.15989700280E+04  0.15989700280E+04  0.00000000000E+00 0.  1.
         -3   -1    0    0    0  501 -0.00000000000E+00 -0.00000000000E+00 -0.26762822180E+02  0.26762822180E+02  0.00000000000E+00 0. -1.
         25    2    1    2    0    0 -0.16682379750E+03 -0.23277020147E+02  0.10071625669E+04  0.10287824688E+04  0.12507970637E+03 0.  0.
         23    2    1    2    0    0  0.16682379750E+03  0.23277020147E+02  0.56504463890E+03  0.59695038133E+03  0.93286197970E+02 0.  0.
          5    1    3    3  502    0 -0.83859434405E+00 -0.15266247962E+02  0.36851190190E+03  0.36885262072E+03  0.41800000000E+01 0.  1.
         -5    1    3    3    0  502 -0.16598520316E+03 -0.80107721851E+01  0.63865066500E+03  0.65992984812E+03  0.41800000000E+01 0.  1.
        -11    1    4    4    0    0  0.15826167346E+03  0.47561726544E+02  0.51156774064E+03  0.53759690138E+03  0.00000000000E+00 0.  1.
         11    1    4    4    0    0  0.85621240396E+01 -0.24284706397E+02  0.53476898266E+02  0.59353479940E+02  0.00000000000E+00 0. -1.
</event>
<event>
 8    1  0.6692409E-009  0.1097594E+03  0.7561462E-02  0.1261016E+00
          1   -1    0    0  501    0  0.00000000000E+00  0.00000000000E+00  0.30796685973E+02  0.30796685973E+02  0.00000000000E+00 0. -1.
         -1   -1    0    0    0  501 -0.00000000000E+00 -0.00000000000E+00 -0.67956931623E+03  0.67956931623E+03  0.00000000000E+00 0.  1.
         25    2    1    2    0    0  0.90927980614E+02 -0.19285825885E+02 -0.38900068345E+03  0.41905578235E+03  0.12508547580E+03 0.  0.
         23    2    1    2    0    0 -0.90927980614E+02  0.19285825885E+02 -0.25977194680E+03  0.29131021985E+03  0.93489780758E+02 0.  0.
          5    1    3    3  502    0 -0.10398206502E+02 -0.18020731645E+02 -0.48848322491E+01  0.21776213022E+02  0.41800000000E+01 0.  1.
         -5    1    3    3    0  502  0.10132618712E+03 -0.12650942397E+01 -0.38411585121E+03  0.39727956933E+03  0.41800000000E+01 0.  1.
        -11    1    4    4    0    0 -0.36911150970E+02 -0.57226410170E+01 -0.21121445421E+03  0.21449178854E+03  0.00000000000E+00 0.  1.
         11    1    4    4    0    0 -0.54016829645E+02  0.25008466902E+02 -0.48557492592E+02  0.76818431307E+02  0.00000000000E+00 0. -1.
</event>
<event>
 8    1  0.6692409E-009  0.8858321E+02  0.7561462E-02  0.1306319E+00
          1   -1    0    0  501    0  0.00000000000E+00  0.00000000000E+00  0.77904809373E+03  0.77904809373E+03  0.00000000000E+00 0. -1.
         -1   -1    0    0    0  501 -0.00000000000E+00 -0.00000000000E+00 -0.20978715070E+02  0.20978715070E+02  0.00000000000E+00 0.  1.
         25    2    1    2    0    0  0.20675075916E+02 -0.64400854636E+02  0.45653379520E+03  0.47816767480E+03  0.12508513191E+03 0.  0.
         23    2    1    2    0    0 -0.20675075916E+02  0.64400854636E+02  0.30153558346E+03  0.32185913400E+03  0.89970357359E+02 0.  0.
          5    1    3    3  502    0  0.96161736787E-01 -0.25688211312E+02  0.42038743656E+03  0.42119231078E+03  0.41800000000E+01 0.  1.
         -5    1    3    3    0  502  0.20578914180E+02 -0.38712643324E+02  0.36146358641E+02  0.56975364018E+02  0.41800000000E+01 0.  1.
        -11    1    4    4    0    0 -0.93184646561E+01  0.83963375383E+02  0.27097291823E+03  0.28383622849E+03  0.00000000000E+00 0. -1.
         11    1    4    4    0    0 -0.11356611260E+02 -0.19562520748E+02  0.30562665231E+02  0.38022905509E+02  0.00000000000E+00 0.  1.
</event>
<event>
 8    1  0.6692409E-009  0.1377355E+03  0.7561462E-02  0.1216409E+00
          1   -1    0    0  501    0  0.00000000000E+00  0.00000000000E+00  0.18720841813E+02  0.18720841813E+02  0.00000000000E+00 0. -1.
         -1   -1    0    0    0  501 -0.00000000000E+00 -0.00000000000E+00 -0.15310802158E+04  0.15310802158E+04  0.00000000000E+00 0.  1.
         25    2    1    2    0    0  0.84228787924E+02 -0.28166023289E+02 -0.12431576753E+04  0.12525878746E+04  0.12509022445E+03 0.  0.
         23    2    1    2    0    0 -0.84228787924E+02  0.28166023289E+02 -0.26920169863E+03  0.29721318299E+03  0.89321374924E+02 0.  0.
          5    1    3    3  502    0  0.44321337197E+02 -0.77569008871E+02 -0.76638566069E+03  0.77158653784E+03  0.41800000000E+01 0.  1.
         -5    1    3    3    0  502  0.39907450726E+02  0.49402985583E+02 -0.47677201463E+03  0.48100133674E+03  0.41800000000E+01 0.  1.
        -11    1    4    4    0    0 -0.70888018250E+02 -0.18986106621E+02 -0.19438873622E+03  0.20778008602E+03  0.00000000000E+00 0.  1.
         11    1    4    4    0    0 -0.13340769674E+02  0.47152129910E+02 -0.74812962402E+02  0.89433096971E+02  0.00000000000E+00 0. -1.
</event>
<event>
 8    1  0.6692409E-009  0.7821335E+02  0.7561462E-02  0.1334200E+00
          1   -1    0    0  501    0  0.00000000000E+00  0.00000000000E+00  0.66423630282E+02  0.66423630282E+02  0.00000000000E+00 0. -1.
         -1   -1    0    0    0  501 -0.00000000000E+00 -0.00000000000E+00 -0.21094663990E+03  0.21094663990E+03  0.00000000000E+00 0.  1.
         25    2    1    2    0    0  0.21093142154E+02  0.10819463131E+02 -0.13106248418E+03  0.18273126639E+03  0.12510539368E+03 0.  0.
         23    2    1    2    0    0 -0.21093142154E+02 -0.10819463131E+02 -0.13460525446E+02  0.94639003800E+02  0.90627666122E+02 0.  0.
          5    1    3    3  502    0 -0.29863997892E+02 -0.47597126200E+01  0.98051420273E+01  0.32064410871E+02  0.41800000000E+01 0.  1.
         -5    1    3    3    0  502  0.50957140046E+02  0.15579175751E+02 -0.14086762620E+03  0.15066685552E+03  0.41800000000E+01 0.  1.
        -11    1    4    4    0    0 -0.41414659936E+02 -0.24342955549E+02  0.20983887904E+02  0.52422105013E+02  0.00000000000E+00 0.  1.
         11    1    4    4    0    0  0.20321517782E+02  0.13523492419E+02 -0.34444413350E+02  0.42216898787E+02  0.00000000000E+00 0. -1.
</event>
<event>
 8    1  0.6692409E-009  0.1651429E+03  0.7561462E-02  0.1183010E+00
          1   -1    0    0  501    0  0.00000000000E+00  0.00000000000E+00  0.95109393701E+03  0.95109393701E+03  0.00000000000E+00 0. -1.
         -1   -1    0    0    0  501 -0.00000000000E+00 -0.00000000000E+00 -0.43745218378E+02  0.43745218378E+02  0.00000000000E+00 0.  1.
         25    2    1    2    0    0 -0.12779899978E+03  0.91450656246E+02  0.30036470710E+03  0.36133394496E+03  0.12508979028E+03 0.  0.
         23    2    1    2    0    0  0.12779899978E+03 -0.91450656246E+02  0.60698401153E+03  0.63350521043E+03  0.90572923752E+02 0.  0.
          5    1    3    3  502    0 -0.38940214948E+02  0.99162324282E+01  0.20099562723E+03  0.20501557642E+03  0.41800000000E+01 0. -1.
         -5    1    3    3    0  502 -0.88858784834E+02  0.81534423818E+02  0.99369079865E+02  0.15631836854E+03  0.41800000000E+01 0. -1.
        -11    1    4    4    0    0  0.19072660742E+02 -0.48851135861E+02  0.96435346964E+02  0.10977238271E+03  0.00000000000E+00 0.  1.
         11    1    4    4    0    0  0.10872633904E+03 -0.42599520385E+02  0.51054866456E+03  0.52373282771E+03  0.00000000000E+00 0. -1.
</event>
<event>
 8    1  0.6692409E-009  0.1426358E+03  0.7561462E-02  0.1209826E+00
         -1   -1    0    0    0  501 -0.00000000000E+00  0.00000000000E+00  0.52917681742E+02  0.52917681742E+02  0.00000000000E+00 0.  1.
          1   -1    0    0  501    0  0.00000000000E+00 -0.00000000000E+00 -0.73515863241E+03  0.73515863241E+03  0.00000000000E+00 0. -1.
         25    2    1    2    0    0 -0.69486643284E+02  0.11849254713E+03 -0.53538705296E+03  0.56670736212E+03  0.12509620494E+03 0.  0.
         23    2    1    2    0    0  0.69486643284E+02 -0.11849254713E+03 -0.14685389771E+03  0.22136895203E+03  0.92570342598E+02 0.  0.
          5    1    3    3  502    0 -0.26354080483E+02  0.26430288676E+02 -0.37427289399E+03  0.37615258778E+03  0.41800000000E+01 0. -1.
         -5    1    3    3    0  502 -0.43132562801E+02  0.92062258454E+02 -0.16111415896E+03  0.19055477434E+03  0.41800000000E+01 0. -1.
        -11    1    4    4    0    0  0.12460500021E+02 -0.70017000909E+02 -0.12428689556E+03  0.14319524044E+03  0.00000000000E+00 0. -1.
         11    1    4    4    0    0  0.57026143263E+02 -0.48475546221E+02 -0.22567002148E+02  0.78173711584E+02  0.00000000000E+00 0.  1.
</event>
<event>
 8    1  0.6692409E-009  0.9430140E+02  0.7561462E-02  0.1292757E+00
         -1   -1    0    0    0  501 -0.00000000000E+00  0.00000000000E+00  0.93904851571E+02  0.93904851571E+02  0.00000000000E+00 0.  1.
          1   -1    0    0  501    0  0.00000000000E+00 -0.00000000000E+00 -0.18874821335E+03  0.18874821335E+03  0.00000000000E+00 0. -1.
         25    2    1    2    0    0 -0.98166516197E+01 -0.46223903264E+02 -0.11123570996E+03  0.17393580507E+03  0.12508902923E+03 0.  0.
         23    2    1    2    0    0  0.98166516197E+01  0.46223903264E+02  0.16392348186E+02  0.10871725985E+03  0.96528325521E+02 0.  0.
          5    1    3    3  502    0  0.48615681525E+02 -0.29561191573E+02 -0.95148560974E+02  0.11094173963E+03  0.41800000000E+01 0.  1.
         -5    1    3    3    0  502 -0.58432333145E+02 -0.16662711691E+02 -0.16087148987E+02  0.62994065436E+02  0.41800000000E+01 0.  1.
        -11    1    4    4    0    0  0.13114179755E+02 -0.86264655122E+01  0.44363271204E+02  0.47058447168E+02  0.00000000000E+00 0.  1.
         11    1    4    4    0    0 -0.32975281352E+01  0.54850368776E+02 -0.27970923019E+02  0.61658812681E+02  0.00000000000E+00 0. -1.
</event>
<event>
 8    1  0.6692409E-009  0.1308447E+03  0.7561462E-02  0.1226208E+00
         -1   -1    0    0    0  501 -0.00000000000E+00  0.00000000000E+00  0.40575999097E+02  0.40575999097E+02  0.00000000000E+00 0.  1.
          1   -1    0    0  501    0  0.00000000000E+00 -0.00000000000E+00 -0.47633952780E+03  0.47633952780E+03  0.00000000000E+00 0. -1.
         25    2    1    2    0    0 -0.77932660259E+02 -0.33829020349E+02 -0.21999851923E+03  0.26695532175E+03  0.12509153925E+03 0.  0.
         23    2    1    2    0    0  0.77932660259E+02  0.33829020349E+02 -0.21576500947E+03  0.24996020514E+03  0.93314857837E+02 0.  0.
          5    1    3    3  502    0 -0.11037002652E+03 -0.39033682497E+02 -0.15829481175E+03  0.19692610531E+03  0.41800000000E+01 0. -1.
         -5    1    3    3    0  502  0.32437366265E+02  0.52046621484E+01 -0.61703707483E+02  0.70029216442E+02  0.41800000000E+01 0. -1.
        -11    1    4    4    0    0  0.31508411234E+02  0.52630715741E+02 -0.57943548103E+02  0.84381437442E+02  0.00000000000E+00 0.  1.
         11    1    4    4    0    0  0.46424249025E+02 -0.18801695393E+02 -0.15782146136E+03  0.16557876770E+03  0.00000000000E+00 0. -1.
</event>
<event>
 8    1  0.6692409E-009  0.7315774E+02  0.7561462E-02  0.1349673E+00
         -4   -1    0    0    0  501 -0.00000000000E+00  0.00000000000E+00  0.11433944518E+03  0.11433944518E+03  0.00000000000E+00 0.  1.
          4   -1    0    0  501    0  0.00000000000E+00 -0.00000000000E+00 -0.11481439868E+03  0.11481439868E+03  0.00000000000E+00 0. -1.
         25    2    1    2    0    0  0.69749783649E+00 -0.42922347333E+02  0.97473464222E+01  0.13261803936E+03  0.12509883771E+03 0.  0.
         23    2    1    2    0    0 -0.69749783649E+00  0.42922347333E+02 -0.10222299926E+02  0.96535804499E+02  0.85859488297E+02 0.  0.
          5    1    3    3  502    0 -0.12257165600E+02 -0.78959240947E+00 -0.53701937113E+02  0.55247009099E+02  0.41800000000E+01 0.  1.
         -5    1    3    3    0  502  0.12954663436E+02 -0.42132754923E+02  0.63449283535E+02  0.77371030259E+02  0.41800000000E+01 0.  1.
        -11    1    4    4    0    0 -0.25050088710E+02  0.56053850652E+02  0.10080111336E+02  0.62218564447E+02  0.00000000000E+00 0.  1.
         11    1    4    4    0    0  0.24352590873E+02 -0.13131503319E+02 -0.20302411262E+02  0.34317240051E+02  0.00000000000E+00 0. -1.
</event>
<event>
 8    1  0.6692409E-009  0.1169324E+03  0.7561462E-02  0.1248245E+00
         -2   -1    0    0    0  501 -0.00000000000E+00  0.00000000000E+00  0.27883241216E+03  0.27883241216E+03  0.00000000000E+00 0.  1.
          2   -1    0    0  501    0  0.00000000000E+00 -0.00000000000E+00 -0.62784170399E+02  0.62784170399E+02  0.00000000000E+00 0. -1.
         25    2    1    2    0    0 -0.65848977745E+02 -0.36859304769E+02  0.95393971829E+02  0.17447633865E+03  0.12508911491E+03 0.  0.
         23    2    1    2    0    0  0.65848977745E+02  0.36859304769E+02  0.12065426993E+03  0.16714024391E+03  0.87656785609E+02 0.  0.
          5    1    3    3  502    0 -0.30844822091E+02 -0.82199168925E+02  0.66290723356E+02  0.11009104789E+03  0.41800000000E+01 0. -1.
         -5    1    3    3    0  502 -0.35004155654E+02  0.45339864156E+02  0.29103248473E+02  0.64385290762E+02  0.41800000000E+01 0. -1.
        -11    1    4    4    0    0  0.95108069487E+01  0.30372525581E+02  0.10290923477E+03  0.10771841235E+03  0.00000000000E+00 0.  1.
         11    1    4    4    0    0  0.56338170796E+02  0.64867791883E+01  0.17745035166E+02  0.59421831560E+02  0.00000000000E+00 0. -1.
</event>
<event>
 7    1  0.6692409E-009  0.1734974E+03  0.7561462E-02  0.1174249E+00
         -2   -1    0    0    0  501 -0.00000000000E+00  0.00000000000E+00  0.44014236196E+02  0.44014236196E+02  0.00000000000E+00 0.  1.
          2   -1    0    0  501    0  0.00000000000E+00 -0.00000000000E+00 -0.96393477706E+03  0.96393477706E+03  0.00000000000E+00 0. -1.
         25    2    1    2    0    0  0.15372037485E+03 -0.35649752050E+02 -0.44164142784E+03  0.48538206153E+03  0.12509091256E+03 0.  0.
          5    1    3    3  502    0  0.57133135231E+02 -0.60424589897E+02 -0.10358139418E+03  0.13289809564E+03  0.41800000000E+01 0. -1.
         -5    1    3    3    0  502  0.96587239622E+02  0.24774837847E+02 -0.33806003366E+03  0.35248396588E+03  0.41800000000E+01 0. -1.
        -11    1    1    2    0    0 -0.75582177614E+02  0.40296926719E+02 -0.81814031125E+02  0.11844848486E+03  0.00000000000E+00 0.  1.
         11    1    1    2    0    0 -0.78138197239E+02 -0.46471746695E+01 -0.39646508190E+03  0.40411846688E+03  0.00000000000E+00 0. -1.
</event>
<event>
 8    1  0.6692409E-009  0.3566539E+03  0.7561462E-02  0.1059917E+00
         -1   -1    0    0    0  501 -0.00000000000E+00  0.00000000000E+00  0.57596349548E+02  0.57596349548E+02  0.00000000000E+00 0.  1.
          1   -1    0    0  501    0  0.00000000000E+00 -0.00000000000E+00 -0.27632483982E+04  0.27632483982E+04  0.00000000000E+00 0. -1.
         25    2    1    2    0    0 -0.15770494379E+03 -0.31561213978E+03 -0.19104143653E+04  0.19467447832E+04  0.12510128510E+03 0.  0.
         23    2    1    2    0    0  0.15770494379E+03  0.31561213978E+03 -0.79523768336E+03  0.87409996460E+03  0.84651656849E+02 0.  0.
          5    1    3    3  502    0 -0.14274966470E+03 -0.30013530893E+03 -0.15294296587E+04  0.15651297785E+04  0.41800000000E+01 0.  1.
         -5    1    3    3    0  502 -0.14955279084E+02 -0.15476830841E+02 -0.38098470661E+03  0.38161500460E+03  0.41800000000E+01 0.  1.
        -11    1    4    4    0    0  0.10475551451E+03  0.13550824047E+03 -0.31652409817E+03  0.35989402020E+03  0.00000000000E+00 0.  1.
         11    1    4    4    0    0  0.52949429276E+02  0.18010389930E+03 -0.47871358520E+03  0.51420594440E+03  0.00000000000E+00 0. -1.
</event>
<event>
 8    1  0.6692409E-009  0.1352404E+03  0.7561462E-02  0.1219881E+00
         -1   -1    0    0    0  501 -0.00000000000E+00  0.00000000000E+00  0.61335291097E+02  0.61335291097E+02  0.00000000000E+00 0.  1.
          1   -1    0    0  501    0  0.00000000000E+00 -0.00000000000E+00 -0.38038870762E+03  0.38038870762E+03  0.00000000000E+00 0. -1.
         25    2    1    2    0    0  0.13535884964E+02 -0.10490677193E+03 -0.14319934060E+03  0.21758212926E+03  0.12508909163E+03 0.  0.
         23    2    1    2    0    0 -0.13535884964E+02  0.10490677193E+03 -0.17585407593E+03  0.22414186946E+03  0.90145829895E+02 0.  0.
          5    1    3    3  502    0  0.97859714761E+01 -0.13355241641E+03 -0.12465957278E+03  0.18300135151E+03  0.41800000000E+01 0. -1.
         -5    1    3    3    0  502  0.37499134879E+01  0.28645644481E+02 -0.18539767819E+02  0.34580777748E+02  0.41800000000E+01 0. -1.
        -11    1    4    4    0    0  0.43708431326E+00  0.65533794237E+02 -0.29368438645E+02  0.71814862098E+02  0.00000000000E+00 0.  1.
         11    1    4    4    0    0 -0.13972969277E+02  0.39372977696E+02 -0.14648563728E+03  0.15232700737E+03  0.00000000000E+00 0. -1.
</event>
<event>
 8    1  0.6692409E-009  0.2605669E+03  0.7561462E-02  0.1106803E+00
          1   -1    0    0  501    0  0.00000000000E+00  0.00000000000E+00  0.88878988472E+03  0.88878988472E+03  0.00000000000E+00 0. -1.
         -1   -1    0    0    0  501 -0.00000000000E+00 -0.00000000000E+00 -0.78340762217E+02  0.78340762217E+02  0.00000000000E+00 0.  1.
         25    2    1    2    0    0 -0.91848915363E+02  0.21856271159E+03  0.37081701313E+03  0.45755704061E+03  0.12508919231E+03 0.  0.
         23    2    1    2    0    0  0.91848915363E+02 -0.21856271159E+03  0.43963210938E+03  0.50957360633E+03  0.10091078496E+03 0.  0.
          5    1    3    3  502    0  0.28005820033E+02  0.18457858603E+02  0.34979609723E+02  0.48642203859E+02  0.41800000000E+01 0.  1.
         -5    1    3    3    0  502 -0.11985473540E+03  0.20010485299E+03  0.33583740340E+03  0.40891483675E+03  0.41800000000E+01 0.  1.
        -11    1    4    4    0    0  0.31501307629E+02 -0.17930057939E+03  0.27391323731E+03  0.32889130686E+03  0.00000000000E+00 0. -1.
         11    1    4    4    0    0  0.60347607734E+02 -0.39262132205E+02  0.16571887207E+03  0.18068229947E+03  0.00000000000E+00 0.  1.
</event>
<event>
 8    1  0.6692409E-009  0.9146964E+02  0.7561462E-02  0.1299331E+00
          1   -1    0    0  501    0  0.00000000000E+00  0.00000000000E+00  0.63133374167E+03  0.63133374167E+03  0.00000000000E+00 0. -1.
         -1   -1    0    0    0  501 -0.00000000000E+00 -0.00000000000E+00 -0.22794065926E+02  0.22794065926E+02  0.00000000000E+00 0.  1.
         25    2    1    2    0    0  0.47448646704E+02 -0.61811430874E+01  0.29283994281E+03  0.32201129695E+03  0.12508582115E+03 0.  0.
         23    2    1    2    0    0 -0.47448646704E+02  0.61811430874E+01  0.31569973293E+03  0.33211651064E+03  0.91353569538E+02 0.  0.
          5    1    3    3  502    0 -0.66359528348E+01 -0.28530731926E+02  0.24367572761E+03  0.24546562114E+03  0.41800000000E+01 0. -1.
         -5    1    3    3    0  502  0.54084599538E+02  0.22349588839E+02  0.49164215197E+02  0.76545675805E+02  0.41800000000E+01 0. -1.
        -11    1    4    4    0    0  0.23432238607E+02 -0.88120642839E+00  0.32376271731E+02  0.39975858991E+02  0.00000000000E+00 0.  1.
         11    1    4    4    0    0 -0.70880885311E+02  0.70623495158E+01  0.28332346120E+03  0.29214065165E+03  0.00000000000E+00 0. -1.
</event>
<event>
 8    1  0.6692409E-009  0.1581081E+03  0.7561462E-02  0.1190849E+00
         -2   -1    0    0    0  501 -0.00000000000E+00  0.00000000000E+00  0.10485565034E+03  0.10485565034E+03  0.00000000000E+00 0.  1.
          2   -1    0    0  501    0  0.00000000000E+00 -0.00000000000E+00 -0.25408880189E+03  0.25408880189E+03  0.00000000000E+00 0. -1.
         25    2    1    2    0    0  0.43527245814E+02 -0.10989486433E+03 -0.11250457625E+03  0.20561217746E+03  0.12509030941E+03 0.  0.
         23    2    1    2    0    0 -0.43527245814E+02  0.10989486433E+03 -0.36728575295E+02  0.15333227477E+03  0.90500253629E+02 0.  0.
          5    1    3    3  502    0  0.85275949827E+02 -0.86074431374E+02 -0.63569005947E+02  0.13689151278E+03  0.41800000000E+01 0.  1.
         -5    1    3    3    0  502 -0.41748704013E+02 -0.23820432958E+02 -0.48935570302E+02  0.68720664679E+02  0.41800000000E+01 0.  1.
        -11    1    4    4    0    0 -0.66010675498E+02  0.50160510138E+02 -0.78493308060E+01  0.83277236091E+02  0.00000000000E+00 0.  1.
         11    1    4    4    0    0  0.22483429684E+02  0.59734354195E+02 -0.28879244489E+02  0.70055038675E+02  0.00000000000E+00 0. -1.
</event>
<event>
 8    1  0.6692409E-009  0.9311290E+02  0.7561462E-02  0.1295484E+00
          1   -1    0    0  501    0  0.00000000000E+00  0.00000000000E+00  0.50817780925E+03  0.50817780925E+03  0.00000000000E+00 0. -1.
         -1   -1    0    0    0  501 -0.00000000000E+00 -0.00000000000E+00 -0.23655903194E+02  0.23655903194E+02  0.00000000000E+00 0.  1.
         25    2    1    2    0    0 -0.71294287127E+01 -0.12696747765E+02  0.29604976372E+03  0.32172268086E+03  0.12509190469E+03 0.  0.
         23    2    1    2    0    0  0.71294287127E+01  0.12696747765E+02  0.18847214233E+03  0.21011103159E+03  0.91721649585E+02 0.  0.
          5    1    3    3  502    0 -0.49390451462E+02  0.20344757953E+02  0.23182927341E+03  0.23794035026E+03  0.41800000000E+01 0.  1.
         -5    1    3    3    0  502  0.42261022749E+02 -0.33041505718E+02  0.64220490313E+02  0.83782330595E+02  0.41800000000E+01 0.  1.
        -11    1    4    4    0    0  0.68926846127E+01  0.45507850199E+02  0.16057961333E+03  0.16704575945E+03  0.00000000000E+00 0. -1.
         11    1    4    4    0    0  0.23674410004E+00 -0.32811102434E+02  0.27892528996E+02  0.43065272140E+02  0.00000000000E+00 0.  1.
</event>
<event>
 8    1  0.6692409E-009  0.1248054E+03  0.7561462E-02  0.1235374E+00
          2   -1    0    0  501    0  0.00000000000E+00  0.00000000000E+00  0.76989811473E+03  0.76989811473E+03  0.00000000000E+00 0. -1.
         -2   -1    0    0    0  501 -0.00000000000E+00 -0.00000000000E+00 -0.31667694374E+02  0.31667694374E+02  0.00000000000E+00 0.  1.
         25    2    1    2    0    0 -0.10662023171E+03 -0.73404890305E+01  0.46281942580E+03  0.49119108569E+03  0.12508039484E+03 0.  0.
         23    2    1    2    0    0  0.10662023171E+03  0.73404890305E+01  0.27541099456E+03  0.31037472342E+03  0.95181386957E+02 0.  0.
          5    1    3    3  502    0 -0.12421113729E+03 -0.88275163935E+01  0.26820065511E+03  0.29572858414E+03  0.41800000000E+01 0.  1.
         -5    1    3    3    0  502  0.17590905576E+02  0.14870273630E+01  0.19461877069E+03  0.19546250156E+03  0.41800000000E+01 0.  1.
        -11    1    4    4    0    0  0.65365954028E+02  0.41972468492E+01  0.25677476464E+03  0.26499736712E+03  0.00000000000E+00 0. -1.
         11    1    4    4    0    0  0.41254277685E+02  0.31432421813E+01  0.18636229921E+02  0.45377356295E+02  0.00000000000E+00 0.  1.
</event>
<event>
 8    1  0.6692409E-009  0.9314505E+02  0.7561462E-02  0.1295409E+00
          2   -1    0    0  501    0  0.00000000000E+00  0.00000000000E+00  0.17474385106E+03  0.17474385106E+03  0.00000000000E+00 0. -1.
         -2   -1    0    0    0  501 -0.00000000000E+00 -0.00000000000E+00 -0.98336030337E+02  0.98336030337E+02  0.00000000000E+00 0.  1.
         25    2    1    2    0    0 -0.31781399630E+02 -0.64468491065E+02  0.38132308580E+02  0.14921531782E+03  0.12507955233E+03 0.  0.
         23    2    1    2    0    0  0.31781399630E+02  0.64468491065E+02  0.38275512145E+02  0.12386456358E+03  0.93333657263E+02 0.  0.
          5    1    3    3  502    0 -0.27333146750E+02  0.47862518637E+01 -0.37269910246E+02  0.46653271353E+02  0.41800000000E+01 0. -1.
         -5    1    3    3    0  502 -0.44482528796E+01 -0.69254742928E+02  0.75402218826E+02  0.10256204647E+03  0.41800000000E+01 0. -1.
        -11    1    4    4    0    0  0.39677778236E+02  0.21721127959E+02 -0.21394925709E+02  0.50038748302E+02  0.00000000000E+00 0.  1.
         11    1    4    4    0    0 -0.78963786058E+01  0.42747363105E+02  0.59670437854E+02  0.73825815276E+02  0.00000000000E+00 0. -1.
</event>
<event>
 8    1  0.6692409E-009  0.9021885E+02  0.7561462E-02  0.1302323E+00
          1   -1    0    0  501    0  0.00000000000E+00  0.00000000000E+00  0.47192480747E+03  0.47192480747E+03  0.00000000000E+00 0. -1.
         -1   -1    0    0    0  501 -0.00000000000E+00 -0.00000000000E+00 -0.40300630299E+02  0.40300630299E+02  0.00000000000E+00 0.  1.
         25    2    1    2    0    0  0.65041027254E+01 -0.10822850417E+02  0.39766969598E+03  0.41707158272E+03  0.12509228820E+03 0.  0.
         23    2    1    2    0    0 -0.65041027254E+01  0.10822850417E+02  0.33954481185E+02  0.95153855045E+02  0.87988134961E+02 0.  0.
          5    1    3    3  502    0  0.43958296406E+02 -0.26579676711E+02  0.35218881258E+03  0.35593994317E+03  0.41800000000E+01 0.  1.
         -5    1    3    3    0  502 -0.37454193681E+02  0.15756826294E+02  0.45480883403E+02  0.61131639552E+02  0.41800000000E+01 0.  1.
        -11    1    4    4    0    0 -0.20844941319E+02 -0.34613026403E+02  0.91074401312E+01  0.41418819890E+02  0.00000000000E+00 0.  1.
         11    1    4    4    0    0  0.14340838593E+02  0.45435876820E+02  0.24847041054E+02  0.53735035155E+02  0.00000000000E+00 0. -1.
</event>
<event>
 8    1  0.6692409E-009  0.1824501E+03  0.7561462E-02  0.1165453E+00
          1   -1    0    0  501    0  0.00000000000E+00  0.00000000000E+00  0.32225836866E+03  0.32225836866E+03  0.00000000000E+00 0. -1.
         -1   -1    0    0    0  501 -0.00000000000E+00 -0.00000000000E+00 -0.12022497917E+03  0.12022497917E+03  0.00000000000E+00 0.  1.
         25    2    1    2    0    0  0.66350247743E+02 -0.13224842264E+03  0.18615575666E+03  0.26868867675E+03  0.12509052166E+03 0.  0.
         23    2    1    2    0    0 -0.66350247743E+02  0.13224842264E+03  0.15877632828E+02  0.17379467108E+03  0.89780219452E+02 0.  0.
          5    1    3    3  502    0  0.69705786132E+02 -0.90501753609E+01  0.69600636735E+02  0.99007693278E+02  0.41800000000E+01 0. -1.
         -5    1    3    3    0  502 -0.33555383892E+01 -0.12319824728E+03  0.11655511993E+03  0.16968098348E+03  0.41800000000E+01 0. -1.
        -11    1    4    4    0    0 -0.23942064631E+01  0.99110068033E+02 -0.35053463519E+01  0.99200933781E+02  0.00000000000E+00 0. -1.
         11    1    4    4    0    0 -0.63956041279E+02  0.33138354610E+02  0.19382979180E+02  0.74593737300E+02  0.00000000000E+00 0.  1.
</event>
<event>
 8    1  0.6692409E-009  0.1599912E+03  0.7561462E-02  0.1188707E+00
         -2   -1    0    0    0  501 -0.00000000000E+00  0.00000000000E+00  0.88906477888E+02  0.88906477888E+02  0.00000000000E+00 0.  1.
          2   -1    0    0  501    0  0.00000000000E+00 -0.00000000000E+00 -0.33944480881E+03  0.33944480881E+03  0.00000000000E+00 0. -1.
         25    2    1    2    0    0 -0.11819903338E+03  0.65752031559E+02 -0.14085803893E+03  0.23190836477E+03  0.12508461685E+03 0.  0.
         23    2    1    2    0    0  0.11819903338E+03 -0.65752031559E+02 -0.10968029200E+03  0.19644292193E+03  0.90915972065E+02 0.  0.
          5    1    3    3  502    0  0.25061686761E+02  0.17445266967E+02 -0.38348390274E+02  0.49198545908E+02  0.41800000000E+01 0. -1.
         -5    1    3    3    0  502 -0.14326072014E+03  0.48306764592E+02 -0.10250964865E+03  0.18270981886E+03  0.41800000000E+01 0. -1.
        -11    1    4    4    0    0  0.91918503353E+01 -0.15192242650E+02 -0.66385818193E+02  0.68719511105E+02  0.00000000000E+00 0. -1.
         11    1    4    4    0    0  0.10900718305E+03 -0.50559788910E+02 -0.43294473803E+02  0.12772341082E+03  0.00000000000E+00 0.  1.
</event>
<event>
 8    1  0.6692409E-009  0.6592776E+02  0.7561462E-02  0.1374515E+00
          2   -1    0    0  501    0  0.00000000000E+00  0.00000000000E+00  0.10021106589E+04  0.10021106589E+04  0.00000000000E+00 0. -1.
         -2   -1    0    0    0  501 -0.00000000000E+00 -0.00000000000E+00 -0.18222432441E+02  0.18222432441E+02  0.00000000000E+00 0.  1.
         25    2    1    2    0    0  0.18089128758E+02  0.80900804819E+01  0.85038805196E+03  0.85976137478E+03  0.12504845731E+03 0.  0.
         23    2    1    2    0    0 -0.18089128758E+02 -0.80900804819E+01  0.13350017449E+03  0.16057171654E+03  0.86996054994E+02 0.  0.
          5    1    3    3  502    0  0.41501416738E+02 -0.93817825595E+01  0.99534042909E+02  0.10832766744E+03  0.41800000000E+01 0.  1.
         -5    1    3    3    0  502 -0.23412287979E+02  0.17471863041E+02  0.75085400905E+03  0.75143370734E+03  0.41800000000E+01 0.  1.
        -11    1    4    4    0    0  0.20184671923E+02 -0.67882046444E+01 -0.40354198238E+00  0.21299379077E+02  0.00000000000E+00 0.  1.
         11    1    4    4    0    0 -0.38273800682E+02 -0.13018758376E+01  0.13390371647E+03  0.13927233747E+03  0.00000000000E+00 0. -1.
</event>
<event>
 8    1  0.6692409E-009  0.1422529E+03  0.7561462E-02  0.1210329E+00
          2   -1    0    0  501    0  0.00000000000E+00  0.00000000000E+00  0.92362091044E+03  0.92362091044E+03  0.00000000000E+00 0. -1.
         -2   -1    0    0    0  501 -0.00000000000E+00 -0.00000000000E+00 -0.27498499706E+02  0.27498499706E+02  0.00000000000E+00 0.  1.
         25    2    1    2    0    0 -0.10141807554E+03  0.52422690466E+02  0.53756727876E+03  0.56361298443E+03  0.12508897836E+03 0.  0.
         23    2    1    2    0    0  0.10141807554E+03 -0.52422690466E+02  0.35855513198E+03  0.38750642572E+03  0.92550973963E+02 0.  0.
          5    1    3    3  502    0 -0.46737314867E+02 -0.39138949207E+02  0.23332661143E+03  0.24119497081E+03  0.41800000000E+01 0. -1.
         -5    1    3    3    0  502 -0.54680760671E+02  0.91561639673E+02  0.30424066733E+03  0.32241801362E+03  0.41800000000E+01 0. -1.
        -11    1    4    4    0    0  0.39196226951E+02 -0.33710145910E+02  0.49083509953E+02  0.71287510083E+02  0.00000000000E+00 0.  1.
         11    1    4    4    0    0  0.62221848587E+02 -0.18712544557E+02  0.30947162203E+03  0.31621891564E+03  0.00000000000E+00 0. -1.
</event>
<event>
 8    1  0.6692409E-009  0.1099435E+03  0.7561462E-02  0.1260674E+00
         -2   -1    0    0    0  501 -0.00000000000E+00  0.00000000000E+00  0.33968531829E+02  0.33968531829E+02  0.00000000000E+00 0.  1.
          2   -1    0    0  501    0  0.00000000000E+00 -0.00000000000E+00 -0.90027676027E+03  0.90027676027E+03  0.00000000000E+00 0. -1.
         25    2    1    2    0    0  0.43846629260E+02 -0.69576549778E+02 -0.73101325050E+03  0.74618441846E+03  0.12508953101E+03 0.  0.
         23    2    1    2    0    0 -0.43846629260E+02  0.69576549778E+02 -0.13529497793E+03  0.18806087363E+03  0.10148269784E+03 0.  0.
          5    1    3    3  502    0  0.21554003673E+02 -0.88650043272E+02 -0.68749111968E+03  0.69353076160E+03  0.41800000000E+01 0. -1.
         -5    1    3    3    0  502  0.22292625587E+02  0.19073493494E+02 -0.43522130828E+02  0.52653656867E+02  0.41800000000E+01 0. -1.
        -11    1    4    4    0    0 -0.22384174472E+02  0.73738763644E+02 -0.14495008623E+03  0.16416145720E+03  0.00000000000E+00 0. -1.
         11    1    4    4    0    0 -0.21462454788E+02 -0.41622138665E+01  0.96551082962E+01  0.23899416436E+02  0.00000000000E+00 0.  1.
</event>
<event>
 8    1  0.6692409E-009  0.6809432E+02  0.7561462E-02  0.1366696E+00
          3   -1    0    0  501    0  0.00000000000E+00  0.00000000000E+00  0.83924365478E+02  0.83924365478E+02  0.00000000000E+00 0.  1.
         -3   -1    0    0    0  501 -0.00000000000E+00 -0.00000000000E+00 -0.16714470046E+03  0.16714470046E+03  0.00000000000E+00 0. -1.
         25    2    1    2    0    0 -0.26013718307E+02  0.20456704679E+02 -0.67534656229E+02  0.14595842773E+03  0.12509093703E+03 0.  0.
         23    2    1    2    0    0  0.26013718307E+02 -0.20456704679E+02 -0.15685678751E+02  0.10511063821E+03  0.98524187079E+02 0.  0.
          5    1    3    3  502    0 -0.28112902985E+02 -0.18642020727E+02 -0.93031920072E+02  0.99046811172E+02  0.41800000000E+01 0.  1.
         -5    1    3    3    0  502  0.20991846786E+01  0.39098725406E+02  0.25497263843E+02  0.46911616559E+02  0.41800000000E+01 0.  1.
        -11    1    4    4    0    0  0.24699623261E+02  0.13964997833E+02  0.34231120235E+02  0.44461917933E+02  0.00000000000E+00 0.  1.
         11    1    4    4    0    0  0.13140950455E+01 -0.34421702512E+02 -0.49916798986E+02  0.60648720272E+02  0.00000000000E+00 0. -1.
</event>
<event>
 8    1  0.6692409E-009  0.9810879E+02  0.7561462E-02  0.1284324E+00
          2   -1    0    0  501    0  0.00000000000E+00  0.00000000000E+00  0.16585564030E+04  0.16585564030E+04  0.00000000000E+00 0. -1.
         -2   -1    0    0    0  501 -0.00000000000E+00 -0.00000000000E+00 -0.15952335728E+02  0.15952335728E+02  0.00000000000E+00 0.  1.
         25    2    1    2    0    0 -0.54613167059E+01 -0.41015153478E+02  0.14662260962E+04  0.14721332382E+04  0.12508092249E+03 0.  0.
         23    2    1    2    0    0  0.54613167059E+01  0.41015153478E+02  0.17637797113E+03  0.20237550054E+03  0.90191938244E+02 0.  0.
          5    1    3    3  502    0 -0.56170872320E+02 -0.51200577413E+02  0.10352063565E+04  0.10380011267E+04  0.41800000000E+01 0.  1.
         -5    1    3    3    0  502  0.50709555615E+02  0.10185423935E+02  0.43101973968E+03  0.43413211156E+03  0.41800000000E+01 0.  1.
        -11    1    4    4    0    0  0.28472238825E+02  0.11319986050E+02  0.10642540740E+02  0.32435692398E+02  0.00000000000E+00 0.  1.
         11    1    4    4    0    0 -0.23010922120E+02  0.29695167428E+02  0.16573543039E+03  0.16993980814E+03  0.00000000000E+00 0. -1.
</event>
<event>
 8    1  0.6692409E-009  0.9539662E+02  0.7561462E-02  0.1290285E+00
         -1   -1    0    0    0  501 -0.00000000000E+00  0.00000000000E+00  0.32874505742E+03  0.32874505742E+03  0.00000000000E+00 0.  1.
          1   -1    0    0  501    0  0.00000000000E+00 -0.00000000000E+00 -0.38615866942E+02  0.38615866942E+02  0.00000000000E+00 0. -1.
         25    2    1    2    0    0 -0.12466053484E+02 -0.24303825232E+02  0.16550227559E+03  0.20924835719E+03  0.12509114017E+03 0.  0.
         23    2    1    2    0    0  0.12466053484E+02  0.24303825232E+02  0.12462691488E+03  0.15811256718E+03  0.93389708079E+02 0.  0.
          5    1    3    3  502    0  0.32771207184E+02 -0.39291855117E+02  0.15065169944E+03  0.15915781112E+03  0.41800000000E+01 0.  1.
         -5    1    3    3    0  502 -0.45237260668E+02  0.14988029885E+02  0.14850576157E+02  0.50090546062E+02  0.41800000000E+01 0.  1.
        -11    1    4    4    0    0 -0.60066075766E+01 -0.31898709408E+02  0.20613509823E+02  0.38451577129E+02  0.00000000000E+00 0. -1.
         11    1    4    4    0    0  0.18472661060E+02  0.56202534640E+02  0.10401340506E+03  0.11966099005E+03  0.00000000000E+00 0.  1.
</event>
<event>
 8    1  0.6692409E-009  0.1149009E+03  0.7561462E-02  0.1251754E+00
         -1   -1    0    0    0  501 -0.00000000000E+00  0.00000000000E+00  0.28698373126E+02  0.28698373126E+02  0.00000000000E+00 0.  1.
          1   -1    0    0  501    0  0.00000000000E+00 -0.00000000000E+00 -0.60114460637E+03  0.60114460637E+03  0.00000000000E+00 0. -1.
         25    2    1    2    0    0  0.44047134415E+02 -0.39464875825E+02 -0.21190015042E+03  0.25307258118E+03  0.12508569512E+03 0.  0.
         23    2    1    2    0    0 -0.44047134415E+02  0.39464875825E+02 -0.36054608283E+03  0.37677039832E+03  0.92004503877E+02 0.  0.
          5    1    3    3  502    0  0.81058586947E+02  0.20524794196E+01 -0.10760825599E+03  0.13480250868E+03  0.41800000000E+01 0.  1.
         -5    1    3    3    0  502 -0.37011452532E+02 -0.41517355245E+02 -0.10429189443E+03  0.11827007250E+03  0.41800000000E+01 0.  1.
        -11    1    4    4    0    0 -0.13850598887E+02 -0.21052649438E+02 -0.29102943307E+02  0.38497200509E+02  0.00000000000E+00 0.  1.
         11    1    4    4    0    0 -0.30196535529E+02  0.60517525263E+02 -0.33144313952E+03  0.33827319781E+03  0.00000000000E+00 0. -1.
</event>
<event>
 8    1  0.6692409E-009  0.8321474E+02  0.7561462E-02  0.1320168E+00
          2   -1    0    0  501    0  0.00000000000E+00  0.00000000000E+00  0.37873755287E+03  0.37873755287E+03  0.00000000000E+00 0. -1.
         -2   -1    0    0    0  501 -0.00000000000E+00 -0.00000000000E+00 -0.43933477034E+02  0.43933477034E+02  0.00000000000E+00 0.  1.
         25    2    1    2    0    0  0.43655847041E+02  0.19050324976E+02  0.27378333845E+03  0.30474989058E+03  0.12508569677E+03 0.  0.
         23    2    1    2    0    0 -0.43655847041E+02 -0.19050324976E+02  0.61020737382E+02  0.11792113932E+03  0.88955701585E+02 0.  0.
          5    1    3    3  502    0  0.25669506372E+01 -0.16649459069E+02  0.23983776331E+03  0.24046500543E+03  0.41800000000E+01 0. -1.
         -5    1    3    3    0  502  0.41088896404E+02  0.35699784045E+02  0.33945575137E+02  0.64284885159E+02  0.41800000000E+01 0. -1.
        -11    1    4    4    0    0 -0.45654304869E+02  0.23867358441E+02  0.53559122049E+02  0.74313833885E+02  0.00000000000E+00 0.  1.
         11    1    4    4    0    0  0.19984578281E+01 -0.42917683417E+02  0.74616153327E+01  0.43607305431E+02  0.00000000000E+00 0. -1.
</event>
<event>
 8    1  0.6692409E-009  0.1451733E+03  0.7561462E-02  0.1206533E+00
         -2   -1    0    0    0  501 -0.00000000000E+00  0.00000000000E+00  0.27626969553E+03  0.27626969553E+03  0.00000000000E+00 0. -1.
          2   -1    0    0  501    0  0.00000000000E+00 -0.00000000000E+00 -0.11467868310E+03  0.11467868310E+03  0.00000000000E+00 0.  1.
         25    2    1    2    0    0  0.10638640248E+03  0.66121677845E+02  0.16321178129E+02  0.17777745696E+03  0.12509316701E+03 0.  0.
         23    2    1    2    0    0 -0.10638640248E+03 -0.66121677845E+02  0.14526983430E+03  0.21317092167E+03  0.92996635283E+02 0.  0.
          5    1    3    3  502    0 -0.16446006805E+02  0.33699032654E+02  0.32301726910E+02  0.49668600776E+02  0.41800000000E+01 0.  1.
         -5    1    3    3    0  502  0.12283240929E+03  0.32422645191E+02 -0.15980548781E+02  0.12810885618E+03  0.41800000000E+01 0.  1.
        -11    1    4    4    0    0 -0.25195776418E+02 -0.19702898481E+02 -0.85887281085E+01  0.33117934845E+02  0.00000000000E+00 0.  1.
         11    1    4    4    0    0 -0.81190626063E+02 -0.46418779365E+02  0.15385856241E+03  0.18005298682E+03  0.00000000000E+00 0. -1.
</event>
<event>
 8    1  0.6692409E-009  0.9475777E+02  0.7561462E-02  0.1291723E+00
         -2   -1    0    0    0  501 -0.00000000000E+00  0.00000000000E+00  0.23564015430E+02  0.23564015430E+02  0.00000000000E+00 0.  1.
          2   -1    0    0  501    0  0.00000000000E+00 -0.00000000000E+00 -0.65587935584E+03  0.65587935584E+03  0.00000000000E+00 0. -1.
         25    2    1    2    0    0 -0.20662571463E+01 -0.27757863780E+02 -0.50137268658E+03  0.51748842227E+03  0.12507968624E+03 0.  0.
         23    2    1    2    0    0  0.20662571463E+01  0.27757863780E+02 -0.13094265383E+03  0.16195494900E+03  0.91151843064E+02 0.  0.
          5    1    3    3  502    0  0.35753492060E+02 -0.64609063223E+02 -0.25638046007E+03  0.26683525994E+03  0.41800000000E+01 0. -1.
         -5    1    3    3    0  502 -0.37819749207E+02  0.36851199443E+02 -0.24499222651E+03  0.25065316232E+03  0.41800000000E+01 0. -1.
        -11    1    4    4    0    0  0.28563864622E+02  0.84111485035E+01 -0.30630113744E+01  0.29933656976E+02  0.00000000000E+00 0.  1.
         11    1    4    4    0    0 -0.26497607475E+02  0.19346715277E+02 -0.12787964245E+03  0.13202129202E+03  0.00000000000E+00 0. -1.
</event>
<event>
 8    1  0.6692409E-009  0.1029644E+03  0.7561462E-02  0.1274183E+00
          2   -1    0    0  501    0  0.00000000000E+00  0.00000000000E+00  0.57849896313E+02  0.57849896313E+02  0.00000000000E+00 0. -1.
         -2   -1    0    0    0  501 -0.00000000000E+00 -0.00000000000E+00 -0.62175079933E+03  0.62175079933E+03  0.00000000000E+00 0.  1.
         25    2    1    2    0    0 -0.62899127019E+02  0.10571100715E+02 -0.55206304894E+03  0.56963968403E+03  0.12509081207E+03 0.  0.
         23    2    1    2    0    0  0.62899127019E+02 -0.10571100715E+02 -0.11837854075E+02  0.10996101161E+03  0.88787617016E+02 0.  0.
          5    1    3    3  502    0 -0.85176979567E+02 -0.29033733165E+02 -0.29122753530E+03  0.30484262370E+03  0.41800000000E+01 0. -1.
         -5    1    3    3    0  502  0.22277852547E+02  0.39604833880E+02 -0.26083551365E+03  0.26479706033E+03  0.41800000000E+01 0. -1.
        -11    1    4    4    0    0  0.16401923636E+02  0.10167301417E+02 -0.45162077896E+02  0.49112222480E+02  0.00000000000E+00 0.  1.
         11    1    4    4    0    0  0.46497203384E+02 -0.20738402133E+02  0.33324223821E+02  0.60848789132E+02  0.00000000000E+00 0. -1.
</event>
<event>
 8    1  0.6692409E-009  0.1168910E+03  0.7561462E-02  0.1248316E+00
          3   -1    0    0  501    0  0.00000000000E+00  0.00000000000E+00  0.44011986672E+02  0.44011986672E+02  0.00000000000E+00 0. -1.
         -3   -1    0    0    0  501 -0.00000000000E+00 -0.00000000000E+00 -0.55539294062E+03  0.55539294062E+03  0.00000000000E+00 0.  1.
         25    2    1    2    0    0 -0.38462410804E+02 -0.46367884283E+02 -0.93027976532E+02  0.16712577521E+03  0.12508989800E+03 0.  0.
         23    2    1    2    0    0  0.38462410804E+02  0.46367884283E+02 -0.41835297741E+03  0.43227915209E+03  0.90646091359E+02 0.  0.
          5    1    3    3  502    0 -0.46332028986E+02  0.25163510913E+02 -0.76779062152E+02  0.93232805258E+02  0.41800000000E+01 0.  1.
         -5    1    3    3    0  502  0.78696181823E+01 -0.71531395196E+02 -0.16248914381E+02  0.73892969947E+02  0.41800000000E+01 0.  1.
        -11    1    4    4    0    0 -0.28651891363E+02  0.27913009334E+01 -0.11534662278E+03  0.11888467364E+03  0.00000000000E+00 0. -1.
         11    1    4    4    0    0  0.67114302167E+02  0.43576583350E+02 -0.30300635463E+03  0.31339447844E+03  0.00000000000E+00 0.  1.
</event>
<event>
 8    1  0.6692409E-009  0.1135771E+03  0.7561462E-02  0.1254085E+00
         -3   -1    0    0    0  501 -0.00000000000E+00  0.00000000000E+00  0.51257931725E+02  0.51257931725E+02  0.00000000000E+00 0.  1.
          3   -1    0    0  501    0  0.00000000000E+00 -0.00000000000E+00 -0.26029529136E+03  0.26029529136E+03  0.00000000000E+00 0. -1.
         25    2    1    2    0    0 -0.33056857695E+02 -0.13293709912E+02 -0.11978615539E+03  0.17682174855E+03  0.12509088366E+03 0.  0.
         23    2    1    2    0    0  0.33056857695E+02  0.13293709912E+02 -0.89251204247E+02  0.13473147453E+03  0.94431531844E+02 0.  0.
          5    1    3    3  502    0 -0.17815196286E+02  0.55487927514E+02 -0.43105698030E+02  0.72607609251E+02  0.41800000000E+01 0.  1.
         -5    1    3    3    0  502 -0.15241661409E+02 -0.68781637426E+02 -0.76680457358E+02  0.10421413930E+03  0.41800000000E+01 0.  1.
        -11    1    4    4    0    0 -0.20728181117E+02 -0.24742208268E+02 -0.44977339871E+02  0.55360594869E+02  0.00000000000E+00 0.  1.
         11    1    4    4    0    0  0.53785038812E+02  0.38035918180E+02 -0.44273864376E+02  0.79370879664E+02  0.00000000000E+00 0. -1.
</event>
<event>
 8    1  0.6692409E-009  0.1088778E+03  0.7561462E-02  0.1262662E+00
          1   -1    0    0  501    0  0.00000000000E+00  0.00000000000E+00  0.81965762987E+02  0.81965762987E+02  0.00000000000E+00 0. -1.
         -1   -1    0    0    0  501 -0.00000000000E+00 -0.00000000000E+00 -0.17357823651E+03  0.17357823651E+03  0.00000000000E+00 0.  1.
         25    2    1    2    0    0 -0.47571706285E+02 -0.13610886750E+02 -0.50107997381E+02  0.14355166023E+03  0.12509174343E+03 0.  0.
         23    2    1    2    0    0  0.47571706285E+02  0.13610886750E+02 -0.41504476145E+02  0.11199233927E+03  0.91495021936E+02 0.  0.
          5    1    3    3  502    0 -0.25179596838E+02  0.55849817278E+02 -0.23980858483E+02  0.65922440492E+02  0.41800000000E+01 0.  1.
         -5    1    3    3    0  502 -0.22392109447E+02 -0.69460704027E+02 -0.26127138898E+02  0.77629219733E+02  0.41800000000E+01 0.  1.
        -11    1    4    4    0    0  0.14160785042E+02 -0.27104184727E+02 -0.50032046833E+02  0.58637619094E+02  0.00000000000E+00 0.  1.
         11    1    4    4    0    0  0.33410921243E+02  0.40715071477E+02  0.85275706878E+01  0.53354720180E+02  0.00000000000E+00 0. -1.
</event>
<event>
 8    1  0.6692409E-009  0.7237491E+02  0.7561462E-02  0.1352198E+00
          1   -1    0    0  501    0  0.00000000000E+00  0.00000000000E+00  0.73354636147E+02  0.73354636147E+02  0.00000000000E+00 0. -1.
         -1   -1    0    0    0  501 -0.00000000000E+00 -0.00000000000E+00 -0.17765117298E+03  0.17765117298E+03  0.00000000000E+00 0.  1.
         25    2    1    2    0    0  0.75295750657E+01  0.32231069814E+02 -0.75219073961E+02  0.14967063377E+03  0.12509137926E+03 0.  0.
         23    2    1    2    0    0 -0.75295750657E+01 -0.32231069814E+02 -0.29077462872E+02  0.10133517536E+03  0.91256684989E+02 0.  0.
          5    1    3    3  502    0  0.21613159214E+02  0.26190198590E+02  0.28631272653E+02  0.44612524330E+02  0.41800000000E+01 0.  1.
         -5    1    3    3    0  502 -0.14083584149E+02  0.60408712238E+01 -0.10385034661E+03  0.10505810944E+03  0.41800000000E+01 0.  1.
        -11    1    4    4    0    0  0.22140863882E+01 -0.62661298449E+02 -0.83623076932E+01  0.63255582298E+02  0.00000000000E+00 0. -1.
         11    1    4    4    0    0 -0.97436614539E+01  0.30430228635E+02 -0.20715155179E+02  0.38079593057E+02  0.00000000000E+00 0.  1.
</event>
<event>
 8    1  0.6692409E-009  0.1264372E+03  0.7561462E-02  0.1232840E+00
          2   -1    0    0  501    0  0.00000000000E+00  0.00000000000E+00  0.73166526213E+02  0.73166526213E+02  0.00000000000E+00 0. -1.
         -2   -1    0    0    0  501 -0.00000000000E+00 -0.00000000000E+00 -0.26347488264E+03  0.26347488264E+03  0.00000000000E+00 0.  1.
         25    2    1    2    0    0 -0.50650336358E+02 -0.69000336780E+02 -0.96775774022E+02  0.17983916030E+03  0.12510024017E+03 0.  0.
         23    2    1    2    0    0  0.50650336358E+02  0.69000336780E+02 -0.93532582402E+02  0.15680224855E+03  0.92261032573E+02 0.  0.
          5    1    3    3  502    0 -0.58436047172E+02 -0.89703398589E+02 -0.32845155136E+02  0.11206135794E+03  0.41800000000E+01 0. -1.
         -5    1    3    3    0  502  0.77857108142E+01  0.20703061809E+02 -0.63930618886E+02  0.67777802357E+02  0.41800000000E+01 0. -1.
        -11    1    4    4    0    0  0.66753474389E+02  0.17136166147E+02 -0.36254815604E+02  0.77872242729E+02  0.00000000000E+00 0. -1.
         11    1    4    4    0    0 -0.16103138031E+02  0.51864170632E+02 -0.57277766798E+02  0.78930005823E+02  0.00000000000E+00 0.  1.
</event>
<event>
 8    1  0.6692409E-009  0.7807935E+02  0.7561462E-02  0.1334592E+00
         -2   -1    0    0    0  501 -0.00000000000E+00  0.00000000000E+00  0.97640658692E+02  0.97640658692E+02  0.00000000000E+00 0. -1.
          2   -1    0    0  501    0  0.00000000000E+00 -0.00000000000E+00 -0.13180986369E+03  0.13180986369E+03  0.00000000000E+00 0.  1.
         25    2    1    2    0    0  0.75073361950E+01 -0.32191009730E+02 -0.24552381394E+02  0.13170750564E+03  0.12510566096E+03 0.  0.
         23    2    1    2    0    0 -0.75073361950E+01  0.32191009730E+02 -0.96168236012E+01  0.97743016744E+02  0.91480013238E+02 0.  0.
          5    1    3    3  502    0  0.31748760707E+02 -0.49902376734E+02  0.32122647434E+02  0.67435657395E+02  0.41800000000E+01 0.  1.
         -5    1    3    3    0  502 -0.24241424512E+02  0.17711367004E+02 -0.56675028828E+02  0.64271848240E+02  0.41800000000E+01 0.  1.
        -11    1    4    4    0    0 -0.12461898250E+02 -0.14773908316E+02 -0.38008160812E+02  0.42640210638E+02  0.00000000000E+00 0.  1.
         11    1    4    4    0    0  0.49545620549E+01  0.46964918046E+02  0.28391337211E+02  0.55102806107E+02  0.00000000000E+00 0. -1.
</event>
<event>
 8    1  0.6692409E-009  0.1130880E+03  0.7561462E-02  0.1254956E+00
         -2   -1    0    0    0  501 -0.00000000000E+00  0.00000000000E+00  0.13011526539E+03  0.13011526539E+03  0.00000000000E+00 0.  1.
          2   -1    0    0  501    0  0.00000000000E+00 -0.00000000000E+00 -0.14146077016E+03  0.14146077016E+03  0.00000000000E+00 0. -1.
         25    2    1    2    0    0  0.42593062248E+01 -0.75778945923E+02 -0.35646287173E+02  0.15059349812E+03  0.12508858282E+03 0.  0.
         23    2    1    2    0    0 -0.42593062248E+01  0.75778945923E+02  0.24300782402E+02  0.12098253742E+03  0.91025578829E+02 0.  0.
          5    1    3    3  502    0  0.36251470709E+02 -0.13783991749E+02  0.34133230605E+02  0.51833554659E+02  0.41800000000E+01 0.  1.
         -5    1    3    3    0  502 -0.31992164484E+02 -0.61994954174E+02 -0.69779517778E+02  0.98759943462E+02  0.41800000000E+01 0.  1.
        -11    1    4    4    0    0  0.28120215879E+02 -0.64975025416E+01  0.13645122753E+02  0.31924182923E+02  0.00000000000E+00 0.  1.
         11    1    4    4    0    0 -0.32379522104E+02  0.82276448464E+02  0.10655659649E+02  0.89058354499E+02  0.00000000000E+00 0. -1.
</event>
<event>
 8    1  0.6692409E-009  0.9674298E+02  0.7561462E-02  0.1287298E+00
          2   -1    0    0  501    0  0.00000000000E+00  0.00000000000E+00  0.62600276182E+03  0.62600276182E+03  0.00000000000E+00 0. -1.
         -2   -1    0    0    0  501 -0.00000000000E+00 -0.00000000000E+00 -0.21904697755E+02  0.21904697755E+02  0.00000000000E+00 0.  1.
         25    2    1    2    0    0  0.29767658864E+02  0.84694172404E+01  0.37870207484E+03  0.40002588824E+03  0.12509038823E+03 0.  0.
         23    2    1    2    0    0 -0.29767658864E+02 -0.84694172404E+01  0.22539598922E+03  0.24788157134E+03  0.98407707565E+02 0.  0.
          5    1    3    3  502    0  0.61125241401E+02 -0.16032227102E+02  0.33433483808E+03  0.34028015487E+03  0.41800000000E+01 0.  1.
         -5    1    3    3    0  502 -0.31357582538E+02  0.24501644342E+02  0.44367236760E+02  0.59745733369E+02  0.41800000000E+01 0.  1.
        -11    1    4    4    0    0 -0.59268044328E+02 -0.11871866864E+02  0.84521242283E+02  0.10391093638E+03  0.00000000000E+00 0.  1.
         11    1    4    4    0    0  0.29500385464E+02  0.34024496241E+01  0.14087474694E+03  0.14397063496E+03  0.00000000000E+00 0. -1.
</event>
<event>
 8    1  0.6692409E-009  0.7101357E+02  0.7561462E-02  0.1356680E+00
          2   -1    0    0  501    0  0.00000000000E+00  0.00000000000E+00  0.40558797665E+03  0.40558797665E+03  0.00000000000E+00 0. -1.
         -2   -1    0    0    0  501 -0.00000000000E+00 -0.00000000000E+00 -0.42489606752E+02  0.42489606752E+02  0.00000000000E+00 0.  1.
         25    2    1    2    0    0 -0.43117744049E+02  0.18054345888E+02  0.10448582328E+03  0.16955785941E+03  0.12508989234E+03 0.  0.
         23    2    1    2    0    0  0.43117744049E+02 -0.18054345888E+02  0.25861254662E+03  0.27851972399E+03  0.92237129855E+02 0.  0.
          5    1    3    3  502    0 -0.44632325538E+02  0.43491066600E+00 -0.16082955883E+02  0.47627381832E+02  0.41800000000E+01 0. -1.
         -5    1    3    3    0  502  0.15145814895E+01  0.17619435222E+02  0.12056877916E+03  0.12193047758E+03  0.41800000000E+01 0. -1.
        -11    1    4    4    0    0 -0.15974252262E+02  0.30791706307E+01  0.46526318374E+01  0.16920549936E+02  0.00000000000E+00 0.  1.
         11    1    4    4    0    0  0.59091996311E+02 -0.21133516519E+02  0.25395991478E+03  0.26159917405E+03  0.00000000000E+00 0. -1.
</event>
<event>
 8    1  0.6692409E-009  0.1822281E+03  0.7561462E-02  0.1165664E+00
          2   -1    0    0  501    0  0.00000000000E+00  0.00000000000E+00  0.95061624687E+03  0.95061624687E+03  0.00000000000E+00 0. -1.
         -2   -1    0    0    0  501 -0.00000000000E+00 -0.00000000000E+00 -0.44747972589E+02  0.44747972589E+02  0.00000000000E+00 0.  1.
         25    2    1    2    0    0  0.20533809076E+02  0.16289550105E+03  0.61169400425E+03  0.64558013882E+03  0.12509028430E+03 0.  0.
         23    2    1    2    0    0 -0.20533809076E+02 -0.16289550105E+03  0.29417427003E+03  0.34978408064E+03  0.94094741324E+02 0.  0.
          5    1    3    3  502    0  0.37046722160E+02  0.94808379533E+00  0.18815652138E+03  0.19181685907E+03  0.41800000000E+01 0. -1.
         -5    1    3    3    0  502 -0.16512913085E+02  0.16194741725E+03  0.42353748287E+03  0.45376327974E+03  0.41800000000E+01 0. -1.
        -11    1    4    4    0    0 -0.17564402982E+02 -0.11494000376E+03  0.11222864657E+03  0.16160130516E+03  0.00000000000E+00 0.  1.
         11    1    4    4    0    0 -0.29694060931E+01 -0.47955497283E+02  0.18194562346E+03  0.18818277549E+03  0.00000000000E+00 0. -1.
</event>
<event>
 8    1  0.6692409E-009  0.7100984E+02  0.7561462E-02  0.1356692E+00
         -1   -1    0    0    0  501 -0.00000000000E+00  0.00000000000E+00  0.10834077682E+03  0.10834077682E+03  0.00000000000E+00 0.  1.
          1   -1    0    0  501    0  0.00000000000E+00 -0.00000000000E+00 -0.13997573631E+03  0.13997573631E+03  0.00000000000E+00 0. -1.
         25    2    1    2    0    0 -0.36929741437E+02  0.12647489287E+02 -0.56966028702E+02  0.14288392723E+03  0.12508766305E+03 0.  0.
         23    2    1    2    0    0  0.36929741437E+02 -0.12647489287E+02  0.25331069210E+02  0.10543258589E+03  0.94607622912E+02 0.  0.
          5    1    3    3  502    0 -0.12163331916E+02 -0.35044140273E+01  0.39611875313E+02  0.41794744009E+02  0.41800000000E+01 0.  1.
         -5    1    3    3    0  502 -0.24766409521E+02  0.16151903314E+02 -0.96577904015E+02  0.10108918322E+03  0.41800000000E+01 0.  1.
        -11    1    4    4    0    0  0.54010411652E+02 -0.39562444905E+02  0.39855343266E+01  0.67068592482E+02  0.00000000000E+00 0. -1.
         11    1    4    4    0    0 -0.17080670216E+02  0.26914955618E+02  0.21345534884E+02  0.38363993411E+02  0.00000000000E+00 0.  1.
</event>
<event>
 8    1  0.6692409E-009  0.1839306E+03  0.7561462E-02  0.1164052E+00
         -2   -1    0    0    0  501 -0.00000000000E+00  0.00000000000E+00  0.66295231378E+02  0.66295231378E+02  0.00000000000E+00 0.  1.
          2   -1    0    0  501    0  0.00000000000E+00 -0.00000000000E+00 -0.53964175843E+03  0.53964175843E+03  0.00000000000E+00 0. -1.
         25    2    1    2    0    0 -0.14048892170E+03  0.63456626826E+02 -0.24057143069E+03  0.31191662664E+03  0.12511390052E+03 0.  0.
         23    2    1    2    0    0  0.14048892170E+03 -0.63456626826E+02 -0.23277509636E+03  0.29402036317E+03  0.92194619498E+02 0.  0.
          5    1    3    3  502    0  0.18560372576E+02 -0.11929305990E+02 -0.25763604541E+02  0.34176475689E+02  0.41800000000E+01 0.  1.
         -5    1    3    3    0  502 -0.15904929427E+03  0.75385932816E+02 -0.21480782615E+03  0.27774015095E+03  0.41800000000E+01 0.  1.
        -11    1    4    4    0    0  0.85492779066E+02 -0.15877409020E+00 -0.16639866568E+03  0.18707633848E+03  0.00000000000E+00 0. -1.
         11    1    4    4    0    0  0.54996142629E+02 -0.63297852736E+02 -0.66376430681E+02  0.10694402468E+03  0.00000000000E+00 0.  1.
</event>
<event>
 8    1  0.6692409E-009  0.1184515E+03  0.7561462E-02  0.1245674E+00
          2   -1    0    0  501    0  0.00000000000E+00  0.00000000000E+00  0.20172400448E+02  0.20172400448E+02  0.00000000000E+00 0. -1.
         -2   -1    0    0    0  501 -0.00000000000E+00 -0.00000000000E+00 -0.10764725241E+04  0.10764725241E+04  0.00000000000E+00 0.  1.
         25    2    1    2    0    0 -0.76280164119E+02  0.71182632868E+02 -0.52382311668E+03  0.54856323178E+03  0.12508129768E+03 0.  0.
         23    2    1    2    0    0  0.76280164119E+02 -0.71182632868E+02 -0.53247700697E+03  0.54808169277E+03  0.77305551779E+02 0.  0.
          5    1    3    3  502    0 -0.82336195289E+02  0.74524329720E+02 -0.23845357942E+03  0.26307927838E+03  0.41800000000E+01 0.  1.
         -5    1    3    3    0  502  0.60560311698E+01 -0.33416968520E+01 -0.28536953726E+03  0.28548395340E+03  0.41800000000E+01 0.  1.
        -11    1    4    4    0    0  0.84425095881E+02 -0.58863928332E+02 -0.51508009708E+03  0.52526190161E+03  0.00000000000E+00 0.  1.
         11    1    4    4    0    0 -0.81449317619E+01 -0.12318704536E+02 -0.17396909889E+02  0.22819791159E+02  0.00000000000E+00 0. -1.
</event>
<event>
 8    1  0.6692409E-009  0.1537932E+03  0.7561462E-02  0.1195888E+00
          1   -1    0    0  501    0  0.00000000000E+00  0.00000000000E+00  0.15504182037E+03  0.15504182037E+03  0.00000000000E+00 0. -1.
         -1   -1    0    0    0  501 -0.00000000000E+00 -0.00000000000E+00 -0.19787229928E+03  0.19787229928E+03  0.00000000000E+00 0.  1.
         25    2    1    2    0    0 -0.19429194176E+01  0.11698794582E+03 -0.92632248833E+02  0.19472625253E+03  0.12509046925E+03 0.  0.
         23    2    1    2    0    0  0.19429194176E+01 -0.11698794582E+03  0.49801769925E+02  0.15818786712E+03  0.94091607567E+02 0.  0.
          5    1    3    3  502    0 -0.43810227650E+02  0.11917260258E+03 -0.82227488019E+02  0.15132837618E+03  0.41800000000E+01 0.  1.
         -5    1    3    3    0  502  0.41867308233E+02 -0.21846567628E+01 -0.10404760814E+02  0.43397876347E+02  0.41800000000E+01 0.  1.
        -11    1    4    4    0    0 -0.26553359306E+02 -0.10356689816E+03  0.62931070464E+02  0.12406249600E+03  0.00000000000E+00 0. -1.
         11    1    4    4    0    0  0.28496278724E+02 -0.13421047658E+02 -0.13129300539E+02  0.34125371119E+02  0.00000000000E+00 0.  1.
</event>
<event>
 8    1  0.6692409E-009  0.7437912E+02  0.7561462E-02  0.1345805E+00
         -3   -1    0    0    0  501 -0.00000000000E+00  0.00000000000E+00  0.25804224256E+04  0.25804224256E+04  0.00000000000E+00 0.  1.
          3   -1    0    0  501    0  0.00000000000E+00 -0.00000000000E+00 -0.92161351652E+01  0.92161351652E+01  0.00000000000E+00 0. -1.
         25    2    1    2    0    0  0.34522605648E+02 -0.29278151442E+02  0.22364042662E+04  0.22403572531E+04  0.12509020408E+03 0.  0.
         23    2    1    2    0    0 -0.34522605648E+02  0.29278151442E+02  0.33480202429E+03  0.34928130773E+03  0.88634169518E+02 0.  0.
          5    1    3    3  502    0  0.14753927474E+02  0.13774048786E+02  0.60157110130E+02  0.63590511046E+02  0.41800000000E+01 0.  1.
         -5    1    3    3    0  502  0.19768678174E+02 -0.43052200228E+02  0.21762471560E+04  0.21767667420E+04  0.41800000000E+01 0.  1.
        -11    1    4    4    0    0 -0.54775684965E+02  0.20029801819E+02  0.31202837269E+03  0.31743231402E+03  0.00000000000E+00 0.  1.
         11    1    4    4    0    0  0.20253079317E+02  0.92483496236E+01  0.22773651600E+02  0.31848993701E+02  0.00000000000E+00 0. -1.
</event>
<event>
 8    1  0.6692409E-009  0.1255335E+03  0.7561462E-02  0.1234238E+00
         -2   -1    0    0    0  501 -0.00000000000E+00  0.00000000000E+00  0.92989788092E+02  0.92989788092E+02  0.00000000000E+00 0.  1.
          2   -1    0    0  501    0  0.00000000000E+00 -0.00000000000E+00 -0.39493511229E+03  0.39493511229E+03  0.00000000000E+00 0. -1.
         25    2    1    2    0    0 -0.10662097451E+03 -0.28421702902E+02 -0.15051360253E+02  0.16747235632E+03  0.12507846052E+03 0.  0.
         23    2    1    2    0    0  0.10662097451E+03  0.28421702902E+02 -0.28689396394E+03  0.32045254406E+03  0.90586207815E+02 0.  0.
          5    1    3    3  502    0 -0.88515828178E+02 -0.23150905910E+02  0.46674015826E+02  0.10279568296E+03  0.41800000000E+01 0. -1.
         -5    1    3    3    0  502 -0.18105146329E+02 -0.52707969922E+01 -0.61725376079E+02  0.64676673358E+02  0.41800000000E+01 0. -1.
        -11    1    4    4    0    0  0.60400195707E+02 -0.28544128106E+02 -0.16739369620E+03  0.18023207378E+03  0.00000000000E+00 0. -1.
         11    1    4    4    0    0  0.46220778799E+02  0.56965831008E+02 -0.11950026774E+03  0.14022047028E+03  0.00000000000E+00 0.  1.
</event>
<event>
 8    1  0.6692409E-009  0.2305785E+03  0.7561462E-02  0.1126233E+00
          4   -1    0    0  501    0  0.00000000000E+00  0.00000000000E+00  0.15285563255E+03  0.15285563255E+03  0.00000000000E+00 0. -1.
         -4   -1    0    0    0  501 -0.00000000000E+00 -0.00000000000E+00 -0.36575447002E+03  0.36575447002E+03  0.00000000000E+00 0.  1.
         25    2    1    2    0    0  0.14342043131E+03  0.15314703383E+03 -0.10759329310E+03  0.26692356858E+03  0.12509372747E+03 0.  0.
         23    2    1    2    0    0 -0.14342043131E+03 -0.15314703383E+03 -0.10530554438E+03  0.25168653399E+03  0.90738192779E+02 0.  0.
          5    1    3    3  502    0  0.87323346932E+02  0.11536109137E+02 -0.17480096066E+02  0.89897023821E+02  0.41800000000E+01 0.  1.
         -5    1    3    3    0  502  0.56097084376E+02  0.14161092470E+03 -0.90113197033E+02  0.17702654476E+03  0.41800000000E+01 0.  1.
        -11    1    4    4    0    0 -0.78360386824E+02 -0.35206232227E+02 -0.95754288141E+01  0.86437942176E+02  0.00000000000E+00 0. -1.
         11    1    4    4    0    0 -0.65060044485E+02 -0.11794080161E+03 -0.95730115563E+02  0.16524859182E+03  0.00000000000E+00 0.  1.
</event>
<event>
 8    1  0.6692409E-009  0.1346694E+03  0.7561462E-02  0.1220687E+00
         -2   -1    0    0    0  501 -0.00000000000E+00  0.00000000000E+00  0.63075456154E+02  0.63075456154E+02  0.00000000000E+00 0.  1.
          2   -1    0    0  501    0  0.00000000000E+00 -0.00000000000E+00 -0.31395815793E+03  0.31395815793E+03  0.00000000000E+00 0. -1.
         25    2    1    2    0    0  0.80316977636E+02 -0.29293100839E+02 -0.16290231414E+03  0.22247143398E+03  0.12508985704E+03 0.  0.
         23    2    1    2    0    0 -0.80316977636E+02  0.29293100839E+02 -0.87980387631E+02  0.15456218010E+03  0.94021360630E+02 0.  0.
          5    1    3    3  502    0 -0.27706365905E+02 -0.28349886219E+02 -0.66978202171E+02  0.77941713648E+02  0.41800000000E+01 0. -1.
         -5    1    3    3    0  502  0.10802334354E+03 -0.94321462051E+00 -0.95924111970E+02  0.14452972034E+03  0.41800000000E+01 0. -1.
        -11    1    4    4    0    0 -0.36460056065E+02 -0.30280381126E+02 -0.12807073011E+02  0.49094381435E+02  0.00000000000E+00 0.  1.
         11    1    4    4    0    0 -0.43856921571E+02  0.59573481966E+02 -0.75173314621E+02  0.10546779866E+03  0.00000000000E+00 0. -1.
</event>
<event>
 8    1  0.6692409E-009  0.1205729E+03  0.7561462E-02  0.1242155E+00
         -2   -1    0    0    0  501 -0.00000000000E+00  0.00000000000E+00  0.15844617653E+02  0.15844617653E+02  0.00000000000E+00 0.  1.
          2   -1    0    0  501    0  0.00000000000E+00 -0.00000000000E+00 -0.14055901386E+04  0.14055901386E+04  0.00000000000E+00 0. -1.
         25    2    1    2    0    0  0.77142434506E+02  0.56545848902E+02 -0.93593600477E+03  0.94908960291E+03  0.12508589488E+03 0.  0.
         23    2    1    2    0    0 -0.77142434506E+02 -0.56545848902E+02 -0.45380951622E+03  0.47234515338E+03  0.89545958508E+02 0.  0.
          5    1    3    3  502    0  0.97261436094E+02  0.53640364881E+02 -0.90522848357E+03  0.91202694892E+03  0.41800000000E+01 0. -1.
         -5    1    3    3    0  502 -0.20119001588E+02  0.29054840211E+01 -0.30707521201E+02  0.37062653987E+02  0.41800000000E+01 0. -1.
        -11    1    4    4    0    0 -0.33333579840E+02  0.49893740550E+01 -0.42931711893E+02  0.54581620391E+02  0.00000000000E+00 0. -1.
         11    1    4    4    0    0 -0.43808854666E+02 -0.61535222957E+02 -0.41087780432E+03  0.41776353299E+03  0.00000000000E+00 0.  1.
</event>
<event>
 8    1  0.6692409E-009  0.1510626E+03  0.7561462E-02  0.1199173E+00
          3   -1    0    0  501    0  0.00000000000E+00  0.00000000000E+00  0.40015043029E+03  0.40015043029E+03  0.00000000000E+00 0. -1.
         -3   -1    0    0    0  501 -0.00000000000E+00 -0.00000000000E+00 -0.73404018494E+02  0.73404018494E+02  0.00000000000E+00 0.  1.
         25    2    1    2    0    0 -0.60199959511E+02  0.92025398093E+02  0.27565666854E+03  0.32206662829E+03  0.12509038785E+03 0.  0.
         23    2    1    2    0    0  0.60199959511E+02 -0.92025398093E+02  0.51089743262E+02  0.15148782049E+03  0.90805775540E+02 0.  0.
          5    1    3    3  502    0 -0.89373229268E+02  0.10094516614E+03  0.21065840073E+03  0.25014382837E+03  0.41800000000E+01 0.  1.
         -5    1    3    3    0  502  0.29173269756E+02 -0.89197680454E+01  0.64998267809E+02  0.71922799921E+02  0.41800000000E+01 0.  1.
        -11    1    4    4    0    0  0.14913384469E+02 -0.89878774643E+02  0.12520105076E+02  0.91963885296E+02  0.00000000000E+00 0.  1.
         11    1    4    4    0    0  0.45286575042E+02 -0.21466234493E+01  0.38569638186E+02  0.59523935195E+02  0.00000000000E+00 0. -1.
</event>
<event>
 8    1  0.6692409E-009  0.1427590E+03  0.7561462E-02  0.1209664E+00
         -1   -1    0    0    0  501 -0.00000000000E+00  0.00000000000E+00  0.33832594266E+02  0.33832594266E+02  0.00000000000E+00 0.  1.
          1   -1    0    0  501    0  0.00000000000E+00 -0.00000000000E+00 -0.86102185928E+03  0.86102185928E+03  0.00000000000E+00 0. -1.
         25    2    1    2    0    0  0.50161494727E+00 -0.99767185298E+02 -0.65609286349E+03  0.67532220061E+03  0.12509390965E+03 0.  0.
         23    2    1    2    0    0 -0.50161494727E+00  0.99767185298E+02 -0.17109640153E+03  0.21953225294E+03  0.94692600483E+02 0.  0.
          5    1    3    3  502    0  0.35795763438E+02 -0.11410820927E+03 -0.44667172951E+03  0.46242310328E+03  0.41800000000E+01 0.  1.
         -5    1    3    3    0  502 -0.35294148491E+02  0.14341023969E+02 -0.20942113398E+03  0.21289909733E+03  0.41800000000E+01 0.  1.
        -11    1    4    4    0    0  0.35173256014E+02  0.78439768949E+02 -0.15008138188E+03  0.17295773033E+03  0.00000000000E+00 0. -1.
         11    1    4    4    0    0 -0.35674870961E+02  0.21327416349E+02 -0.21015019642E+02  0.46574522614E+02  0.00000000000E+00 0.  1.
</event>
<event>
 7    1  0.6692409E-009  0.5960875E+02  0.7561462E-02  0.1399481E+00
          1   -1    0    0  501    0  0.00000000000E+00  0.00000000000E+00  0.12631010450E+03  0.12631010450E+03  0.00000000000E+00 0. -1.
         -1   -1    0    0    0  501 -0.00000000000E+00 -0.00000000000E+00 -0.60552486387E+02  0.60552486387E+02  0.00000000000E+00 0.  1.
         25    2    1    2    0    0  0.92684748466E+01  0.71379493815E+01  0.44086571411E+02  0.13313653896E+03  0.12507940390E+03 0.  0.
          5    1    3    3  502    0  0.35298257880E+02 -0.12021182924E+02 -0.32667298698E+02  0.49750383441E+02  0.41800000000E+01 0. -1.
         -5    1    3    3    0  502 -0.26029783034E+02  0.19159132305E+02  0.76753870109E+02  0.83386155519E+02  0.41800000000E+01 0. -1.
        -11    1    1    2    0    0 -0.17041942154E+02  0.16803702742E+02  0.11849172985E+02  0.26705713221E+02  0.00000000000E+00 0.  1.
         11    1    1    2    0    0  0.77734673078E+01 -0.23941652123E+02  0.98218737117E+01  0.27020338702E+02  0.00000000000E+00 0. -1.
</event>
<event>
 8    1  0.6692409E-009  0.1006871E+03  0.7561462E-02  0.1278858E+00
         -1   -1    0    0    0  501 -0.00000000000E+00  0.00000000000E+00  0.21198525854E+03  0.21198525854E+03  0.00000000000E+00 0.  1.
          1   -1    0    0  501    0  0.00000000000E+00 -0.00000000000E+00 -0.75772609449E+02  0.75772609449E+02  0.00000000000E+00 0. -1.
         25    2    1    2    0    0 -0.29866813822E+02  0.52600310395E+02  0.48840786394E+02  0.14728163050E+03  0.12509051541E+03 0.  0.
         23    2    1    2    0    0  0.29866813822E+02 -0.52600310395E+02  0.87371862697E+02  0.14047623749E+03  0.91874434349E+02 0.  0.
          5    1    3    3  502    0 -0.48284197010E+02 -0.10364117406E+02 -0.18757085962E+02  0.52991313291E+02  0.41800000000E+01 0. -1.
         -5    1    3    3    0  502  0.18417383188E+02  0.62964427801E+02  0.67597872356E+02  0.94290317207E+02  0.41800000000E+01 0. -1.
        -11    1    4    4    0    0 -0.84039596959E+01 -0.46585200193E+02  0.89954667742E+02  0.10164964173E+03  0.00000000000E+00 0.  1.
         11    1    4    4    0    0  0.38270773518E+02 -0.60151102023E+01 -0.25828050450E+01  0.38826595760E+02  0.00000000000E+00 0. -1.
</event>
<event>
 8    1  0.6692409E-009  0.1058648E+03  0.7561462E-02  0.1268425E+00
          2   -1    0    0  501    0  0.00000000000E+00  0.00000000000E+00  0.52039159318E+03  0.52039159318E+03  0.00000000000E+00 0. -1.
         -2   -1    0    0    0  501 -0.00000000000E+00 -0.00000000000E+00 -0.33289775114E+02  0.33289775114E+02  0.00000000000E+00 0.  1.
         25    2    1    2    0    0 -0.59765837831E+02  0.19625268200E+02  0.19372007657E+03  0.23902109593E+03  0.12508600925E+03 0.  0.
         23    2    1    2    0    0  0.59765837831E+02 -0.19625268200E+02  0.29338174150E+03  0.31466027237E+03  0.94768846352E+02 0.  0.
          5    1    3    3  502    0 -0.89071672727E+02  0.19836297854E+02  0.18779028904E+03  0.20882985096E+03  0.41800000000E+01 0. -1.
         -5    1    3    3    0  502  0.29305834896E+02 -0.21102965386E+00  0.59297875290E+01  0.30191244966E+02  0.41800000000E+01 0. -1.
        -11    1    4    4    0    0  0.12262788022E+02 -0.37934737024E+02  0.22968124186E+03  0.23311562175E+03  0.00000000000E+00 0. -1.
         11    1    4    4    0    0  0.47503049809E+02  0.18309468824E+02  0.63700499639E+02  0.81544650616E+02  0.00000000000E+00 0.  1.
</event>
<event>
 8    1  0.6692409E-009  0.1196657E+03  0.7561462E-02  0.1243650E+00
          2   -1    0    0  501    0  0.00000000000E+00  0.00000000000E+00  0.80717522408E+03  0.80717522408E+03  0.00000000000E+00 0. -1.
         -2   -1    0    0    0  501 -0.00000000000E+00 -0.00000000000E+00 -0.25102385997E+02  0.25102385997E+02  0.00000000000E+00 0.  1.
         25    2    1    2    0    0  0.40974918458E+02 -0.27232745313E+02  0.63971644858E+03  0.65368384554E+03  0.12507945064E+03 0.  0.
         23    2    1    2    0    0 -0.40974918458E+02  0.27232745313E+02  0.14235638951E+03  0.17859376454E+03  0.95967831800E+02 0.  0.
          5    1    3    3  502    0 -0.55593601989E+01 -0.70402768301E+02  0.34569299453E+03  0.35285772648E+03  0.41800000000E+01 0.  1.
         -5    1    3    3    0  502  0.46534278657E+02  0.43170022988E+02  0.29402345404E+03  0.30082611905E+03  0.41800000000E+01 0.  1.
        -11    1    4    4    0    0 -0.70102152350E+02  0.28837694249E+02  0.11959045916E+03  0.14159026201E+03  0.00000000000E+00 0. -1.
         11    1    4    4    0    0  0.29127233892E+02 -0.16049489358E+01  0.22765930351E+02  0.37003502538E+02  0.00000000000E+00 0.  1.
</event>
<event>
 8    1  0.6692409E-009  0.7788632E+02  0.7561462E-02  0.1335159E+00
          1   -1    0    0  501    0  0.00000000000E+00  0.00000000000E+00  0.14417633133E+03  0.14417633133E+03  0.00000000000E+00 0. -1.
         -1   -1    0    0    0  501 -0.00000000000E+00 -0.00000000000E+00 -0.13221106055E+03  0.13221106055E+03  0.00000000000E+00 0.  1.
         25    2    1    2    0    0 -0.16039427363E+02 -0.39014861707E+02  0.80157512422E+02  0.15444291633E+03  0.12509182605E+03 0.  0.
         23    2    1    2    0    0  0.16039427363E+02  0.39014861707E+02 -0.68192241649E+02  0.12194447554E+03  0.91874102066E+02 0.  0.
          5    1    3    3  502    0  0.28545904880E+02 -0.13574952054E+02  0.95517547517E+02  0.10069867076E+03  0.41800000000E+01 0.  1.
         -5    1    3    3    0  502 -0.44585332243E+02 -0.25439909653E+02 -0.15360035095E+02  0.53744245575E+02  0.41800000000E+01 0.  1.
        -11    1    4    4    0    0 -0.43110598518E+01  0.49365988854E+02 -0.81599245932E+02  0.95467392492E+02  0.00000000000E+00 0.  1.
         11    1    4    4    0    0  0.20350487215E+02 -0.10351127147E+02  0.13407004283E+02  0.26477083052E+02  0.00000000000E+00 0. -1.
</event>
<event>
 8    1  0.6692409E-009  0.1380048E+03  0.7561462E-02  0.1216039E+00
         -1   -1    0    0    0  501 -0.00000000000E+00  0.00000000000E+00  0.42283720349E+03  0.42283720349E+03  0.00000000000E+00 0.  1.
          1   -1    0    0  501    0  0.00000000000E+00 -0.00000000000E+00 -0.52057822758E+02  0.52057822758E+02  0.00000000000E+00 0. -1.
         25    2    1    2    0    0 -0.41924888257E+02  0.87803909647E+02  0.24541730380E+03  0.29213836461E+03  0.12509175939E+03 0.  0.
         23    2    1    2    0    0  0.41924888257E+02 -0.87803909647E+02  0.12536207693E+03  0.18275666164E+03  0.90648354845E+02 0.  0.
          5    1    3    3  502    0  0.34154573431E+02  0.14303839406E+02  0.18206026127E+02  0.41473684371E+02  0.41800000000E+01 0.  1.
         -5    1    3    3    0  502 -0.76079461688E+02  0.73500070241E+02  0.22721127767E+03  0.25066468024E+03  0.41800000000E+01 0.  1.
        -11    1    4    4    0    0 -0.28703434073E+02 -0.30942444445E+02  0.36491945766E+02  0.55794122465E+02  0.00000000000E+00 0.  1.
         11    1    4    4    0    0  0.70628322330E+02 -0.56861465202E+02  0.88870131161E+02  0.12696253917E+03  0.00000000000E+00 0. -1.
</event>
<event>
 8    1  0.6692409E-009  0.8879754E+02  0.7561462E-02  0.1305790E+00
         -2   -1    0    0    0  501 -0.00000000000E+00  0.00000000000E+00  0.32892687081E+02  0.32892687081E+02  0.00000000000E+00 0. -1.
          2   -1    0    0  501    0  0.00000000000E+00 -0.00000000000E+00 -0.38888026167E+03  0.38888026167E+03  0.00000000000E+00 0.  1.
         25    2    1    2    0    0  0.33350753634E+02 -0.15166862375E+01 -0.21024776314E+03  0.24691148866E+03  0.12508632307E+03 0.  0.
         23    2    1    2    0    0 -0.33350753634E+02  0.15166862375E+01 -0.14573981144E+03  0.17486146009E+03  0.90674497411E+02 0.  0.
          5    1    3    3  502    0 -0.40240784232E+02 -0.25573787013E+02 -0.51906231324E+02  0.70605017867E+02  0.41800000000E+01 0. -1.
         -5    1    3    3    0  502  0.73591537866E+02  0.24057100776E+02 -0.15834153182E+03  0.17630647079E+03  0.41800000000E+01 0. -1.
        -11    1    4    4    0    0 -0.21014603151E+02 -0.18951373970E+02 -0.11618653519E+01  0.28321688721E+02  0.00000000000E+00 0. -1.
         11    1    4    4    0    0 -0.12336150483E+02  0.20468060207E+02 -0.14457794609E+03  0.14653977137E+03  0.00000000000E+00 0.  1.
</event>
<event>
 8    1  0.6692409E-009  0.2040848E+03  0.7561462E-02  0.1146338E+00
         -2   -1    0    0    0  501 -0.00000000000E+00  0.00000000000E+00  0.65871217429E+02  0.65871217429E+02  0.00000000000E+00 0.  1.
          2   -1    0    0  501    0  0.00000000000E+00 -0.00000000000E+00 -0.65971074390E+03  0.65971074390E+03  0.00000000000E+00 0. -1.
         25    2    1    2    0    0  0.17017806279E+03  0.30033991811E+02 -0.38101014223E+03  0.43667589999E+03  0.12511794208E+03 0.  0.
         23    2    1    2    0    0 -0.17017806279E+03 -0.30033991811E+02 -0.21282938424E+03  0.28890606134E+03  0.91146869199E+02 0.  0.
          5    1    3    3  502    0 -0.20205706069E+02  0.47462628794E+01 -0.41363249211E+02  0.46467067417E+02  0.41800000000E+01 0.  1.
         -5    1    3    3    0  502  0.19038376886E+03  0.25287728931E+02 -0.33964689302E+03  0.39020883257E+03  0.41800000000E+01 0.  1.
        -11    1    4    4    0    0 -0.12688295905E+03  0.20307258111E+02 -0.14971654831E+03  0.19729854249E+03  0.00000000000E+00 0.  1.
         11    1    4    4    0    0 -0.43295103737E+02 -0.50341249922E+02 -0.63112835927E+02  0.91607518851E+02  0.00000000000E+00 0. -1.
</event>
<event>
 8    1  0.6692409E-009  0.1166405E+03  0.7561462E-02  0.1248744E+00
         -2   -1    0    0    0  501 -0.00000000000E+00  0.00000000000E+00  0.44999399951E+03  0.44999399951E+03  0.00000000000E+00 0.  1.
          2   -1    0    0  501    0  0.00000000000E+00 -0.00000000000E+00 -0.47174427733E+02  0.47174427733E+02  0.00000000000E+00 0. -1.
         25    2    1    2    0    0  0.95508758425E+01 -0.82199724353E+02  0.30219109138E+03  0.33736337658E+03  0.12508628315E+03 0.  0.
         23    2    1    2    0    0 -0.95508758425E+01  0.82199724353E+02  0.10062848039E+03  0.15980505066E+03  0.92539446928E+02 0.  0.
          5    1    3    3  502    0 -0.24707093209E+02 -0.66805477751E+02  0.62932334938E+02  0.95138654043E+02  0.41800000000E+01 0.  1.
         -5    1    3    3    0  502  0.34257969052E+02 -0.15394246602E+02  0.23925875645E+03  0.24222472254E+03  0.41800000000E+01 0.  1.
        -11    1    4    4    0    0  0.38287978041E+02  0.13856502012E+02  0.33471862135E+02  0.52709937063E+02  0.00000000000E+00 0. -1.
         11    1    4    4    0    0 -0.47838853883E+02  0.68343222341E+02  0.67156618255E+02  0.10709511360E+03  0.00000000000E+00 0.  1.
</event>
<event>
 8    1  0.6692409E-009  0.1136648E+03  0.7561462E-02  0.1253930E+00
          2   -1    0    0  501    0  0.00000000000E+00  0.00000000000E+00  0.27907955488E+03  0.27907955488E+03  0.00000000000E+00 0. -1.
         -2   -1    0    0    0  501 -0.00000000000E+00 -0.00000000000E+00 -0.52424549230E+02  0.52424549230E+02  0.00000000000E+00 0.  1.
         25    2    1    2    0    0 -0.21383414180E+00  0.53550137053E+02  0.12536497255E+03  0.18501718411E+03  0.12508924483E+03 0.  0.
         23    2    1    2    0    0  0.21383414180E+00 -0.53550137053E+02  0.10129003310E+03  0.14648692000E+03  0.91274772099E+02 0.  0.
          5    1    3    3  502    0 -0.89288254881E-01  0.87357897275E+02  0.46370207706E+02  0.98990296249E+02  0.41800000000E+01 0. -1.
         -5    1    3    3    0  502 -0.12454588692E+00 -0.33807760222E+02  0.78994764844E+02  0.86026887864E+02  0.41800000000E+01 0. -1.
        -11    1    4    4    0    0 -0.11426824057E+02  0.24425677680E+02  0.24651941866E+02  0.36536341852E+02  0.00000000000E+00 0.  1.
         11    1    4    4    0    0  0.11640658198E+02 -0.77975814734E+02  0.76638091236E+02  0.10995057815E+03  0.00000000000E+00 0. -1.
</event>
<event>
 8    1  0.6692409E-009  0.1164636E+03  0.7561462E-02  0.1249048E+00
          3   -1    0    0  501    0  0.00000000000E+00  0.00000000000E+00  0.31740766140E+03  0.31740766140E+03  0.00000000000E+00 0. -1.
         -3   -1    0    0    0  501 -0.00000000000E+00 -0.00000000000E+00 -0.10358871218E+03  0.10358871218E+03  0.00000000000E+00 0.  1.
         25    2    1    2    0    0 -0.48975203812E+02  0.85895269923E+02  0.23747711125E+03  0.28604657983E+03  0.12510275570E+03 0.  0.
         23    2    1    2    0    0  0.48975203812E+02 -0.85895269923E+02 -0.23658162025E+02  0.13494979374E+03  0.88742155809E+02 0.  0.
          5    1    3    3  502    0 -0.43409229901E+02  0.61842895007E+02  0.37403261935E+02  0.84411973717E+02  0.41800000000E+01 0. -1.
         -5    1    3    3    0  502 -0.55659739112E+01  0.24052374917E+02  0.20007384931E+03  0.20163460612E+03  0.41800000000E+01 0. -1.
        -11    1    4    4    0    0  0.72472794002E+02 -0.45769688927E+02 -0.89601142472E+01  0.86182677739E+02  0.00000000000E+00 0.  1.
         11    1    4    4    0    0 -0.23497590190E+02 -0.40125580996E+02 -0.14698047778E+02  0.48767116006E+02  0.00000000000E+00 0. -1.
</event>
<event>
 8    1  0.6692409E-009  0.1114722E+03  0.7561462E-02  0.1257868E+00
          2   -1    0    0  501    0  0.00000000000E+00  0.00000000000E+00  0.47617924094E+03  0.47617924094E+03  0.00000000000E+00 0. -1.
         -2   -1    0    0    0  501 -0.00000000000E+00 -0.00000000000E+00 -0.32078826361E+02  0.32078826361E+02  0.00000000000E+00 0.  1.
         25    2    1    2    0    0 -0.42355179389E+02  0.14946724126E+02  0.17327374315E+03  0.21837738011E+03  0.12509006473E+03 0.  0.
         23    2    1    2    0    0  0.42355179389E+02 -0.14946724126E+02  0.27082667143E+03  0.28988068720E+03  0.93093292285E+02 0.  0.
          5    1    3    3  502    0 -0.19960269275E+02  0.68257427037E+02  0.12048612124E+03  0.13997094880E+03  0.41800000000E+01 0.  1.
         -5    1    3    3    0  502 -0.22394910114E+02 -0.53310702912E+02  0.52787621910E+02  0.78406431311E+02  0.41800000000E+01 0.  1.
        -11    1    4    4    0    0  0.55604491181E+02  0.17817607272E+02  0.10323882112E+03  0.11860683267E+03  0.00000000000E+00 0.  1.
         11    1    4    4    0    0 -0.13249311792E+02 -0.32764331398E+02  0.16758785031E+03  0.17127385453E+03  0.00000000000E+00 0. -1.
</event>
<event>
 8    1  0.6692409E-009  0.1428247E+03  0.7561462E-02  0.1209578E+00
          1   -1    0    0  501    0  0.00000000000E+00  0.00000000000E+00  0.16610970525E+04  0.16610970525E+04  0.00000000000E+00 0. -1.
         -1   -1    0    0    0  501 -0.00000000000E+00 -0.00000000000E+00 -0.13672324221E+02  0.13672324221E+02  0.00000000000E+00 0.  1.
         25    2    1    2    0    0 -0.59333332439E+02 -0.75268766854E+02  0.11084588378E+04  0.11196046953E+04  0.12509135412E+03 0.  0.
         23    2    1    2    0    0  0.59333332439E+02  0.75268766854E+02  0.53896589041E+03  0.55516468143E+03  0.92400004736E+02 0.  0.
          5    1    3    3  502    0  0.46498219305E+01  0.30197908437E+02  0.32795301431E+03  0.32939973666E+03  0.41800000000E+01 0.  1.
         -5    1    3    3    0  502 -0.63983154370E+02 -0.10546667529E+03  0.78050582353E+03  0.79020495860E+03  0.41800000000E+01 0.  1.
        -11    1    4    4    0    0 -0.49361779961E+00  0.71431077723E+02  0.33707969601E+03  0.34456547126E+03  0.00000000000E+00 0. -1.
         11    1    4    4    0    0  0.59826950239E+02  0.38376891313E+01  0.20188619440E+03  0.21059921017E+03  0.00000000000E+00 0.  1.
</event>
<event>
 8    1  0.6692409E-009  0.6867719E+02  0.7561462E-02  0.1364650E+00
         -3   -1    0    0    0  501 -0.00000000000E+00  0.00000000000E+00  0.25746381174E+03  0.25746381174E+03  0.00000000000E+00 0.  1.
          3   -1    0    0  501    0  0.00000000000E+00 -0.00000000000E+00 -0.61528749034E+02  0.61528749034E+02  0.00000000000E+00 0. -1.
         25    2    1    2    0    0 -0.61893175231E+02  0.15223329561E+02  0.11494679866E+03  0.18144553087E+03  0.12508876548E+03 0.  0.
         23    2    1    2    0    0  0.61893175231E+02 -0.15223329561E+02  0.80988264045E+02  0.13754702990E+03  0.91091007339E+02 0.  0.
          5    1    3    3  502    0 -0.25787492919E+02  0.20785833139E+02  0.13534154596E+03  0.13939817830E+03  0.41800000000E+01 0.  1.
         -5    1    3    3    0  502 -0.36105682312E+02 -0.55625035779E+01 -0.20394747298E+02  0.42047352575E+02  0.41800000000E+01 0.  1.
        -11    1    4    4    0    0  0.49492346910E+02 -0.26851286240E+01  0.10000375435E+03  0.11161296162E+03  0.00000000000E+00 0.  1.
         11    1    4    4    0    0  0.12400828321E+02 -0.12538200937E+02 -0.19015490305E+02  0.25934068276E+02  0.00000000000E+00 0. -1.
</event>
<event>
 8    1  0.6692409E-009  0.8369253E+02  0.7561462E-02  0.1318888E+00
          2   -1    0    0  501    0  0.00000000000E+00  0.00000000000E+00  0.65532171605E+03  0.65532171605E+03  0.00000000000E+00 0. -1.
         -2   -1    0    0    0  501 -0.00000000000E+00 -0.00000000000E+00 -0.17155310657E+02  0.17155310657E+02  0.00000000000E+00 0.  1.
         25    2    1    2    0    0 -0.17801340908E+02 -0.48326929987E+01  0.50069890901E+03  0.51641739792E+03  0.12508912313E+03 0.  0.
         23    2    1    2    0    0  0.17801340908E+02  0.48326929987E+01  0.13746749638E+03  0.15605962879E+03  0.71533576152E+02 0.  0.
          5    1    3    3  502    0  0.33301984544E+02 -0.47283336586E+02  0.18922629324E+03  0.19791108747E+03  0.41800000000E+01 0. -1.
         -5    1    3    3    0  502 -0.51103325452E+02  0.42450643587E+02  0.31147261578E+03  0.31850631044E+03  0.41800000000E+01 0. -1.
        -11    1    4    4    0    0  0.49582401517E+01 -0.16887859961E+02  0.13824327596E+01  0.17654888269E+02  0.00000000000E+00 0.  1.
         11    1    4    4    0    0  0.12843100756E+02  0.21720552959E+02  0.13608506362E+03  0.13840474052E+03  0.00000000000E+00 0. -1.
</event>
<event>
 8    1  0.6692409E-009  0.1022921E+03  0.7561462E-02  0.1275549E+00
         -2   -1    0    0    0  501 -0.00000000000E+00  0.00000000000E+00  0.20835978726E+02  0.20835978726E+02  0.00000000000E+00 0.  1.
          2   -1    0    0  501    0  0.00000000000E+00 -0.00000000000E+00 -0.64152314564E+03  0.64152314564E+03  0.00000000000E+00 0. -1.
         25    2    1    2    0    0 -0.17908022425E+02  0.22478457985E+02 -0.42668046142E+03  0.44556396152E+03  0.12508017155E+03 0.  0.
         23    2    1    2    0    0  0.17908022425E+02 -0.22478457985E+02 -0.19400670550E+03  0.21679516284E+03  0.92388108074E+02 0.  0.
          5    1    3    3  502    0 -0.43707652466E+02 -0.31796715933E+02 -0.10371516212E+03  0.11702861737E+03  0.41800000000E+01 0.  1.
         -5    1    3    3    0  502  0.25799630042E+02  0.54275173917E+02 -0.32296529929E+03  0.32853534416E+03  0.41800000000E+01 0.  1.
        -11    1    4    4    0    0  0.36653069463E+02  0.21382362028E+02 -0.52731537112E+02  0.67685064180E+02  0.00000000000E+00 0.  1.
         11    1    4    4    0    0 -0.18745047038E+02 -0.43860820012E+02 -0.14127516839E+03  0.14911009866E+03  0.00000000000E+00 0. -1.
</event>
<event>
 8    1  0.6692409E-009  0.9975282E+02  0.7561462E-02  0.1280817E+00
         -2   -1    0    0    0  501 -0.00000000000E+00  0.00000000000E+00  0.49878997551E+02  0.49878997551E+02  0.00000000000E+00 0.  1.
          2   -1    0    0  501    0  0.00000000000E+00 -0.00000000000E+00 -0.46529904959E+03  0.46529904959E+03  0.00000000000E+00 0. -1.
         25    2    1    2    0    0  0.25466834873E+02  0.90100713578E+02 -0.31687717867E+03  0.35330603621E+03  0.12508921054E+03 0.  0.
         23    2    1    2    0    0 -0.25466834873E+02 -0.90100713578E+02 -0.98542873368E+02  0.16187201093E+03  0.87892842519E+02 0.  0.
          5    1    3    3  502    0 -0.66585775517E+00 -0.35186853359E+00  0.11190676400E+02  0.11969578786E+02  0.41800000000E+01 0. -1.
         -5    1    3    3    0  502  0.26132692629E+02  0.90452582112E+02 -0.32806785507E+03  0.34133645742E+03  0.41800000000E+01 0. -1.
        -11    1    4    4    0    0 -0.29671183220E+02 -0.35568094755E+02  0.31263179946E+01  0.46424587692E+02  0.00000000000E+00 0.  1.
         11    1    4    4    0    0  0.42043483462E+01 -0.54532618824E+02 -0.10166919136E+03  0.11544742324E+03  0.00000000000E+00 0. -1.
</event>
<event>
 8    1  0.6692409E-009  0.8167272E+02  0.7561462E-02  0.1324370E+00
         -2   -1    0    0    0  501 -0.00000000000E+00  0.00000000000E+00  0.19532247043E+03  0.19532247043E+03  0.00000000000E+00 0.  1.
          2   -1    0    0  501    0  0.00000000000E+00 -0.00000000000E+00 -0.62653888528E+02  0.62653888528E+02  0.00000000000E+00 0. -1.
         25    2    1    2    0    0  0.19737066808E+02  0.17239641038E+02  0.95940171568E+02  0.15980593189E+03  0.12508661926E+03 0.  0.
         23    2    1    2    0    0 -0.19737066808E+02 -0.17239641038E+02  0.36728410334E+02  0.98170427068E+02  0.87187726176E+02 0.  0.
          5    1    3    3  502    0 -0.31018064542E+02  0.25217743195E+02  0.10031977316E+03  0.10807212493E+03  0.41800000000E+01 0. -1.
         -5    1    3    3    0  502  0.50755131350E+02 -0.79781021572E+01 -0.43796015932E+01  0.51733806959E+02  0.41800000000E+01 0. -1.
        -11    1    4    4    0    0 -0.44563541893E+02 -0.12971582630E+02  0.51210492007E+02  0.69113571125E+02  0.00000000000E+00 0.  1.
         11    1    4    4    0    0  0.24826475085E+02 -0.42680584080E+01 -0.14482081673E+02  0.29056855943E+02  0.00000000000E+00 0. -1.
</event>
<event>
 8    1  0.6692409E-009  0.1662744E+03  0.7561462E-02  0.1181790E+00
         -2   -1    0    0    0  501 -0.00000000000E+00  0.00000000000E+00  0.87490199414E+03  0.87490199414E+03  0.00000000000E+00 0.  1.
          2   -1    0    0  501    0  0.00000000000E+00 -0.00000000000E+00 -0.37014132591E+02  0.37014132591E+02  0.00000000000E+00 0. -1.
         25    2    1    2    0    0 -0.64294799046E+02 -0.11918396721E+03  0.55093045085E+03  0.58095601905E+03  0.12508755001E+03 0.  0.
         23    2    1    2    0    0  0.64294799046E+02  0.11918396721E+03  0.28695741070E+03  0.33096010769E+03  0.94081869131E+02 0.  0.
          5    1    3    3  502    0 -0.30431149285E+02 -0.13737523187E+03  0.47944582295E+03  0.49968367866E+03  0.41800000000E+01 0.  1.
         -5    1    3    3    0  502 -0.33863649761E+02  0.18191264665E+02  0.71484627900E+02  0.81272340382E+02  0.41800000000E+01 0.  1.
        -11    1    4    4    0    0  0.64559595307E+02  0.44455136565E+02  0.20783987006E+03  0.22212971908E+03  0.00000000000E+00 0.  1.
         11    1    4    4    0    0 -0.26479626119E+00  0.74728830644E+02  0.79117540643E+02  0.10883038860E+03  0.00000000000E+00 0. -1.
</event>
<event>
 8    1  0.6692409E-009  0.1409046E+03  0.7561462E-02  0.1212117E+00
          3   -1    0    0  501    0  0.00000000000E+00  0.00000000000E+00  0.26054207373E+03  0.26054207373E+03  0.00000000000E+00 0. -1.
         -3   -1    0    0    0  501 -0.00000000000E+00 -0.00000000000E+00 -0.85709184054E+02  0.85709184054E+02  0.00000000000E+00 0.  1.
         25    2    1    2    0    0  0.49381047822E+02 -0.90405990557E+02  0.85936902954E+02  0.18342715347E+03  0.12509451758E+03 0.  0.
         23    2    1    2    0    0 -0.49381047822E+02  0.90405990557E+02  0.88895986721E+02  0.16282410431E+03  0.89428527196E+02 0.  0.
          5    1    3    3  502    0  0.71401366560E+02 -0.10519560282E+03  0.45933521128E+02  0.13524655545E+03  0.41800000000E+01 0.  1.
         -5    1    3    3    0  502 -0.22020318738E+02  0.14789612259E+02  0.40003381825E+02  0.48180598020E+02  0.41800000000E+01 0.  1.
        -11    1    4    4    0    0  0.16029387788E+02  0.45937470353E+02  0.73237913442E+01  0.49201934666E+02  0.00000000000E+00 0. -1.
         11    1    4    4    0    0 -0.65410435609E+02  0.44468520205E+02  0.81572195377E+02  0.11362216964E+03  0.00000000000E+00 0.  1.
</event>
<event>
 8    1  0.6692409E-009  0.1202735E+03  0.7561462E-02  0.1242647E+00
          2   -1    0    0  501    0  0.00000000000E+00  0.00000000000E+00  0.20040210626E+04  0.20040210626E+04  0.00000000000E+00 0. -1.
         -2   -1    0    0    0  501 -0.00000000000E+00 -0.00000000000E+00 -0.14109732241E+02  0.14109732241E+02  0.00000000000E+00 0.  1.
         25    2    1    2    0    0 -0.86493858346E+02 -0.22169627340E+02  0.16079626860E+04  0.16152907082E+04  0.12508953876E+03 0.  0.
         23    2    1    2    0    0  0.86493858346E+02  0.22169627340E+02  0.38194864439E+03  0.40284008662E+03  0.91775206479E+02 0.  0.
          5    1    3    3  502    0 -0.91718864284E+02 -0.19720983603E+01  0.58989345409E+03  0.59699916149E+03  0.41800000000E+01 0. -1.
         -5    1    3    3    0  502  0.52250059383E+01 -0.20197528979E+02  0.10180692319E+04  0.10182915467E+04  0.41800000000E+01 0. -1.
        -11    1    4    4    0    0  0.72008090550E+02  0.55616607254E+02  0.28968964925E+03  0.30364200136E+03  0.00000000000E+00 0.  1.
         11    1    4    4    0    0  0.14485767796E+02 -0.33446979914E+02  0.92258995146E+02  0.99198085261E+02  0.00000000000E+00 0. -1.
</event>
<event>
 8    1  0.6692409E-009  0.1795144E+03  0.7561462E-02  0.1168274E+00
          3   -1    0    0  501    0  0.00000000000E+00  0.00000000000E+00  0.12618748937E+03  0.12618748937E+03  0.00000000000E+00 0. -1.
         -3   -1    0    0    0  501 -0.00000000000E+00 -0.00000000000E+00 -0.33238564787E+03  0.33238564787E+03  0.00000000000E+00 0.  1.
         25    2    1    2    0    0  0.92760206263E+02 -0.12437374899E+03 -0.19425998693E+03  0.27831335472E+03  0.12509234826E+03 0.  0.
         23    2    1    2    0    0 -0.92760206263E+02  0.12437374899E+03 -0.11938171567E+02  0.18025978252E+03  0.90982327682E+02 0.  0.
          5    1    3    3  502    0  0.76481533742E+02 -0.28024509075E+02 -0.29541489379E+02  0.86746585565E+02  0.41800000000E+01 0. -1.
         -5    1    3    3    0  502  0.16278672521E+02 -0.96349239913E+02 -0.16471849755E+03  0.19156676916E+03  0.41800000000E+01 0. -1.
        -11    1    4    4    0    0 -0.10301312876E+03  0.70512344370E+02 -0.12211468575E+02  0.12543052009E+03  0.00000000000E+00 0.  1.
         11    1    4    4    0    0  0.10252922498E+02  0.53861404618E+02  0.27329700890E+00  0.54829262428E+02  0.00000000000E+00 0. -1.
</event>
<event>
 8    1  0.6692409E-009  0.1021772E+03  0.7561462E-02  0.1275783E+00
         -1   -1    0    0    0  501 -0.00000000000E+00  0.00000000000E+00  0.54347526015E+02  0.54347526015E+02  0.00000000000E+00 0.  1.
          1   -1    0    0  501    0  0.00000000000E+00 -0.00000000000E+00 -0.24934408521E+03  0.24934408521E+03  0.00000000000E+00 0. -1.
         25    2    1    2    0    0 -0.34514974316E+02  0.20281242143E+02 -0.89977544393E+02  0.15920844451E+03  0.12509499620E+03 0.  0.
         23    2    1    2    0    0  0.34514974316E+02 -0.20281242143E+02 -0.10501901480E+03  0.14448316671E+03  0.90795262868E+02 0.  0.
          5    1    3    3  502    0 -0.14262049789E+02 -0.47109661913E+02 -0.63041430988E+01  0.49799005311E+02  0.41800000000E+01 0.  1.
         -5    1    3    3    0  502 -0.20252924526E+02  0.67390904056E+02 -0.83673401294E+02  0.10940943920E+03  0.41800000000E+01 0.  1.
        -11    1    4    4    0    0  0.48511820377E+02  0.11395445247E+02 -0.21888441053E+02  0.54427536600E+02  0.00000000000E+00 0.  1.
         11    1    4    4    0    0 -0.13996846061E+02 -0.31676687390E+02 -0.83130573746E+02  0.90055630113E+02  0.00000000000E+00 0. -1.
</event>
<event>
 8    1  0.6692409E-009  0.2477766E+03  0.7561462E-02  0.1114718E+00
         -2   -1    0    0    0  501 -0.00000000000E+00  0.00000000000E+00  0.16555369094E+04  0.16555369094E+04  0.00000000000E+00 0.  1.
          2   -1    0    0  501    0  0.00000000000E+00 -0.00000000000E+00 -0.44556070229E+02  0.44556070229E+02  0.00000000000E+00 0. -1.
         25    2    1    2    0    0  0.22808072092E+03  0.70007539980E+02  0.60873767276E+03  0.66568165574E+03  0.12509453083E+03 0.  0.
         23    2    1    2    0    0 -0.22808072092E+03 -0.70007539980E+02  0.10022431664E+04  0.10344113239E+04  0.92701410243E+02 0.  0.
          5    1    3    3  502    0  0.10353584022E+03  0.63853984731E+02  0.43551754404E+03  0.45220571109E+03  0.41800000000E+01 0.  1.
         -5    1    3    3    0  502  0.12454488070E+03  0.61535552496E+01  0.17322012871E+03  0.21347594464E+03  0.41800000000E+01 0.  1.
        -11    1    4    4    0    0 -0.81288611486E+02 -0.61685554004E+02  0.53274603532E+03  0.54243090259E+03  0.00000000000E+00 0.  1.
         11    1    4    4    0    0 -0.14679210943E+03 -0.83219859765E+01  0.46949713108E+03  0.49198042129E+03  0.00000000000E+00 0. -1.
</event>
<event>
 8    1  0.6692409E-009  0.3109537E+03  0.7561462E-02  0.1079890E+00
         -1   -1    0    0    0  501 -0.00000000000E+00  0.00000000000E+00  0.27527747055E+03  0.27527747055E+03  0.00000000000E+00 0.  1.
          1   -1    0    0  501    0  0.00000000000E+00 -0.00000000000E+00 -0.36440351182E+03  0.36440351182E+03  0.00000000000E+00 0. -1.
         25    2    1    2    0    0  0.29139618581E+03 -0.59588683765E+02 -0.15582179833E+02  0.32303706919E+03  0.12509034897E+03 0.  0.
         23    2    1    2    0    0 -0.29139618581E+03  0.59588683765E+02 -0.73543861441E+02  0.31664391318E+03  0.79950733985E+02 0.  0.
          5    1    3    3  502    0  0.91096286827E+02  0.38963469289E+02 -0.10332024023E+02  0.99704104896E+02  0.41800000000E+01 0.  1.
         -5    1    3    3    0  502  0.20029989898E+03 -0.98552153054E+02 -0.52501558096E+01  0.22333296429E+03  0.41800000000E+01 0.  1.
        -11    1    4    4    0    0 -0.25060397005E+03  0.38487657248E+02 -0.33565340730E+02  0.25575433850E+03  0.00000000000E+00 0.  1.
         11    1    4    4    0    0 -0.40792215758E+02  0.21101026517E+02 -0.39978520711E+02  0.60889574680E+02  0.00000000000E+00 0. -1.
</event>
<event>
 8    1  0.6692409E-009  0.1574094E+03  0.7561462E-02  0.1191653E+00
         -2   -1    0    0    0  501 -0.00000000000E+00  0.00000000000E+00  0.43566680304E+02  0.43566680304E+02  0.00000000000E+00 0.  1.
          2   -1    0    0  501    0  0.00000000000E+00 -0.00000000000E+00 -0.77399573703E+03  0.77399573703E+03  0.00000000000E+00 0. -1.
         25    2    1    2    0    0  0.14218240799E+03  0.40819807284E+02 -0.40395232998E+03  0.44800428471E+03  0.12509300705E+03 0.  0.
         23    2    1    2    0    0 -0.14218240799E+03 -0.40819807284E+02 -0.32647672675E+03  0.36955813263E+03  0.90022588677E+02 0.  0.
          5    1    3    3  502    0  0.90505249020E+02  0.56625355896E+02 -0.12777251486E+03  0.16655605358E+03  0.41800000000E+01 0. -1.
         -5    1    3    3    0  502  0.51677158973E+02 -0.15805548612E+02 -0.27617981512E+03  0.28144823113E+03  0.41800000000E+01 0. -1.
        -11    1    4    4    0    0 -0.11557331556E+03 -0.14726762724E+02 -0.30511412342E+03  0.32660174084E+03  0.00000000000E+00 0. -1.
         11    1    4    4    0    0 -0.26609092430E+02 -0.26093044560E+02 -0.21362603335E+02  0.42956391790E+02  0.00000000000E+00 0.  1.
</event>
<event>
 8    1  0.6692409E-009  0.1091654E+03  0.7561462E-02  0.1262123E+00
          3   -1    0    0  501    0  0.00000000000E+00  0.00000000000E+00  0.22636419752E+03  0.22636419752E+03  0.00000000000E+00 0. -1.
         -3   -1    0    0    0  501 -0.00000000000E+00 -0.00000000000E+00 -0.68387290012E+02  0.68387290012E+02  0.00000000000E+00 0.  1.
         25    2    1    2    0    0  0.15936076851E+02 -0.57397652478E+02  0.98719329252E+02  0.17011918894E+03  0.12508630390E+03 0.  0.
         23    2    1    2    0    0 -0.15936076851E+02  0.57397652478E+02  0.59257578251E+02  0.12463229859E+03  0.92050530772E+02 0.  0.
          5    1    3    3  502    0  0.36573115149E+01 -0.82858762200E+02  0.18662830894E+02  0.85115944792E+02  0.41800000000E+01 0. -1.
         -5    1    3    3    0  502  0.12278765336E+02  0.25461109723E+02  0.80056498358E+02  0.85003244149E+02  0.41800000000E+01 0. -1.
        -11    1    4    4    0    0  0.30670757655E+02 -0.25515005359E+01  0.47074713219E+01  0.31134640136E+02  0.00000000000E+00 0.  1.
         11    1    4    4    0    0 -0.46606834506E+02  0.59949153014E+02  0.54550106929E+02  0.93497658451E+02  0.00000000000E+00 0. -1.
</event>
<event>
 8    1  0.6692409E-009  0.1305718E+03  0.7561462E-02  0.1226610E+00
          3   -1    0    0  501    0  0.00000000000E+00  0.00000000000E+00  0.11067235257E+03  0.11067235257E+03  0.00000000000E+00 0. -1.
         -3   -1    0    0    0  501 -0.00000000000E+00 -0.00000000000E+00 -0.19161542638E+03  0.19161542638E+03  0.00000000000E+00 0.  1.
         25    2    1    2    0    0 -0.60832267420E+02 -0.62040994254E+02 -0.86378192541E+02  0.17509503318E+03  0.12508968291E+03 0.  0.
         23    2    1    2    0    0  0.60832267420E+02  0.62040994254E+02  0.54351187282E+01  0.12719274577E+03  0.92729738127E+02 0.  0.
          5    1    3    3  502    0 -0.14861696661E+02 -0.92236490071E+02 -0.35427683637E+02  0.10000516635E+03  0.41800000000E+01 0.  1.
         -5    1    3    3    0  502 -0.45970570759E+02  0.30195495818E+02 -0.50950508904E+02  0.75089866834E+02  0.41800000000E+01 0.  1.
        -11    1    4    4    0    0  0.77191027731E+02  0.47930675807E+02  0.28852442325E+02  0.95332407258E+02  0.00000000000E+00 0. -1.
         11    1    4    4    0    0 -0.16358760311E+02  0.14110318446E+02 -0.23417323597E+02  0.31860338511E+02  0.00000000000E+00 0.  1.
</event>
<event>
 8    1  0.6692409E-009  0.8194792E+02  0.7561462E-02  0.1323613E+00
         -1   -1    0    0    0  501 -0.00000000000E+00  0.00000000000E+00  0.12183384792E+03  0.12183384792E+03  0.00000000000E+00 0.  1.
          1   -1    0    0  501    0  0.00000000000E+00 -0.00000000000E+00 -0.97608258149E+02  0.97608258149E+02  0.00000000000E+00 0. -1.
         25    2    1    2    0    0 -0.83593086670E+01  0.89974787997E+01  0.24488916428E+02  0.12805015072E+03  0.12508517660E+03 0.  0.
         23    2    1    2    0    0  0.83593086670E+01 -0.89974787997E+01 -0.26332665590E+00  0.91391955354E+02  0.90562616440E+02 0.  0.
          5    1    3    3  502    0  0.66841274662E+01 -0.40201967970E+02  0.54624063906E+02  0.68279839969E+02  0.41800000000E+01 0. -1.
         -5    1    3    3    0  502 -0.15043436133E+02  0.49199446770E+02 -0.30135147478E+02  0.59770310746E+02  0.41800000000E+01 0. -1.
        -11    1    4    4    0    0 -0.31155697779E+02 -0.23916651770E+01 -0.28568309972E+02  0.42338468337E+02  0.00000000000E+00 0. -1.
         11    1    4    4    0    0  0.39515006446E+02 -0.66058136227E+01  0.28304983316E+02  0.49053487018E+02  0.00000000000E+00 0.  1.
</event>
<event>
 8    1  0.6692409E-009  0.2171779E+03  0.7561462E-02  0.1136005E+00
         -1   -1    0    0    0  501 -0.00000000000E+00  0.00000000000E+00  0.38644768400E+03  0.38644768400E+03  0.00000000000E+00 0.  1.
          1   -1    0    0  501    0  0.00000000000E+00 -0.00000000000E+00 -0.25299954688E+03  0.25299954688E+03  0.00000000000E+00 0. -1.
         25    2    1    2    0    0  0.52219872970E+02 -0.18926018250E+03 -0.15448593725E+03  0.27939209085E+03  0.12509078227E+03 0.  0.
         23    2    1    2    0    0 -0.52219872970E+02  0.18926018250E+03  0.28793407438E+03  0.36005514003E+03  0.90483925975E+02 0.  0.
          5    1    3    3  502    0  0.59160296419E+02 -0.46875402617E+02 -0.97897508504E+01  0.76227000890E+02  0.41800000000E+01 0.  1.
         -5    1    3    3    0  502 -0.69404234497E+01 -0.14238477988E+03 -0.14469618640E+03  0.20316508996E+03  0.41800000000E+01 0.  1.
        -11    1    4    4    0    0  0.22761298869E+02  0.17433178575E+02  0.40418329731E+02  0.49554352177E+02  0.00000000000E+00 0.  1.
         11    1    4    4    0    0 -0.74981171839E+02  0.17182700393E+03  0.24751574464E+03  0.31050078785E+03  0.00000000000E+00 0. -1.
</event>
<event>
 8    1  0.6692409E-009  0.9500213E+02  0.7561462E-02  0.1291171E+00
         -1   -1    0    0    0  501 -0.00000000000E+00  0.00000000000E+00  0.34109361063E+02  0.34109361063E+02  0.00000000000E+00 0. -1.
          1   -1    0    0  501    0  0.00000000000E+00 -0.00000000000E+00 -0.44886737705E+03  0.44886737705E+03  0.00000000000E+00 0.  1.
         25    2    1    2    0    0  0.33902505357E+02 -0.12604140233E+02 -0.14546018339E+03  0.19521870767E+03  0.12507371687E+03 0.  0.
         23    2    1    2    0    0 -0.33902505357E+02  0.12604140233E+02 -0.26929783260E+03  0.28775803045E+03  0.94737095279E+02 0.  0.
          5    1    3    3  502    0  0.20984664068E+02  0.34356672329E+02  0.13362461157E+01  0.40496851893E+02  0.41800000000E+01 0. -1.
         -5    1    3    3    0  502  0.12917841289E+02 -0.46960812562E+02 -0.14679642950E+03  0.15472185578E+03  0.41800000000E+01 0. -1.
        -11    1    4    4    0    0 -0.51191816372E+01 -0.40189942398E+02 -0.91530140270E+02  0.10009597429E+03  0.00000000000E+00 0.  1.
         11    1    4    4    0    0 -0.28783323720E+02  0.52794082630E+02 -0.17776769233E+03  0.18766205616E+03  0.00000000000E+00 0. -1.
</event>
<event>
 8    1  0.6692409E-009  0.1754025E+03  0.7561462E-02  0.1172328E+00
          1   -1    0    0  501    0  0.00000000000E+00  0.00000000000E+00  0.53011910796E+03  0.53011910796E+03  0.00000000000E+00 0. -1.
         -1   -1    0    0    0  501 -0.00000000000E+00 -0.00000000000E+00 -0.77780683401E+02  0.77780683401E+02  0.00000000000E+00 0.  1.
         25    2    1    2    0    0  0.90079925567E+02  0.13677805253E+03  0.16031916120E+03  0.26109915865E+03  0.12509160067E+03 0.  0.
         23    2    1    2    0    0 -0.90079925567E+02 -0.13677805253E+03  0.29201926336E+03  0.34680063271E+03  0.90403539913E+02 0.  0.
          5    1    3    3  502    0  0.72816686984E+02  0.36157407215E+02  0.13948723347E+02  0.82593385225E+02  0.41800000000E+01 0.  1.
         -5    1    3    3    0  502  0.17263238583E+02  0.10062064532E+03  0.14637043785E+03  0.17850577343E+03  0.41800000000E+01 0.  1.
        -11    1    4    4    0    0  0.19922610046E+01 -0.11928552963E+02 -0.38819415875E+01  0.12701533379E+02  0.00000000000E+00 0.  1.
         11    1    4    4    0    0 -0.92072186571E+02 -0.12484949957E+03  0.29590120495E+03  0.33409909933E+03  0.00000000000E+00 0. -1.
</event>
<event>
 8    1  0.6692409E-009  0.1174895E+03  0.7561462E-02  0.1247297E+00
          2   -1    0    0  501    0  0.00000000000E+00  0.00000000000E+00  0.26761591642E+03  0.26761591642E+03  0.00000000000E+00 0. -1.
         -2   -1    0    0    0  501 -0.00000000000E+00 -0.00000000000E+00 -0.59972766136E+02  0.59972766136E+02  0.00000000000E+00 0.  1.
         25    2    1    2    0    0  0.43253610650E+00 -0.65772764015E+02  0.93719816451E+02  0.16957268941E+03  0.12508097147E+03 0.  0.
         23    2    1    2    0    0 -0.43253610650E+00  0.65772764015E+02  0.11392333384E+03  0.15801599315E+03  0.87545899531E+02 0.  0.
          5    1    3    3  502    0  0.57120856633E+02 -0.55245783845E+02  0.34243689873E+02  0.86631354551E+02  0.41800000000E+01 0.  1.
         -5    1    3    3    0  502 -0.56688320527E+02 -0.10526980169E+02  0.59476126578E+02  0.82941334860E+02  0.41800000000E+01 0.  1.
        -11    1    4    4    0    0 -0.34676388300E+02  0.18741687864E+02  0.12964160731E+02  0.41494243372E+02  0.00000000000E+00 0.  1.
         11    1    4    4    0    0  0.34243852194E+02  0.47031076151E+02  0.10095917310E+03  0.11652174978E+03  0.00000000000E+00 0. -1.
</event>
<event>
 7    1  0.6692409E-009  0.3534319E+03  0.7561462E-02  0.1061215E+00
         -1   -1    0    0    0  501 -0.00000000000E+00  0.00000000000E+00  0.62978381282E+03  0.62978381282E+03  0.00000000000E+00 0.  1.
          1   -1    0    0  501    0  0.00000000000E+00 -0.00000000000E+00 -0.25961389514E+03  0.25961389514E+03  0.00000000000E+00 0. -1.
         23    2    1    2    0    0 -0.16545232880E+02  0.33835281156E+03  0.39096655539E+03  0.52772011766E+03  0.10429432070E+03 0.  0.
          5    1    1    2  502    0  0.59529029060E+02 -0.25217283438E+03 -0.43198031693E+02  0.26271350563E+03  0.41800000000E+01 0. -1.
         -5    1    1    2    0  502 -0.42983796180E+02 -0.86179977187E+02  0.22401393990E+02  0.98964084671E+02  0.41800000000E+01 0. -1.
        -11    1    3    3    0    0  0.11662982615E+02  0.31355634544E+03  0.32459685535E+03  0.45146065768E+03  0.00000000000E+00 0.  1.
         11    1    3    3    0    0 -0.28208215495E+02  0.24796466120E+02  0.66369700039E+02  0.76259459981E+02  0.00000000000E+00 0. -1.
</event>
<event>
 8    1  0.6692409E-009  0.1343636E+03  0.7561462E-02  0.1221121E+00
          2   -1    0    0  501    0  0.00000000000E+00  0.00000000000E+00  0.42489464600E+03  0.42489464600E+03  0.00000000000E+00 0.  1.
         -2   -1    0    0    0  501 -0.00000000000E+00 -0.00000000000E+00 -0.52017134795E+02  0.52017134795E+02  0.00000000000E+00 0. -1.
         25    2    1    2    0    0  0.92958367507E+02  0.70935664463E+01  0.14015182667E+03  0.20972753243E+03  0.12510606127E+03 0.  0.
         23    2    1    2    0    0 -0.92958367507E+02 -0.70935664463E+01  0.23272568453E+03  0.26718424836E+03  0.92382907287E+02 0.  0.
          5    1    3    3  502    0  0.72184621252E+02  0.59046414480E+02  0.11532363970E+03  0.14837153663E+03  0.41800000000E+01 0.  1.
         -5    1    3    3    0  502  0.20773746255E+02 -0.51952848034E+02  0.24828186971E+02  0.61355995800E+02  0.41800000000E+01 0.  1.
        -11    1    4    4    0    0 -0.10600498941E+03 -0.66395381137E+01  0.23069715029E+03  0.25397306235E+03  0.00000000000E+00 0.  1.
         11    1    4    4    0    0  0.13046621901E+02 -0.45402833257E+00  0.20285342383E+01  0.13211186015E+02  0.00000000000E+00 0. -1.
</event>
<event>
 8    1  0.6692409E-009  0.8604798E+02  0.7561462E-02  0.1312714E+00
         -1   -1    0    0    0  501 -0.00000000000E+00  0.00000000000E+00  0.28917384432E+02  0.28917384432E+02  0.00000000000E+00 0.  1.
          1   -1    0    0  501    0  0.00000000000E+00 -0.00000000000E+00 -0.46143341001E+03  0.46143341001E+03  0.00000000000E+00 0. -1.
         25    2    1    2    0    0  0.18980828642E+02  0.21513203584E+02 -0.31970996810E+03  0.34450589682E+03  0.12508700755E+03 0.  0.
         23    2    1    2    0    0 -0.18980828642E+02 -0.21513203584E+02 -0.11280605748E+03  0.14584489762E+03  0.87877401952E+02 0.  0.
          5    1    3    3  502    0  0.47634070618E+02  0.41653201354E+02 -0.29424832673E+03  0.30100422597E+03  0.41800000000E+01 0.  1.
         -5    1    3    3    0  502 -0.28653241976E+02 -0.20139997770E+02 -0.25461641370E+02  0.43501670855E+02  0.41800000000E+01 0.  1.
        -11    1    4    4    0    0  0.20973219373E+02  0.93105582083E+01 -0.75970227384E+00  0.22959520303E+02  0.00000000000E+00 0.  1.
         11    1    4    4    0    0 -0.39954048015E+02 -0.30823761792E+02 -0.11204635520E+03  0.12288537732E+03  0.00000000000E+00 0. -1.
</event>
<event>
 8    1  0.6692409E-009  0.1053731E+03  0.7561462E-02  0.1269386E+00
         -1   -1    0    0    0  501 -0.00000000000E+00  0.00000000000E+00  0.57833931050E+02  0.57833931050E+02  0.00000000000E+00 0.  1.
          1   -1    0    0  501    0  0.00000000000E+00 -0.00000000000E+00 -0.29134725038E+03  0.29134725038E+03  0.00000000000E+00 0. -1.
         25    2    1    2    0    0 -0.64444385500E+02 -0.22939120072E+02 -0.15851315895E+03  0.21319834294E+03  0.12509128595E+03 0.  0.
         23    2    1    2    0    0  0.64444385500E+02  0.22939120072E+02 -0.75000160373E+02  0.13598283848E+03  0.90482187494E+02 0.  0.
          5    1    3    3  502    0  0.23604833063E+02  0.29977509096E+02 -0.56973512755E+02  0.68697108754E+02  0.41800000000E+01 0.  1.
         -5    1    3    3    0  502 -0.88049218563E+02 -0.52916629168E+02 -0.10153964620E+03  0.14450123419E+03  0.41800000000E+01 0.  1.
        -11    1    4    4    0    0  0.14941700152E+02  0.11203996957E+02 -0.82474066005E+02  0.84562139960E+02  0.00000000000E+00 0. -1.
         11    1    4    4    0    0  0.49502685349E+02  0.11735123115E+02  0.74739056317E+01  0.51420698523E+02  0.00000000000E+00 0.  1.
</event>
<event>
 8    1  0.6692409E-009  0.1089609E+03  0.7561462E-02  0.1262506E+00
         -2   -1    0    0    0  501 -0.00000000000E+00  0.00000000000E+00  0.19727347221E+02  0.19727347221E+02  0.00000000000E+00 0.  1.
          2   -1    0    0  501    0  0.00000000000E+00 -0.00000000000E+00 -0.88118914098E+03  0.88118914098E+03  0.00000000000E+00 0. -1.
         25    2    1    2    0    0  0.33908895716E+02 -0.45303687917E+02 -0.64158197435E+03  0.65610722177E+03  0.12508804619E+03 0.  0.
         23    2    1    2    0    0 -0.33908895716E+02  0.45303687917E+02 -0.21987981940E+03  0.24480926642E+03  0.91554380558E+02 0.  0.
          5    1    3    3  502    0 -0.46892819750E+02 -0.16798385824E+02 -0.28510667211E+03  0.28945536650E+03  0.41800000000E+01 0. -1.
         -5    1    3    3    0  502  0.80801715466E+02 -0.28505302093E+02 -0.35647530224E+03  0.36665185528E+03  0.41800000000E+01 0. -1.
        -11    1    4    4    0    0 -0.48191703322E+02  0.47540696619E+02 -0.22017771759E+03  0.23034926835E+03  0.00000000000E+00 0. -1.
         11    1    4    4    0    0  0.14282807606E+02 -0.22370087024E+01  0.29789819061E+00  0.14459998076E+02  0.00000000000E+00 0.  1.
</event>
<event>
 8    1  0.6692409E-009  0.1310519E+03  0.7561462E-02  0.1225903E+00
          2   -1    0    0  501    0  0.00000000000E+00  0.00000000000E+00  0.88974362403E+02  0.88974362403E+02  0.00000000000E+00 0.  1.
         -2   -1    0    0    0  501 -0.00000000000E+00 -0.00000000000E+00 -0.35154374697E+03  0.35154374697E+03  0.00000000000E+00 0. -1.
         25    2    1    2    0    0  0.84193210644E+02 -0.77284285985E+02 -0.39699434558E+02  0.17402273919E+03  0.12508601470E+03 0.  0.
         23    2    1    2    0    0 -0.84193210644E+02  0.77284285985E+02 -0.22286995001E+03  0.26649537018E+03  0.91035213689E+02 0.  0.
          5    1    3    3  502    0  0.29983340651E+02 -0.84833193188E+02  0.20684683458E+02  0.92417530333E+02  0.41800000000E+01 0.  1.
         -5    1    3    3    0  502  0.54209869993E+02  0.75489072023E+01 -0.60384118016E+02  0.81605208860E+02  0.41800000000E+01 0.  1.
        -11    1    4    4    0    0 -0.70787002266E+02  0.49771402375E+02 -0.21921071437E+03  0.23567208040E+03  0.00000000000E+00 0. -1.
         11    1    4    4    0    0 -0.13406208377E+02  0.27512883610E+02 -0.36592356407E+01  0.30823289784E+02  0.00000000000E+00 0.  1.
</event>
<event>
 8    1  0.6692409E-009  0.1013931E+03  0.7561462E-02  0.1277393E+00
         -1   -1    0    0    0  501 -0.00000000000E+00  0.00000000000E+00  0.31241151892E+02  0.31241151892E+02  0.00000000000E+00 0. -1.
          1   -1    0    0  501    0  0.00000000000E+00 -0.00000000000E+00 -0.60452333274E+03  0.60452333274E+03  0.00000000000E+00 0.  1.
         25    2    1    2    0    0 -0.77293882141E+02 -0.23651143588E+02 -0.28267099265E+03  0.31950346732E+03  0.12508339113E+03 0.  0.
         23    2    1    2    0    0  0.77293882141E+02  0.23651143588E+02 -0.29061118820E+03  0.31626101731E+03  0.95039189565E+02 0.  0.
          5    1    3    3  502    0 -0.81239845649E+02 -0.24084214740E+02 -0.79547085487E+02  0.11629777784E+03  0.41800000000E+01 0. -1.
         -5    1    3    3    0  502  0.39459635075E+01  0.43307115266E+00 -0.20312390716E+03  0.20320568949E+03  0.41800000000E+01 0. -1.
        -11    1    4    4    0    0  0.26152130920E+02 -0.28817009297E+02 -0.17585336267E+03  0.18010763209E+03  0.00000000000E+00 0.  1.
         11    1    4    4    0    0  0.51141751221E+02  0.52468152885E+02 -0.11475782553E+03  0.13615338522E+03  0.00000000000E+00 0. -1.
</event>
<event>
 8    1  0.6692409E-009  0.2003984E+03  0.7561462E-02  0.1149403E+00
         -1   -1    0    0    0  501 -0.00000000000E+00  0.00000000000E+00  0.83170335338E+02  0.83170335338E+02  0.00000000000E+00 0.  1.
          1   -1    0    0  501    0  0.00000000000E+00 -0.00000000000E+00 -0.49635011205E+03  0.49635011205E+03  0.00000000000E+00 0. -1.
         25    2    1    2    0    0  0.16509398582E+03  0.34618821506E+02 -0.25838920803E+03  0.33296780031E+03  0.12509231096E+03 0.  0.
         23    2    1    2    0    0 -0.16509398582E+03 -0.34618821506E+02 -0.15479056869E+03  0.24655264708E+03  0.91507380434E+02 0.  0.
          5    1    3    3  502    0  0.42174949174E+02 -0.46310967221E+02 -0.77741626060E+02  0.99923294808E+02  0.41800000000E+01 0.  1.
         -5    1    3    3    0  502  0.12291903664E+03  0.80929788727E+02 -0.18064758197E+03  0.23304450550E+03  0.41800000000E+01 0.  1.
        -11    1    4    4    0    0 -0.58603134896E+02 -0.57246226874E+02 -0.53455366339E+02  0.97820928750E+02  0.00000000000E+00 0. -1.
         11    1    4    4    0    0 -0.10649085092E+03  0.22627405368E+02 -0.10133520235E+03  0.14873171833E+03  0.00000000000E+00 0.  1.
</event>
<event>
 8    1  0.6692409E-009  0.1095298E+03  0.7561462E-02  0.1261443E+00
          2   -1    0    0  501    0  0.00000000000E+00  0.00000000000E+00  0.71775106950E+03  0.71775106950E+03  0.00000000000E+00 0. -1.
         -2   -1    0    0    0  501 -0.00000000000E+00 -0.00000000000E+00 -0.21709676401E+02  0.21709676401E+02  0.00000000000E+00 0.  1.
         25    2    1    2    0    0  0.57891007315E+02  0.98346655667E+00  0.47248957216E+03  0.49218623347E+03  0.12509419124E+03 0.  0.
         23    2    1    2    0    0 -0.57891007315E+02 -0.98346655667E+00  0.22355182094E+03  0.24727451244E+03  0.88413414815E+02 0.  0.
          5    1    3    3  502    0 -0.10245804430E+02  0.41319936636E+02  0.29106234313E+03  0.29418884013E+03  0.41800000000E+01 0.  1.
         -5    1    3    3    0  502  0.68136811746E+02 -0.40336470080E+02  0.18142722903E+03  0.19799739333E+03  0.41800000000E+01 0.  1.
        -11    1    4    4    0    0 -0.16833786344E+02  0.37257853102E+02  0.48407634253E+02  0.63362631214E+02  0.00000000000E+00 0.  1.
         11    1    4    4    0    0 -0.41057220972E+02 -0.38241319659E+02  0.17514418669E+03  0.18391188122E+03  0.00000000000E+00 0. -1.
</event>
<event>
 8    1  0.6692409E-009  0.2310190E+03  0.7561462E-02  0.1125925E+00
         -1   -1    0    0    0  501 -0.00000000000E+00  0.00000000000E+00  0.27911747615E+02  0.27911747615E+02  0.00000000000E+00 0.  1.
          1   -1    0    0  501    0  0.00000000000E+00 -0.00000000000E+00 -0.20331316876E+04  0.20331316876E+04  0.00000000000E+00 0. -1.
         25    2    1    2    0    0 -0.88921906278E+02  0.19261452960E+03 -0.11224611641E+04  0.11491623600E+04  0.12509037644E+03 0.  0.
         23    2    1    2    0    0  0.88921906278E+02 -0.19261452960E+03 -0.88275877592E+03  0.91188107526E+03  0.85185541754E+02 0.  0.
          5    1    3    3  502    0 -0.11171961145E+03  0.97626854740E+02 -0.69127158130E+03  0.70702626958E+03  0.41800000000E+01 0. -1.
         -5    1    3    3    0  502  0.22797705176E+02  0.94987674862E+02 -0.43118958281E+03  0.44213609043E+03  0.41800000000E+01 0. -1.
        -11    1    4    4    0    0  0.50303048753E+02 -0.63142143204E+02 -0.48821754518E+03  0.49484714649E+03  0.00000000000E+00 0. -1.
         11    1    4    4    0    0  0.38618857525E+02 -0.12947238640E+03 -0.39454123073E+03  0.41703392877E+03  0.00000000000E+00 0.  1.
</event>
<event>
 8    1  0.6692409E-009  0.1517409E+03  0.7561462E-02  0.1198350E+00
         -3   -1    0    0    0  501 -0.00000000000E+00  0.00000000000E+00  0.33868759418E+02  0.33868759418E+02  0.00000000000E+00 0.  1.
          3   -1    0    0  501    0  0.00000000000E+00 -0.00000000000E+00 -0.17227566909E+04  0.17227566909E+04  0.00000000000E+00 0. -1.
         25    2    1    2    0    0  0.39547389396E+02 -0.13657205329E+03 -0.14606988043E+04  0.14729240856E+04  0.12509373804E+03 0.  0.
         23    2    1    2    0    0 -0.39547389396E+02  0.13657205329E+03 -0.22818912718E+03  0.28370136472E+03  0.90555313663E+02 0.  0.
          5    1    3    3  502    0  0.61720820896E+01 -0.16187556300E+02 -0.81740109767E+03  0.81759535129E+03  0.41800000000E+01 0.  1.
         -5    1    3    3    0  502  0.33375307306E+02 -0.12038449699E+03 -0.64329770660E+03  0.65532873428E+03  0.41800000000E+01 0.  1.
        -11    1    4    4    0    0 -0.42769936562E+02  0.26013423902E+02 -0.11510359331E+03  0.12551813769E+03  0.00000000000E+00 0. -1.
         11    1    4    4    0    0  0.32225471663E+01  0.11055862939E+03 -0.11308553387E+03  0.15818322703E+03  0.00000000000E+00 0.  1.
</event>
<event>
 8    1  0.6692409E-009  0.2054084E+03  0.7561462E-02  0.1145255E+00
          1   -1    0    0  501    0  0.00000000000E+00  0.00000000000E+00  0.23980337178E+03  0.23980337178E+03  0.00000000000E+00 0. -1.
         -1   -1    0    0    0  501 -0.00000000000E+00 -0.00000000000E+00 -0.22905158765E+03  0.22905158765E+03  0.00000000000E+00 0.  1.
         25    2    1    2    0    0  0.82857841799E+02  0.18108200389E+03  0.63548736147E+02  0.24360191718E+03  0.12508932051E+03 0.  0.
         23    2    1    2    0    0 -0.82857841799E+02 -0.18108200389E+03 -0.52796952009E+02  0.22525304225E+03  0.91078542054E+02 0.  0.
          5    1    3    3  502    0 -0.16324477836E+01  0.76992816637E+02  0.76774072007E+02  0.10882228279E+03  0.41800000000E+01 0.  1.
         -5    1    3    3    0  502  0.84490289583E+02  0.10408918725E+03 -0.13225335860E+02  0.13477963439E+03  0.41800000000E+01 0.  1.
        -11    1    4    4    0    0 -0.66341549480E+02 -0.13120692603E+03 -0.78603825852E+02  0.16671838550E+03  0.00000000000E+00 0. -1.
         11    1    4    4    0    0 -0.16516292319E+02 -0.49875077860E+02  0.25806873843E+02  0.58534656752E+02  0.00000000000E+00 0.  1.
</event>
<event>
 8    1  0.6692409E-009  0.1682243E+03  0.7561462E-02  0.1179712E+00
          4   -1    0    0  501    0  0.00000000000E+00  0.00000000000E+00  0.88306885548E+03  0.88306885548E+03  0.00000000000E+00 0. -1.
         -4   -1    0    0    0  501 -0.00000000000E+00 -0.00000000000E+00 -0.47520482054E+02  0.47520482054E+02  0.00000000000E+00 0.  1.
         25    2    1    2    0    0  0.16128945738E+03 -0.35946841432E+02  0.31587127564E+03  0.37779453066E+03  0.12509028801E+03 0.  0.
         23    2    1    2    0    0 -0.16128945738E+03  0.35946841432E+02  0.51967709779E+03  0.55279480687E+03  0.90616488946E+02 0.  0.
          5    1    3    3  502    0 -0.15049469219E+01 -0.73313720214E+00  0.12234691790E+03  0.12242974751E+03  0.41800000000E+01 0. -1.
         -5    1    3    3    0  502  0.16279440430E+03 -0.35213704230E+02  0.19352435774E+03  0.25536478315E+03  0.41800000000E+01 0. -1.
        -11    1    4    4    0    0 -0.92685168224E+02  0.23377394748E+02  0.42250567906E+03  0.43318366985E+03  0.00000000000E+00 0. -1.
         11    1    4    4    0    0 -0.68604289154E+02  0.12569446683E+02  0.97171418732E+02  0.11961113702E+03  0.00000000000E+00 0.  1.
</event>
<event>
 8    1  0.6692409E-009  0.1069634E+03  0.7561462E-02  0.1266299E+00
         -2   -1    0    0    0  501 -0.00000000000E+00  0.00000000000E+00  0.46295409169E+03  0.46295409169E+03  0.00000000000E+00 0.  1.
          2   -1    0    0  501    0  0.00000000000E+00 -0.00000000000E+00 -0.42315241378E+02  0.42315241378E+02  0.00000000000E+00 0. -1.
         25    2    1    2    0    0 -0.12549490252E+02  0.86935618223E+02  0.23750420508E+03  0.28243835570E+03  0.12509151018E+03 0.  0.
         23    2    1    2    0    0  0.12549490252E+02 -0.86935618223E+02  0.18313464524E+03  0.22283097737E+03  0.91651812686E+02 0.  0.
          5    1    3    3  502    0 -0.10281831321E+02  0.41145099979E+02  0.23222155471E+03  0.23609946671E+03  0.41800000000E+01 0.  1.
         -5    1    3    3    0  502 -0.22676589303E+01  0.45790518244E+02  0.52826503657E+01  0.46338888991E+02  0.41800000000E+01 0.  1.
        -11    1    4    4    0    0  0.45872741181E+02 -0.78466392999E+02  0.14792987359E+03  0.17362180368E+03  0.00000000000E+00 0.  1.
         11    1    4    4    0    0 -0.33323250930E+02 -0.84692252244E+01  0.35204771653E+02  0.49209173693E+02  0.00000000000E+00 0. -1.
</event>
<event>
 8    1  0.6692409E-009  0.1613955E+03  0.7561462E-02  0.1187130E+00
          2   -1    0    0  501    0  0.00000000000E+00  0.00000000000E+00  0.90204001171E+03  0.90204001171E+03  0.00000000000E+00 0. -1.
         -2   -1    0    0    0  501 -0.00000000000E+00 -0.00000000000E+00 -0.32606473682E+02  0.32606473682E+02  0.00000000000E+00 0.  1.
         25    2    1    2    0    0 -0.12430787926E+03  0.18195898588E+02  0.34391221205E+03  0.38691304355E+03  0.12507019669E+03 0.  0.
         23    2    1    2    0    0  0.12430787926E+03 -0.18195898588E+02  0.52552132598E+03  0.54773344185E+03  0.89753661135E+02 0.  0.
          5    1    3    3  502    0 -0.44685558085E+01 -0.42265248206E+02  0.74021595984E+02  0.85457523185E+02  0.41800000000E+01 0.  1.
         -5    1    3    3    0  502 -0.11983932345E+03  0.60461146794E+02  0.26989061607E+03  0.30145552036E+03  0.41800000000E+01 0.  1.
        -11    1    4    4    0    0  0.11721953079E+03  0.91183501839E+01  0.47987788502E+03  0.49407119652E+03  0.00000000000E+00 0. -1.
         11    1    4    4    0    0  0.70883484707E+01 -0.27314248772E+02  0.45643440965E+02  0.53662245323E+02  0.00000000000E+00 0.  1.
</event>
<event>
 8    1  0.6692409E-009  0.1607480E+03  0.7561462E-02  0.1187855E+00
         -2   -1    0    0    0  501 -0.00000000000E+00  0.00000000000E+00  0.37563523054E+02  0.37563523054E+02  0.00000000000E+00 0.  1.
          2   -1    0    0  501    0  0.00000000000E+00 -0.00000000000E+00 -0.92124739531E+03  0.92124739531E+03  0.00000000000E+00 0. -1.
         25    2    1    2    0    0 -0.11024535814E+03 -0.54594220150E+02 -0.69273312122E+03  0.71460651117E+03  0.12509484682E+03 0.  0.
         23    2    1    2    0    0  0.11024535814E+03  0.54594220150E+02 -0.19095075103E+03  0.24420440720E+03  0.89660667563E+02 0.  0.
          5    1    3    3  502    0 -0.93447155185E+02 -0.90076429218E+02 -0.59870382740E+03  0.61262539880E+03  0.41800000000E+01 0.  1.
         -5    1    3    3    0  502 -0.16798202957E+02  0.35482209069E+02 -0.94029293823E+02  0.10198111237E+03  0.41800000000E+01 0.  1.
        -11    1    4    4    0    0  0.76408986342E+02 -0.12108436204E+02 -0.10084851198E+03  0.12710377567E+03  0.00000000000E+00 0.  1.
         11    1    4    4    0    0  0.33836371800E+02  0.66702656353E+02 -0.90102239057E+02  0.11710063153E+03  0.00000000000E+00 0. -1.
</event>
<event>
 8    1  0.6692409E-009  0.7002566E+02  0.7561462E-02  0.1360006E+00
          1   -1    0    0  501    0  0.00000000000E+00  0.00000000000E+00  0.24980379860E+03  0.24980379860E+03  0.00000000000E+00 0. -1.
         -1   -1    0    0    0  501 -0.00000000000E+00 -0.00000000000E+00 -0.52997005722E+02  0.52997005722E+02  0.00000000000E+00 0.  1.
         25    2    1    2    0    0  0.91196948535E+01 -0.18771746098E+02  0.15896921680E+03  0.20334468262E+03  0.12506918396E+03 0.  0.
         23    2    1    2    0    0 -0.91196948535E+01  0.18771746098E+02  0.37837576076E+02  0.99456121696E+02  0.89578405286E+02 0.  0.
          5    1    3    3  502    0  0.18318784113E+02  0.25742834185E+02  0.15418871216E+03  0.15744809533E+03  0.41800000000E+01 0. -1.
         -5    1    3    3    0  502 -0.91990892595E+01 -0.44514580283E+02  0.47805046364E+01  0.45896587297E+02  0.41800000000E+01 0. -1.
        -11    1    4    4    0    0 -0.34207630901E+02  0.14173958142E+02 -0.15649367533E+02  0.40199077171E+02  0.00000000000E+00 0.  1.
         11    1    4    4    0    0  0.25087936047E+02  0.45977879556E+01  0.53486943608E+02  0.59257044524E+02  0.00000000000E+00 0. -1.
</event>
<event>
 8    1  0.6692409E-009  0.1070751E+03  0.7561462E-02  0.1266084E+00
         -1   -1    0    0    0  501 -0.00000000000E+00  0.00000000000E+00  0.77369212180E+02  0.77369212180E+02  0.00000000000E+00 0.  1.
          1   -1    0    0  501    0  0.00000000000E+00 -0.00000000000E+00 -0.27775004699E+03  0.27775004699E+03  0.00000000000E+00 0. -1.
         25    2    1    2    0    0 -0.78955955723E+01 -0.90149055275E+02 -0.62877811405E+02  0.16670307782E+03  0.12508838632E+03 0.  0.
         23    2    1    2    0    0  0.78955955723E+01  0.90149055275E+02 -0.13750302340E+03  0.18841618135E+03  0.91675423926E+02 0.  0.
          5    1    3    3  502    0 -0.76263808256E+01  0.15322699795E+02  0.24152762301E+02  0.29896072322E+02  0.41800000000E+01 0. -1.
         -5    1    3    3    0  502 -0.26921474676E+00 -0.10547175507E+03 -0.87030573705E+02  0.13680700550E+03  0.41800000000E+01 0. -1.
        -11    1    4    4    0    0  0.10155822039E+01  0.61664828399E+02 -0.14550854824E+03  0.15803898278E+03  0.00000000000E+00 0. -1.
         11    1    4    4    0    0  0.68800133684E+01  0.28484226876E+02  0.80055248362E+01  0.30377198563E+02  0.00000000000E+00 0.  1.
</event>
<event>
 8    1  0.6692409E-009  0.1412847E+03  0.7561462E-02  0.1211611E+00
          1   -1    0    0  501    0  0.00000000000E+00  0.00000000000E+00  0.11297882369E+03  0.11297882369E+03  0.00000000000E+00 0. -1.
         -1   -1    0    0    0  501 -0.00000000000E+00 -0.00000000000E+00 -0.39148932577E+03  0.39148932577E+03  0.00000000000E+00 0.  1.
         25    2    1    2    0    0  0.71296964757E+02 -0.88864272722E+02  0.21125022439E+02  0.17051136228E+03  0.12509093470E+03 0.  0.
         23    2    1    2    0    0 -0.71296964757E+02  0.88864272722E+02 -0.29963552452E+03  0.33395678718E+03  0.93624633513E+02 0.  0.
          5    1    3    3  502    0  0.42214423088E+02  0.15389006955E+02 -0.26342881511E+02  0.52252261750E+02  0.41800000000E+01 0. -1.
         -5    1    3    3    0  502  0.29082541669E+02 -0.10425327968E+03  0.47467903950E+02  0.11825910053E+03  0.41800000000E+01 0. -1.
        -11    1    4    4    0    0 -0.51167341572E+02  0.95154709888E+02 -0.29230029969E+03  0.31162795263E+03  0.00000000000E+00 0.  1.
         11    1    4    4    0    0 -0.20129623184E+02 -0.62904371651E+01 -0.73352248241E+01  0.22328834553E+02  0.00000000000E+00 0. -1.
</event>
<event>
 8    1  0.6692409E-009  0.7443570E+02  0.7561462E-02  0.1345627E+00
         -1   -1    0    0    0  501 -0.00000000000E+00  0.00000000000E+00  0.11701399664E+03  0.11701399664E+03  0.00000000000E+00 0.  1.
          1   -1    0    0  501    0  0.00000000000E+00 -0.00000000000E+00 -0.10427997741E+03  0.10427997741E+03  0.00000000000E+00 0. -1.
         25    2    1    2    0    0  0.35734481216E+01 -0.10742051663E+02 -0.11204576527E+02  0.12610457888E+03  0.12509460849E+03 0.  0.
         23    2    1    2    0    0 -0.35734481216E+01  0.10742051663E+02  0.23938595752E+02  0.95189395169E+02  0.91431960389E+02 0.  0.
          5    1    3    3  502    0 -0.31347140546E+01  0.22232748065E+02 -0.61410837079E+02  0.65520110115E+02  0.41800000000E+01 0.  1.
         -5    1    3    3    0  502  0.67081621762E+01 -0.32974799727E+02  0.50206260553E+02  0.60584468765E+02  0.41800000000E+01 0.  1.
        -11    1    4    4    0    0  0.25541258332E+02  0.42158043928E+02  0.13350873164E+02  0.51067625354E+02  0.00000000000E+00 0.  1.
         11    1    4    4    0    0 -0.29114706454E+02 -0.31415992266E+02  0.10587722588E+02  0.44121769814E+02  0.00000000000E+00 0. -1.
</event>
<event>
 8    1  0.6692409E-009  0.1349835E+03  0.7561462E-02  0.1220243E+00
         -1   -1    0    0    0  501 -0.00000000000E+00  0.00000000000E+00  0.99793998287E+02  0.99793998287E+02  0.00000000000E+00 0.  1.
          1   -1    0    0  501    0  0.00000000000E+00 -0.00000000000E+00 -0.24869847053E+03  0.24869847053E+03  0.00000000000E+00 0. -1.
         25    2    1    2    0    0  0.75514209955E+02 -0.62185825503E+02 -0.16290786829E+03  0.22750875722E+03  0.12510710716E+03 0.  0.
         23    2    1    2    0    0 -0.75514209955E+02  0.62185825503E+02  0.14003396047E+02  0.12098371159E+03  0.69796064157E+02 0.  0.
          5    1    3    3  502    0  0.24734803761E-01  0.34949933659E+02 -0.44195214257E+02  0.56499449889E+02  0.41800000000E+01 0. -1.
         -5    1    3    3    0  502  0.75489475151E+02 -0.97135759162E+02 -0.11871265403E+03  0.17100930733E+03  0.41800000000E+01 0. -1.
        -11    1    4    4    0    0 -0.22665458363E+02  0.53520772773E+02  0.29571363676E+02  0.65212434939E+02  0.00000000000E+00 0.  1.
         11    1    4    4    0    0 -0.52848751592E+02  0.86650527298E+01 -0.15567967629E+02  0.55771276656E+02  0.00000000000E+00 0. -1.
</event>
<event>
 8    1  0.6692409E-009  0.2793356E+03  0.7561462E-02  0.1096052E+00
          1   -1    0    0  501    0  0.00000000000E+00  0.00000000000E+00  0.14720565203E+03  0.14720565203E+03  0.00000000000E+00 0. -1.
         -1   -1    0    0    0  501 -0.00000000000E+00 -0.00000000000E+00 -0.60426305417E+03  0.60426305417E+03  0.00000000000E+00 0.  1.
         25    2    1    2    0    0 -0.15910195330E+03  0.21609266661E+03 -0.14310636279E+03  0.32884056730E+03  0.12508883055E+03 0.  0.
         23    2    1    2    0    0  0.15910195330E+03 -0.21609266661E+03 -0.31395103936E+03  0.42262813890E+03  0.89665024196E+02 0.  0.
          5    1    3    3  502    0 -0.70554255890E+01  0.50021139639E+02 -0.80448015453E+02  0.95085482758E+02  0.41800000000E+01 0. -1.
         -5    1    3    3    0  502 -0.15204652772E+03  0.16607152697E+03 -0.62658347334E+02  0.23375508455E+03  0.41800000000E+01 0. -1.
        -11    1    4    4    0    0  0.67358723435E+02 -0.26925184788E+02 -0.86593803137E+02  0.11296304679E+03  0.00000000000E+00 0.  1.
         11    1    4    4    0    0  0.91743229870E+02 -0.18916748182E+03 -0.22735723622E+03  0.30966509210E+03  0.00000000000E+00 0. -1.
</event>
<event>
 8    1  0.6692409E-009  0.1068478E+03  0.7561462E-02  0.1266521E+00
          4   -1    0    0  501    0  0.00000000000E+00  0.00000000000E+00  0.28114791565E+02  0.28114791565E+02  0.00000000000E+00 0. -1.
         -4   -1    0    0    0  501 -0.00000000000E+00 -0.00000000000E+00 -0.42227105548E+03  0.42227105548E+03  0.00000000000E+00 0.  1.
         25    2    1    2    0    0 -0.97859318831E+01  0.21620091193E+01 -0.25292023481E+03  0.28233845612E+03  0.12508365155E+03 0.  0.
         23    2    1    2    0    0  0.97859318831E+01 -0.21620091193E+01 -0.14123602911E+03  0.16804739093E+03  0.90508954983E+02 0.  0.
          5    1    3    3  502    0  0.46671965512E+02  0.35085791577E+02 -0.14094527836E+03  0.15261824605E+03  0.41800000000E+01 0.  1.
         -5    1    3    3    0  502 -0.56457897395E+02 -0.32923782458E+02 -0.11197495644E+03  0.12972021007E+03  0.41800000000E+01 0.  1.
        -11    1    4    4    0    0 -0.38217342425E+02 -0.13160555988E+02 -0.49294940898E+02  0.63747601477E+02  0.00000000000E+00 0.  1.
         11    1    4    4    0    0  0.48003274308E+02  0.10998546869E+02 -0.91941088211E+02  0.10429978945E+03  0.00000000000E+00 0. -1.
</event>
<event>
 8    1  0.6692409E-009  0.1538002E+03  0.7561462E-02  0.1195880E+00
         -2   -1    0    0    0  501 -0.00000000000E+00  0.00000000000E+00  0.81725510904E+03  0.81725510904E+03  0.00000000000E+00 0.  1.
          2   -1    0    0  501    0  0.00000000000E+00 -0.00000000000E+00 -0.33971285049E+02  0.33971285049E+02  0.00000000000E+00 0. -1.
         25    2    1    2    0    0  0.24444360761E+02 -0.11852097783E+03  0.48657533488E+03  0.51676645854E+03  0.12508903705E+03 0.  0.
         23    2    1    2    0    0 -0.24444360761E+02  0.11852097783E+03  0.29670848910E+03  0.33445993555E+03  0.95826781339E+02 0.  0.
          5    1    3    3  502    0 -0.10737097958E+02  0.18951860914E+02  0.23048192461E+02  0.31986714123E+02  0.41800000000E+01 0.  1.
         -5    1    3    3    0  502  0.35181458719E+02 -0.13747283875E+03  0.46352714242E+03  0.48477974441E+03  0.41800000000E+01 0.  1.
        -11    1    4    4    0    0  0.15805300209E+02  0.96083720247E+02  0.13593638563E+03  0.16721420319E+03  0.00000000000E+00 0. -1.
         11    1    4    4    0    0 -0.40249660970E+02  0.22437257587E+02  0.16077210347E+03  0.16724573235E+03  0.00000000000E+00 0.  1.
</event>
<event>
 8    1  0.6692409E-009  0.5188809E+02  0.7561462E-02  0.1435416E+00
         -1   -1    0    0    0  501 -0.00000000000E+00  0.00000000000E+00  0.20086558639E+03  0.20086558639E+03  0.00000000000E+00 0.  1.
          1   -1    0    0  501    0  0.00000000000E+00 -0.00000000000E+00 -0.57541859193E+02  0.57541859193E+02  0.00000000000E+00 0. -1.
         25    2    1    2    0    0  0.34746137448E+01 -0.32775829595E+01  0.13728574270E+03  0.18578770997E+03  0.12508749952E+03 0.  0.
         23    2    1    2    0    0 -0.34746137448E+01  0.32775829595E+01  0.60379844966E+01  0.72619735613E+02  0.72210478831E+02 0.  0.
          5    1    3    3  502    0 -0.32207003814E+02 -0.97273385205E+01 -0.89513041270E+01  0.35064375867E+02  0.41800000000E+01 0.  1.
         -5    1    3    3    0  502  0.35681617559E+02  0.64497555610E+01  0.14623704683E+03  0.15072333411E+03  0.41800000000E+01 0.  1.
        -11    1    4    4    0    0 -0.18181899384E+02 -0.50059839654E+00 -0.29113743968E+02  0.34328445228E+02  0.00000000000E+00 0. -1.
         11    1    4    4    0    0  0.14707285639E+02  0.37781813560E+01  0.35151728465E+02  0.38291290384E+02  0.00000000000E+00 0.  1.
</event>
<event>
 8    1  0.6692409E-009  0.1696228E+03  0.7561462E-02  0.1178242E+00
          1   -1    0    0  501    0  0.00000000000E+00  0.00000000000E+00  0.85113210385E+02  0.85113210385E+02  0.00000000000E+00 0. -1.
         -1   -1    0    0    0  501 -0.00000000000E+00 -0.00000000000E+00 -0.42552851540E+03  0.42552851540E+03  0.00000000000E+00 0.  1.
         25    2    1    2    0    0  0.14691364360E+03  0.22063256001E+01 -0.24907939871E+03  0.31508100809E+03  0.12508800203E+03 0.  0.
         23    2    1    2    0    0 -0.14691364360E+03 -0.22063256001E+01 -0.91335906310E+02  0.19556071770E+03  0.91177080331E+02 0.  0.
          5    1    3    3  502    0  0.16044673057E+03  0.21900717617E+02 -0.18147490809E+03  0.24325585183E+03  0.41800000000E+01 0. -1.
         -5    1    3    3    0  502 -0.13533086979E+02 -0.19694392016E+02 -0.67604490616E+02  0.71825156258E+02  0.41800000000E+01 0. -1.
        -11    1    4    4    0    0 -0.33297877912E+02 -0.18703500131E+02 -0.68613782551E+02  0.78526560772E+02  0.00000000000E+00 0.  1.
         11    1    4    4    0    0 -0.11361576568E+03  0.16497174531E+02 -0.22722123759E+02  0.11703415693E+03  0.00000000000E+00 0. -1.
</event>
<event>
 8    1  0.6692409E-009  0.3141500E+03  0.7561462E-02  0.1078374E+00
         -1   -1    0    0    0  501 -0.00000000000E+00  0.00000000000E+00  0.17390620356E+03  0.17390620356E+03  0.00000000000E+00 0.  1.
          1   -1    0    0  501    0  0.00000000000E+00 -0.00000000000E+00 -0.63328790349E+03  0.63328790349E+03  0.00000000000E+00 0. -1.
         25    2    1    2    0    0  0.12866514619E+03 -0.28480463696E+03 -0.25388146848E+03  0.42164459341E+03  0.12513976999E+03 0.  0.
         23    2    1    2    0    0 -0.12866514619E+03  0.28480463696E+03 -0.20550023145E+03  0.38554951364E+03  0.93539730956E+02 0.  0.
          5    1    3    3  502    0  0.99062824750E+02 -0.20654091008E+03 -0.24804358640E+03  0.33766208543E+03  0.41800000000E+01 0.  1.
         -5    1    3    3    0  502  0.29602321436E+02 -0.78263726877E+02 -0.58378820894E+01  0.83982507978E+02  0.41800000000E+01 0.  1.
        -11    1    4    4    0    0 -0.52468566305E+02  0.69904606866E+02 -0.10432781632E+03  0.13610252669E+03  0.00000000000E+00 0. -1.
         11    1    4    4    0    0 -0.76196579880E+02  0.21490003009E+03 -0.10117241513E+03  0.24944698696E+03  0.00000000000E+00 0.  1.
</event>
<event>
 8    1  0.6692409E-009  0.9843801E+02  0.7561462E-02  0.1283615E+00
         -1   -1    0    0    0  501 -0.00000000000E+00  0.00000000000E+00  0.89445708015E+02  0.89445708015E+02  0.00000000000E+00 0.  1.
          1   -1    0    0  501    0  0.00000000000E+00 -0.00000000000E+00 -0.25703241727E+03  0.25703241727E+03  0.00000000000E+00 0. -1.
         25    2    1    2    0    0  0.52396932322E+02 -0.99751392320E+01 -0.19268387466E+03  0.23583804782E+03  0.12509023674E+03 0.  0.
         23    2    1    2    0    0 -0.52396932322E+02  0.99751392320E+01  0.25097165407E+02  0.11064007746E+03  0.93629146689E+02 0.  0.
          5    1    3    3  502    0  0.25319913549E+02 -0.50112877777E+02 -0.25633241840E+02  0.61862218102E+02  0.41800000000E+01 0.  1.
         -5    1    3    3    0  502  0.27077018773E+02  0.40137738545E+02 -0.16705063282E+03  0.17397582972E+03  0.41800000000E+01 0.  1.
        -11    1    4    4    0    0  0.19099833318E+02 -0.29359518492E+01 -0.17795881800E+02  0.26270075277E+02  0.00000000000E+00 0. -1.
         11    1    4    4    0    0 -0.71496765640E+02  0.12911091081E+02  0.42893047207E+02  0.84370002184E+02  0.00000000000E+00 0.  1.
</event>
<event>
 8    1  0.6692409E-009  0.1846480E+03  0.7561462E-02  0.1163379E+00
         -2   -1    0    0    0  501 -0.00000000000E+00  0.00000000000E+00  0.67448061059E+02  0.67448061059E+02  0.00000000000E+00 0.  1.
          2   -1    0    0  501    0  0.00000000000E+00 -0.00000000000E+00 -0.72700600422E+03  0.72700600422E+03  0.00000000000E+00 0. -1.
         25    2    1    2    0    0 -0.11797108834E+02  0.15935857832E+03 -0.53427876533E+03  0.57152068194E+03  0.12509101702E+03 0.  0.
         23    2    1    2    0    0  0.11797108834E+02 -0.15935857832E+03 -0.12527917784E+03  0.22293338335E+03  0.92033106812E+02 0.  0.
          5    1    3    3  502    0 -0.55220331696E+02  0.11031959165E+03 -0.43753198457E+03  0.45461127049E+03  0.41800000000E+01 0. -1.
         -5    1    3    3    0  502  0.43423222862E+02  0.49038986673E+02 -0.96746780754E+02  0.11690941144E+03  0.41800000000E+01 0. -1.
        -11    1    4    4    0    0  0.45974736828E+02 -0.63067960395E+02 -0.78025070963E+02  0.11035921236E+03  0.00000000000E+00 0.  1.
         11    1    4    4    0    0 -0.34177627995E+02 -0.96290617927E+02 -0.47254106875E+02  0.11257417098E+03  0.00000000000E+00 0. -1.
</event>
<event>
 8    1  0.6692409E-009  0.1183076E+03  0.7561462E-02  0.1245915E+00
          1   -1    0    0  501    0  0.00000000000E+00  0.00000000000E+00  0.19630733778E+03  0.19630733778E+03  0.00000000000E+00 0. -1.
         -1   -1    0    0    0  501 -0.00000000000E+00 -0.00000000000E+00 -0.11882692787E+03  0.11882692787E+03  0.00000000000E+00 0.  1.
         25    2    1    2    0    0 -0.79178553675E+01 -0.10154495424E+03  0.77501106992E+02  0.17896377628E+03  0.12509013338E+03 0.  0.
         23    2    1    2    0    0  0.79178553675E+01  0.10154495424E+03 -0.20697082476E-01  0.13617048937E+03  0.90378822637E+02 0.  0.
          5    1    3    3  502    0 -0.13534224594E+02  0.11603473476E+02 -0.21651059493E+02  0.28355891967E+02  0.41800000000E+01 0.  1.
         -5    1    3    3    0  502  0.56163692262E+01 -0.11314842772E+03  0.99152166485E+02  0.15060788431E+03  0.41800000000E+01 0.  1.
        -11    1    4    4    0    0 -0.79423996892E+01  0.59040923009E+02 -0.43162517913E+02  0.73565720653E+02  0.00000000000E+00 0.  1.
         11    1    4    4    0    0  0.15860255057E+02  0.42504031232E+02  0.43141820830E+02  0.62604768716E+02  0.00000000000E+00 0. -1.
</event>
<event>
 8    1  0.6692409E-009  0.1032241E+03  0.7561462E-02  0.1273659E+00
         -2   -1    0    0    0  501 -0.00000000000E+00  0.00000000000E+00  0.15742514300E+02  0.15742514300E+02  0.00000000000E+00 0. -1.
          2   -1    0    0  501    0  0.00000000000E+00 -0.00000000000E+00 -0.96501559640E+03  0.96501559640E+03  0.00000000000E+00 0.  1.
         25    2    1    2    0    0  0.16741841572E+02 -0.23232228668E+01 -0.73354618378E+03  0.74432811039E+03  0.12509454646E+03 0.  0.
         23    2    1    2    0    0 -0.16741841572E+02  0.23232228668E+01 -0.21572689832E+03  0.23643000031E+03  0.95264703665E+02 0.  0.
          5    1    3    3  502    0 -0.35550145238E+02 -0.35598655119E+02 -0.16913212021E+03  0.17650559073E+03  0.41800000000E+01 0. -1.
         -5    1    3    3    0  502  0.52291986810E+02  0.33275432252E+02 -0.56441406357E+03  0.56782251966E+03  0.41800000000E+01 0. -1.
        -11    1    4    4    0    0  0.17702028426E+02  0.39425329052E+02 -0.71162957257E+02  0.83257941764E+02  0.00000000000E+00 0. -1.
         11    1    4    4    0    0 -0.34443869997E+02 -0.37102106185E+02 -0.14456394106E+03  0.15317205855E+03  0.00000000000E+00 0.  1.
</event>
<event>
 8    1  0.6692409E-009  0.8275872E+02  0.7561462E-02  0.1321400E+00
         -2   -1    0    0    0  501 -0.00000000000E+00  0.00000000000E+00  0.24739230288E+02  0.24739230288E+02  0.00000000000E+00 0.  1.
          2   -1    0    0  501    0  0.00000000000E+00 -0.00000000000E+00 -0.57967087294E+03  0.57967087294E+03  0.00000000000E+00 0. -1.
         25    2    1    2    0    0 -0.41552321090E+02  0.23751158660E+02 -0.32421890645E+03  0.35080070913E+03  0.12511005277E+03 0.  0.
         23    2    1    2    0    0  0.41552321090E+02 -0.23751158660E+02 -0.23071273620E+03  0.25360939409E+03  0.93801093819E+02 0.  0.
          5    1    3    3  502    0 -0.46634101991E+02  0.37604520091E+02 -0.32923315784E+03  0.33466518196E+03  0.41800000000E+01 0. -1.
         -5    1    3    3    0  502  0.50817809010E+01 -0.13853361431E+02  0.50142513871E+01  0.16135527169E+02  0.41800000000E+01 0. -1.
        -11    1    4    4    0    0 -0.13052108081E+01  0.25104649451E+02 -0.17288904481E+02  0.30509887208E+02  0.00000000000E+00 0.  1.
         11    1    4    4    0    0  0.42857531898E+02 -0.48855808111E+02 -0.21342383172E+03  0.22309950688E+03  0.00000000000E+00 0. -1.
</event>
<event>
 8    1  0.6692409E-009  0.1458150E+03  0.7561462E-02  0.1205712E+00
         -2   -1    0    0    0  501 -0.00000000000E+00  0.00000000000E+00  0.45969383313E+02  0.45969383313E+02  0.00000000000E+00 0.  1.
          2   -1    0    0  501    0  0.00000000000E+00 -0.00000000000E+00 -0.76707702638E+03  0.76707702638E+03  0.00000000000E+00 0. -1.
         25    2    1    2    0    0  0.40714956274E+02 -0.12812258553E+03 -0.22312043686E+03  0.28896979791E+03  0.12509080772E+03 0.  0.
         23    2    1    2    0    0 -0.40714956274E+02  0.12812258553E+03 -0.49798720621E+03  0.52407661178E+03  0.92692679748E+02 0.  0.
          5    1    3    3  502    0  0.40178806007E+02 -0.10995953054E+03 -0.73720945027E+02  0.13841128908E+03  0.41800000000E+01 0.  1.
         -5    1    3    3    0  502  0.53615026651E+00 -0.18163054989E+02 -0.14939949183E+03  0.15055850883E+03  0.41800000000E+01 0.  1.
        -11    1    4    4    0    0  0.68040055752E+01  0.10079266912E+03 -0.24115951332E+03  0.26146389331E+03  0.00000000000E+00 0.  1.
         11    1    4    4    0    0 -0.47518961849E+02  0.27329916405E+02 -0.25682769289E+03  0.26261271847E+03  0.00000000000E+00 0. -1.
</event>
<event>
 8    1  0.6692409E-009  0.7407083E+02  0.7561462E-02  0.1346773E+00
          2   -1    0    0  501    0  0.00000000000E+00  0.00000000000E+00  0.23846206159E+03  0.23846206159E+03  0.00000000000E+00 0.  1.
         -2   -1    0    0    0  501 -0.00000000000E+00 -0.00000000000E+00 -0.61765509492E+02  0.61765509492E+02  0.00000000000E+00 0. -1.
         25    2    1    2    0    0 -0.18245372295E+02 -0.32097972260E+02  0.11501916877E+03  0.17388132288E+03  0.12506850854E+03 0.  0.
         23    2    1    2    0    0  0.18245372295E+02  0.32097972260E+02  0.61677383333E+02  0.12634624821E+03  0.10390428955E+03 0.  0.
          5    1    3    3  502    0  0.14274598289E+02 -0.63468670115E+02  0.11047833175E+03  0.12827692867E+03  0.41800000000E+01 0.  1.
         -5    1    3    3    0  502 -0.32519970584E+02  0.31370697855E+02  0.45408370201E+01  0.45604394213E+02  0.41800000000E+01 0.  1.
        -11    1    4    4    0    0  0.14345670369E+02  0.18389135254E+02  0.90893986559E+02  0.93838560019E+02  0.00000000000E+00 0.  1.
         11    1    4    4    0    0  0.38997019259E+01  0.13708837006E+02 -0.29216603226E+02  0.32507688186E+02  0.00000000000E+00 0. -1.
</event>
<event>
 8    1  0.6692409E-009  0.1215820E+03  0.7561462E-02  0.1240510E+00
         -2   -1    0    0    0  501 -0.00000000000E+00  0.00000000000E+00  0.33077773522E+02  0.33077773522E+02  0.00000000000E+00 0.  1.
          2   -1    0    0  501    0  0.00000000000E+00 -0.00000000000E+00 -0.72663269707E+03  0.72663269707E+03  0.00000000000E+00 0. -1.
         25    2    1    2    0    0  0.10082754070E+03  0.14464667203E+02 -0.48393765005E+03  0.51011656398E+03  0.12509132725E+03 0.  0.
         23    2    1    2    0    0 -0.10082754070E+03 -0.14464667203E+02 -0.20961727349E+03  0.24959390661E+03  0.89343703234E+02 0.  0.
          5    1    3    3  502    0  0.27137210284E+02 -0.32656775005E+02 -0.33216187233E+03  0.33489084038E+03  0.41800000000E+01 0. -1.
         -5    1    3    3    0  502  0.73690330411E+02  0.47121442207E+02 -0.15177577772E+03  0.17522572361E+03  0.41800000000E+01 0. -1.
        -11    1    4    4    0    0 -0.30455480799E+02  0.18057707469E+02 -0.14319209648E+03  0.14750455452E+03  0.00000000000E+00 0. -1.
         11    1    4    4    0    0 -0.70372059896E+02 -0.32522374671E+02 -0.66425177019E+02  0.10208935209E+03  0.00000000000E+00 0.  1.
</event>
<event>
 8    1  0.6692409E-009  0.8973944E+02  0.7561462E-02  0.1303484E+00
          2   -1    0    0  501    0  0.00000000000E+00  0.00000000000E+00  0.50035942554E+03  0.50035942554E+03  0.00000000000E+00 0.  1.
         -2   -1    0    0    0  501 -0.00000000000E+00 -0.00000000000E+00 -0.33233520633E+02  0.33233520633E+02  0.00000000000E+00 0. -1.
         25    2    1    2    0    0  0.29041237927E+02  0.31184269225E+02  0.14833911917E+03  0.19866727275E+03  0.12509332051E+03 0.  0.
         23    2    1    2    0    0 -0.29041237927E+02 -0.31184269225E+02  0.31878678573E+03  0.33492567343E+03  0.93457689967E+02 0.  0.
          5    1    3    3  502    0  0.18370301069E+02  0.51530559506E+02  0.16239381499E+03  0.17141204763E+03  0.41800000000E+01 0.  1.
         -5    1    3    3    0  502  0.10670936858E+02 -0.20346290281E+02 -0.14054695820E+02  0.27255225118E+02  0.41800000000E+01 0.  1.
        -11    1    4    4    0    0 -0.57196391590E+02  0.26327417742E+01  0.20750953610E+03  0.21526394522E+03  0.00000000000E+00 0. -1.
         11    1    4    4    0    0  0.28155153663E+02 -0.33817010999E+02  0.11127724964E+03  0.11966172821E+03  0.00000000000E+00 0.  1.
</event>
<event>
 8    1  0.6692409E-009  0.1394840E+03  0.7561462E-02  0.1214025E+00
         -1   -1    0    0    0  501 -0.00000000000E+00  0.00000000000E+00  0.35305575063E+03  0.35305575063E+03  0.00000000000E+00 0. -1.
          1   -1    0    0  501    0  0.00000000000E+00 -0.00000000000E+00 -0.64024647546E+02  0.64024647546E+02  0.00000000000E+00 0.  1.
         25    2    1    2    0    0 -0.93631773517E+02 -0.61416108324E+02  0.17400893334E+03  0.24179130368E+03  0.12508028733E+03 0.  0.
         23    2    1    2    0    0  0.93631773517E+02  0.61416108324E+02  0.11502216974E+03  0.17528909450E+03  0.70408236336E+02 0.  0.
          5    1    3    3  502    0 -0.57496488631E+02  0.18663022911E+02  0.13002912806E+03  0.14345452650E+03  0.41800000000E+01 0.  1.
         -5    1    3    3    0  502 -0.36135284886E+02 -0.80079131236E+02  0.43979805283E+02  0.98336777179E+02  0.41800000000E+01 0.  1.
        -11    1    4    4    0    0  0.42665495476E+02  0.66702371792E+02  0.55200675058E+02  0.96522875184E+02  0.00000000000E+00 0.  1.
         11    1    4    4    0    0  0.50966278041E+02 -0.52862634677E+01  0.59821494681E+02  0.78766219312E+02  0.00000000000E+00 0. -1.
</event>
<event>
 8    1  0.6692409E-009  0.1008005E+03  0.7561462E-02  0.1278622E+00
         -1   -1    0    0    0  501 -0.00000000000E+00  0.00000000000E+00  0.90174512299E+03  0.90174512299E+03  0.00000000000E+00 0.  1.
          1   -1    0    0  501    0  0.00000000000E+00 -0.00000000000E+00 -0.19220935536E+02  0.19220935536E+02  0.00000000000E+00 0. -1.
         25    2    1    2    0    0  0.24223089344E+02  0.22885594821E+02  0.73379839964E+03  0.74512962014E+03  0.12509017146E+03 0.  0.
         23    2    1    2    0    0 -0.24223089344E+02 -0.22885594821E+02  0.14872578781E+03  0.17583643838E+03  0.87684574436E+02 0.  0.
          5    1    3    3  502    0 -0.41206432276E+02  0.12217940745E+02  0.11611216388E+03  0.12388202105E+03  0.41800000000E+01 0.  1.
         -5    1    3    3    0  502  0.65429521620E+02  0.10667654076E+02  0.61768623575E+03  0.62124759910E+03  0.41800000000E+01 0.  1.
        -11    1    4    4    0    0  0.73995706050E+01  0.29713133250E+02  0.66692560576E+02  0.73386112916E+02  0.00000000000E+00 0. -1.
         11    1    4    4    0    0 -0.31622659949E+02 -0.52598728071E+02  0.82033227237E+02  0.10245032547E+03  0.00000000000E+00 0.  1.
</event>
<event>
 8    1  0.6692409E-009  0.1282061E+03  0.7561462E-02  0.1230142E+00
         -1   -1    0    0    0  501 -0.00000000000E+00  0.00000000000E+00  0.29867580099E+02  0.29867580099E+02  0.00000000000E+00 0.  1.
          1   -1    0    0  501    0  0.00000000000E+00 -0.00000000000E+00 -0.62381665798E+03  0.62381665798E+03  0.00000000000E+00 0. -1.
         25    2    1    2    0    0  0.27569536023E+02  0.77711956869E+02 -0.30932267905E+03  0.34369601989E+03  0.12508879550E+03 0.  0.
         23    2    1    2    0    0 -0.27569536023E+02 -0.77711956869E+02 -0.28462639883E+03  0.30998821819E+03  0.91001543644E+02 0.  0.
          5    1    3    3  502    0  0.77598914630E+02  0.48166733035E+02 -0.19614365852E+03  0.21640571365E+03  0.41800000000E+01 0.  1.
         -5    1    3    3    0  502 -0.50029378607E+02  0.29545223834E+02 -0.11317902053E+03  0.12729030624E+03  0.41800000000E+01 0.  1.
        -11    1    4    4    0    0  0.22794808872E+02 -0.24571507399E+02 -0.17486883701E+03  0.17805188132E+03  0.00000000000E+00 0. -1.
         11    1    4    4    0    0 -0.50364344896E+02 -0.53140449470E+02 -0.10975756183E+03  0.13193633686E+03  0.00000000000E+00 0.  1.
</event>
<event>
 8    1  0.6692409E-009  0.1319300E+03  0.7561462E-02  0.1224620E+00
          1   -1    0    0  501    0  0.00000000000E+00  0.00000000000E+00  0.12951573030E+03  0.12951573030E+03  0.00000000000E+00 0. -1.
         -1   -1    0    0    0  501 -0.00000000000E+00 -0.00000000000E+00 -0.18872736628E+03  0.18872736628E+03  0.00000000000E+00 0.  1.
         25    2    1    2    0    0  0.70204073782E+01  0.98859897066E+02  0.21708839448E+02  0.16106273985E+03  0.12508943637E+03 0.  0.
         23    2    1    2    0    0 -0.70204073782E+01 -0.98859897066E+02 -0.80920475425E+02  0.15718035674E+03  0.91296088814E+02 0.  0.
          5    1    3    3  502    0  0.62128057970E+02  0.24619708739E+02  0.65702719605E+01  0.67280506234E+02  0.41800000000E+01 0.  1.
         -5    1    3    3    0  502 -0.55107650592E+02  0.74240188327E+02  0.15138567487E+02  0.93782233617E+02  0.41800000000E+01 0.  1.
        -11    1    4    4    0    0  0.70387482617E+01 -0.82407623966E+02 -0.10333843826E+02  0.83350757603E+02  0.00000000000E+00 0. -1.
         11    1    4    4    0    0 -0.14059155640E+02 -0.16452273100E+02 -0.70586631599E+02  0.73829599132E+02  0.00000000000E+00 0.  1.
</event>
<event>
 8    1  0.6692409E-009  0.9932065E+02  0.7561462E-02  0.1281731E+00
          1   -1    0    0  501    0  0.00000000000E+00  0.00000000000E+00  0.30018516152E+03  0.30018516152E+03  0.00000000000E+00 0. -1.
         -1   -1    0    0    0  501 -0.00000000000E+00 -0.00000000000E+00 -0.74669644925E+02  0.74669644925E+02  0.00000000000E+00 0.  1.
         25    2    1    2    0    0 -0.82219228812E+02 -0.44422677360E+02  0.65706359481E+02  0.16940521669E+03  0.12508967149E+03 0.  0.
         23    2    1    2    0    0  0.82219228812E+02  0.44422677360E+02  0.15980915711E+03  0.20544958976E+03  0.89090916397E+02 0.  0.
          5    1    3    3  502    0 -0.14478031086E+02 -0.24079943678E+02  0.90098870741E+02  0.94470820789E+02  0.41800000000E+01 0.  1.
         -5    1    3    3    0  502 -0.67741197726E+02 -0.20342733682E+02 -0.24392511260E+02  0.74934395898E+02  0.41800000000E+01 0.  1.
        -11    1    4    4    0    0  0.32180083136E+02 -0.42983379623E+00  0.10441509468E+00  0.32183123066E+02  0.00000000000E+00 0.  1.
         11    1    4    4    0    0  0.50039145675E+02  0.44852511156E+02  0.15970474202E+03  0.17326646669E+03  0.00000000000E+00 0. -1.
</event>
<event>
 8    1  0.6692409E-009  0.9523381E+02  0.7561462E-02  0.1290650E+00
         -1   -1    0    0    0  501 -0.00000000000E+00  0.00000000000E+00  0.56070831151E+02  0.56070831151E+02  0.00000000000E+00 0.  1.
          1   -1    0    0  501    0  0.00000000000E+00 -0.00000000000E+00 -0.36565959776E+03  0.36565959776E+03  0.00000000000E+00 0. -1.
         25    2    1    2    0    0  0.24036130317E+02  0.53105971365E+02 -0.61205482245E+02  0.15096833667E+03  0.12508935951E+03 0.  0.
         23    2    1    2    0    0 -0.24036130317E+02 -0.53105971365E+02 -0.24838328437E+03  0.27076209225E+03  0.90663525686E+02 0.  0.
          5    1    3    3  502    0  0.33364243870E+02  0.62271343051E+02  0.15996435431E+02  0.72555160264E+02  0.41800000000E+01 0. -1.
         -5    1    3    3    0  502 -0.93281135530E+01 -0.91653716864E+01 -0.77201917676E+02  0.78413176402E+02  0.41800000000E+01 0. -1.
        -11    1    4    4    0    0 -0.19570263768E+01 -0.74911416492E+02 -0.19653617078E+03  0.21033786320E+03  0.00000000000E+00 0.  1.
         11    1    4    4    0    0 -0.22079103941E+02  0.21805445127E+02 -0.51847113591E+02  0.60424229045E+02  0.00000000000E+00 0. -1.
</event>
<event>
 8    1  0.6692409E-009  0.1565456E+03  0.7561462E-02  0.1192653E+00
         -1   -1    0    0    0  501 -0.00000000000E+00  0.00000000000E+00  0.43315944057E+02  0.43315944057E+02  0.00000000000E+00 0.  1.
          1   -1    0    0  501    0  0.00000000000E+00 -0.00000000000E+00 -0.10937434461E+04  0.10937434461E+04  0.00000000000E+00 0. -1.
         25    2    1    2    0    0  0.11120121125E+03 -0.66453307437E+02 -0.90029047413E+03  0.91812420538E+03  0.12508943696E+03 0.  0.
         23    2    1    2    0    0 -0.11120121125E+03  0.66453307437E+02 -0.15013702790E+03  0.21893518477E+03  0.92788665947E+02 0.  0.
          5    1    3    3  502    0 -0.13332097993E+02 -0.51647051144E+02 -0.22494205168E+03  0.23121756365E+03  0.41800000000E+01 0. -1.
         -5    1    3    3    0  502  0.12453330925E+03 -0.14806256293E+02 -0.67534842246E+03  0.68690664173E+03  0.41800000000E+01 0. -1.
        -11    1    4    4    0    0 -0.49036199746E+02  0.49490877585E+02 -0.18052445375E+02  0.71970734563E+02  0.00000000000E+00 0.  1.
         11    1    4    4    0    0 -0.62165011508E+02  0.16962429853E+02 -0.13208458253E+03  0.14696445020E+03  0.00000000000E+00 0. -1.
</event>
<event>
 8    1  0.6692409E-009  0.1055903E+03  0.7561462E-02  0.1268961E+00
         -1   -1    0    0    0  501 -0.00000000000E+00  0.00000000000E+00  0.95650426387E+02  0.95650426387E+02  0.00000000000E+00 0.  1.
          1   -1    0    0  501    0  0.00000000000E+00 -0.00000000000E+00 -0.20027208620E+03  0.20027208620E+03  0.00000000000E+00 0. -1.
         25    2    1    2    0    0  0.54653678467E+02  0.59320820402E+02 -0.27629725914E+02  0.15139306876E+03  0.12510185935E+03 0.  0.
         23    2    1    2    0    0 -0.54653678467E+02 -0.59320820402E+02 -0.76991933902E+02  0.14452944383E+03  0.91951171517E+02 0.  0.
          5    1    3    3  502    0  0.68113560028E+02  0.52389823111E+01  0.26684322157E+02  0.73460393712E+02  0.41800000000E+01 0.  1.
         -5    1    3    3    0  502 -0.13459881561E+02  0.54081838091E+02 -0.54314048072E+02  0.77932675052E+02  0.41800000000E+01 0.  1.
        -11    1    4    4    0    0 -0.37820795192E+01 -0.25460655425E+02  0.18119532840E+02  0.31478033142E+02  0.00000000000E+00 0.  1.
         11    1    4    4    0    0 -0.50871598948E+02 -0.33860164976E+02 -0.95111466742E+02  0.11305141068E+03  0.00000000000E+00 0. -1.
</event>
<event>
 8    1  0.6692409E-009  0.2481547E+03  0.7561462E-02  0.1114477E+00
         -2   -1    0    0    0  501 -0.00000000000E+00  0.00000000000E+00  0.99559487236E+02  0.99559487236E+02  0.00000000000E+00 0.  1.
          2   -1    0    0  501    0  0.00000000000E+00 -0.00000000000E+00 -0.76810243708E+03  0.76810243708E+03  0.00000000000E+00 0. -1.
         25    2    1    2    0    0  0.20762692923E+03  0.11112493605E+03 -0.49254809656E+03  0.56009680106E+03  0.12508839268E+03 0.  0.
         23    2    1    2    0    0 -0.20762692923E+03 -0.11112493605E+03 -0.17599485328E+03  0.30756512325E+03  0.90357199502E+02 0.  0.
          5    1    3    3  502    0  0.17712884076E+02  0.61962302728E+02 -0.17812805454E+03  0.18947334756E+03  0.41800000000E+01 0. -1.
         -5    1    3    3    0  502  0.18991404516E+03  0.49162633323E+02 -0.31442004202E+03  0.37062345350E+03  0.41800000000E+01 0. -1.
        -11    1    4    4    0    0 -0.18961555775E+03 -0.10059121980E+03 -0.18636798280E+03  0.28426339591E+03  0.00000000000E+00 0. -1.
         11    1    4    4    0    0 -0.18011371489E+02 -0.10533716255E+02  0.10373129520E+02  0.23301727341E+02  0.00000000000E+00 0.  1.
</event>
<event>
 8    1  0.6692409E-009  0.1861401E+03  0.7561462E-02  0.1161989E+00
          1   -1    0    0  501    0  0.00000000000E+00  0.00000000000E+00  0.94824553225E+03  0.94824553225E+03  0.00000000000E+00 0. -1.
         -1   -1    0    0    0  501 -0.00000000000E+00 -0.00000000000E+00 -0.44469474143E+02  0.44469474143E+02  0.00000000000E+00 0.  1.
         25    2    1    2    0    0  0.14045318580E+03 -0.69898269629E+02  0.64782518392E+03  0.67818706381E+03  0.12508940445E+03 0.  0.
         23    2    1    2    0    0 -0.14045318580E+03  0.69898269629E+02  0.25595087419E+03  0.31452794259E+03  0.93830225249E+02 0.  0.
          5    1    3    3  502    0  0.12347710031E+03 -0.97105980755E+02  0.42682683877E+03  0.45483490245E+03  0.41800000000E+01 0. -1.
         -5    1    3    3    0  502  0.16976085485E+02  0.27207711126E+02  0.22099834515E+03  0.22335216135E+03  0.41800000000E+01 0. -1.
        -11    1    4    4    0    0 -0.86903666914E+02 -0.90799542964E+01  0.12358221104E+03  0.15135143137E+03  0.00000000000E+00 0.  1.
         11    1    4    4    0    0 -0.53549518881E+02  0.78978223925E+02  0.13236866315E+03  0.16317651121E+03  0.00000000000E+00 0. -1.
</event>
<event>
 8    1  0.6692409E-009  0.7229614E+02  0.7561462E-02  0.1352455E+00
         -2   -1    0    0    0  501 -0.00000000000E+00  0.00000000000E+00  0.14344544534E+03  0.14344544534E+03  0.00000000000E+00 0.  1.
          2   -1    0    0  501    0  0.00000000000E+00 -0.00000000000E+00 -0.97122632392E+02  0.97122632392E+02  0.00000000000E+00 0. -1.
         25    2    1    2    0    0  0.22329570947E+02  0.37805836677E+02  0.40557749203E+02  0.13863010353E+03  0.12508190740E+03 0.  0.
         23    2    1    2    0    0 -0.22329570947E+02 -0.37805836677E+02  0.57650637461E+01  0.10193797421E+03  0.91816249104E+02 0.  0.
          5    1    3    3  502    0 -0.11503120512E+02  0.46301444263E+02  0.75287555708E+02  0.89229109414E+02  0.41800000000E+01 0. -1.
         -5    1    3    3    0  502  0.33832691459E+02 -0.84956075854E+01 -0.34729806505E+02  0.49400994114E+02  0.41800000000E+01 0. -1.
        -11    1    4    4    0    0 -0.22023329384E+01 -0.41112031501E+02 -0.36492093971E+02  0.55015655290E+02  0.00000000000E+00 0. -1.
         11    1    4    4    0    0 -0.20127238009E+02  0.33061948240E+01  0.42257157717E+02  0.46922318915E+02  0.00000000000E+00 0.  1.
</event>
<event>
 8    1  0.6692409E-009  0.8858959E+02  0.7561462E-02  0.1306304E+00
          2   -1    0    0  501    0  0.00000000000E+00  0.00000000000E+00  0.57723386322E+03  0.57723386322E+03  0.00000000000E+00 0. -1.
         -2   -1    0    0    0  501 -0.00000000000E+00 -0.00000000000E+00 -0.32739208496E+02  0.32739208496E+02  0.00000000000E+00 0.  1.
         25    2    1    2    0    0 -0.66526656222E+02  0.27228401340E+02  0.39487466546E+03  0.42040605829E+03  0.12509224834E+03 0.  0.
         23    2    1    2    0    0  0.66526656222E+02 -0.27228401340E+02  0.14961998927E+03  0.18956701343E+03  0.91555063025E+02 0.  0.
          5    1    3    3  502    0 -0.68679549686E+02  0.10123378845E+01  0.84884421054E+02  0.10927370549E+03  0.41800000000E+01 0.  1.
         -5    1    3    3    0  502  0.21528934638E+01  0.26216063456E+02  0.30999024440E+03  0.31113235280E+03  0.41800000000E+01 0.  1.
        -11    1    4    4    0    0  0.25677274776E+02  0.89212023399E+01  0.12805954374E+03  0.13091278407E+03  0.00000000000E+00 0. -1.
         11    1    4    4    0    0  0.40849381446E+02 -0.36149603680E+02  0.21560445535E+02  0.58654229365E+02  0.00000000000E+00 0.  1.
</event>
<event>
 8    1  0.6692409E-009  0.1559636E+03  0.7561462E-02  0.1193331E+00
          2   -1    0    0  501    0  0.00000000000E+00  0.00000000000E+00  0.12214203773E+04  0.12214203773E+04  0.00000000000E+00 0.  1.
         -2   -1    0    0    0  501 -0.00000000000E+00 -0.00000000000E+00 -0.21014867496E+02  0.21014867496E+02  0.00000000000E+00 0. -1.
         25    2    1    2    0    0 -0.11118887437E+03  0.31761125920E+02  0.77724348818E+03  0.79569714643E+03  0.12511903935E+03 0.  0.
         23    2    1    2    0    0  0.11118887437E+03 -0.31761125920E+02  0.42316202157E+03  0.44673809832E+03  0.84481341636E+02 0.  0.
          5    1    3    3  502    0 -0.25147260539E+02 -0.47051292608E+02  0.25723238109E+03  0.26273975552E+03  0.41800000000E+01 0.  1.
         -5    1    3    3    0  502 -0.86041613834E+02  0.78812418528E+02  0.52001110710E+03  0.53295739091E+03  0.41800000000E+01 0.  1.
        -11    1    4    4    0    0  0.58102040043E+02 -0.58298140258E+02  0.27749858601E+03  0.28944772491E+03  0.00000000000E+00 0. -1.
         11    1    4    4    0    0  0.53086834330E+02  0.26537014338E+02  0.14566343556E+03  0.15729037341E+03  0.00000000000E+00 0.  1.
</event>
<event>
 7    1  0.6692409E-009  0.1521873E+03  0.7561462E-02  0.1197811E+00
         -2   -1    0    0    0  501 -0.00000000000E+00  0.00000000000E+00  0.86394442049E+02  0.86394442049E+02  0.00000000000E+00 0.  1.
          2   -1    0    0  501    0  0.00000000000E+00 -0.00000000000E+00 -0.26891829126E+03  0.26891829126E+03  0.00000000000E+00 0. -1.
         25    2    1    2    0    0  0.78507115021E+02 -0.26037442226E+02 -0.91433431890E+02  0.17563880112E+03  0.12509036927E+03 0.  0.
          5    1    3    3  502    0  0.74801227590E+02 -0.71581623665E+02 -0.69605149527E+02  0.12482588568E+03  0.41800000000E+01 0. -1.
         -5    1    3    3    0  502  0.37058874311E+01  0.45544181438E+02 -0.21828282363E+02  0.50812915440E+02  0.41800000000E+01 0. -1.
        -11    1    1    2    0    0 -0.42051372664E+02 -0.53103868198E+02 -0.39673726806E+02  0.78500594642E+02  0.00000000000E+00 0.  1.
         11    1    1    2    0    0 -0.36455742357E+02  0.79141310424E+02 -0.51416690515E+02  0.10117333755E+03  0.00000000000E+00 0. -1.
</event>
<event>
 8    1  0.6692409E-009  0.7370041E+02  0.7561462E-02  0.1347943E+00
          1   -1    0    0  501    0  0.00000000000E+00  0.00000000000E+00  0.60037371188E+03  0.60037371188E+03  0.00000000000E+00 0.  1.
         -1   -1    0    0    0  501 -0.00000000000E+00 -0.00000000000E+00 -0.23315043543E+02  0.23315043543E+02  0.00000000000E+00 0. -1.
         25    2    1    2    0    0 -0.25032020445E+02 -0.19307190167E+02  0.42543378429E+03  0.44456671504E+03  0.12508512966E+03 0.  0.
         23    2    1    2    0    0  0.25032020445E+02  0.19307190167E+02  0.15162488404E+03  0.17912204038E+03  0.89973497486E+02 0.  0.
          5    1    3    3  502    0 -0.10172414472E+02  0.19182974906E+02  0.38821462154E+03  0.38884383668E+03  0.41800000000E+01 0.  1.
         -5    1    3    3    0  502 -0.14859605973E+02 -0.38490165073E+02  0.37219162750E+02  0.55722878361E+02  0.41800000000E+01 0.  1.
        -11    1    4    4    0    0  0.49539088611E+01 -0.30090989798E+02  0.10133926107E+03  0.10582842110E+03  0.00000000000E+00 0.  1.
         11    1    4    4    0    0  0.20078111584E+02  0.49398179965E+02  0.50285622975E+02  0.73293619276E+02  0.00000000000E+00 0. -1.
</event>
<event>
 8    1  0.6692409E-009  0.1067746E+03  0.7561462E-02  0.1266662E+00
         -2   -1    0    0    0  501 -0.00000000000E+00  0.00000000000E+00  0.17648652466E+02  0.17648652466E+02  0.00000000000E+00 0.  1.
          2   -1    0    0  501    0  0.00000000000E+00 -0.00000000000E+00 -0.32732716385E+04  0.32732716385E+04  0.00000000000E+00 0. -1.
         25    2    1    2    0    0 -0.26618825403E+02 -0.16794537794E+01 -0.31580478270E+04  0.31606368285E+04  0.12509077425E+03 0.  0.
         23    2    1    2    0    0  0.26618825403E+02  0.16794537794E+01 -0.97575159093E+02  0.13028346250E+03  0.82106555750E+02 0.  0.
          5    1    3    3  502    0 -0.35665112410E+01  0.60862276662E+02 -0.15254413969E+04  0.15266649484E+04  0.41800000000E+01 0.  1.
         -5    1    3    3    0  502 -0.23052314162E+02 -0.62541730441E+02 -0.16326064300E+04  0.16339718801E+04  0.41800000000E+01 0.  1.
        -11    1    4    4    0    0  0.32136735641E+02  0.37513709739E+02 -0.48110760176E+02  0.68954285151E+02  0.00000000000E+00 0.  1.
         11    1    4    4    0    0 -0.55179102378E+01 -0.35834255959E+02 -0.49464398918E+02  0.61329177345E+02  0.00000000000E+00 0. -1.
</event>
<event>
 8    1  0.6692409E-009  0.9299152E+02  0.7561462E-02  0.1295765E+00
          4   -1    0    0  501    0  0.00000000000E+00  0.00000000000E+00  0.42456150711E+02  0.42456150711E+02  0.00000000000E+00 0. -1.
         -4   -1    0    0    0  501 -0.00000000000E+00 -0.00000000000E+00 -0.29304628130E+03  0.29304628130E+03  0.00000000000E+00 0.  1.
         25    2    1    2    0    0  0.14659570649E+02 -0.28441851636E+02 -0.13669107381E+03  0.18802690903E+03  0.12508327996E+03 0.  0.
         23    2    1    2    0    0 -0.14659570649E+02  0.28441851636E+02 -0.11389905678E+03  0.14747552298E+03  0.88046537729E+02 0.  0.
          5    1    3    3  502    0  0.11787977767E+02 -0.63471735831E+02 -0.13820806475E+03  0.15259934217E+03  0.41800000000E+01 0.  1.
         -5    1    3    3    0  502  0.28715928818E+01  0.35029884195E+02  0.15169909408E+01  0.35427566864E+02  0.41800000000E+01 0.  1.
        -11    1    4    4    0    0  0.64009350120E+01 -0.26391656967E+02 -0.11638752570E+02  0.29545762604E+02  0.00000000000E+00 0.  1.
         11    1    4    4    0    0 -0.21060505661E+02  0.54833508603E+02 -0.10226030421E+03  0.11792976038E+03  0.00000000000E+00 0. -1.
</event>
<event>
 8    1  0.6692409E-009  0.1082039E+03  0.7561462E-02  0.1263933E+00
         -2   -1    0    0    0  501 -0.00000000000E+00  0.00000000000E+00  0.20839332333E+04  0.20839332333E+04  0.00000000000E+00 0.  1.
          2   -1    0    0  501    0  0.00000000000E+00 -0.00000000000E+00 -0.48734459194E+02  0.48734459194E+02  0.00000000000E+00 0. -1.
         25    2    1    2    0    0 -0.60095178570E+02 -0.89689910797E+02  0.19710553635E+04  0.19779684420E+04  0.12507677963E+03 0.  0.
         23    2    1    2    0    0  0.60095178570E+02  0.89689910797E+02  0.64143410621E+02  0.15469925055E+03  0.90342517176E+02 0.  0.
          5    1    3    3  502    0 -0.27840228221E+02 -0.46840087730E+02  0.17350149701E+04  0.17358754250E+04  0.41800000000E+01 0.  1.
         -5    1    3    3    0  502 -0.32254950349E+02 -0.42849823067E+02  0.23604039339E+03  0.24209301698E+03  0.41800000000E+01 0.  1.
        -11    1    4    4    0    0  0.32824999821E+02  0.49454244597E+02  0.83443609604E+02  0.10240136184E+03  0.00000000000E+00 0.  1.
         11    1    4    4    0    0  0.27270178749E+02  0.40235666200E+02 -0.19300198984E+02  0.52297888719E+02  0.00000000000E+00 0. -1.
</event>
<event>
 8    1  0.6692409E-009  0.1267135E+03  0.7561462E-02  0.1232415E+00
         -2   -1    0    0    0  501 -0.00000000000E+00  0.00000000000E+00  0.43591675904E+03  0.43591675904E+03  0.00000000000E+00 0.  1.
          2   -1    0    0  501    0  0.00000000000E+00 -0.00000000000E+00 -0.45963329785E+02  0.45963329785E+02  0.00000000000E+00 0. -1.
         25    2    1    2    0    0  0.55316040457E+01  0.68362802069E+02  0.31431767303E+03  0.34517822416E+03  0.12509330719E+03 0.  0.
         23    2    1    2    0    0 -0.55316040457E+01 -0.68362802069E+02  0.75635756222E+02  0.13670186466E+03  0.90898629437E+02 0.  0.
          5    1    3    3  502    0  0.63736458534E+02  0.38581902792E+02  0.13474779336E+03  0.15403032034E+03  0.41800000000E+01 0.  1.
         -5    1    3    3    0  502 -0.58204854488E+02  0.29780899277E+02  0.17956987967E+03  0.19114790381E+03  0.41800000000E+01 0.  1.
        -11    1    4    4    0    0  0.81839285066E+01  0.21178654322E+02  0.98548941689E+01  0.24751384280E+02  0.00000000000E+00 0.  1.
         11    1    4    4    0    0 -0.13715532552E+02 -0.89541456391E+02  0.65780862053E+02  0.11195048038E+03  0.00000000000E+00 0. -1.
</event>
<event>
 8    1  0.6692409E-009  0.2553081E+03  0.7561462E-02  0.1109995E+00
         -1   -1    0    0    0  501 -0.00000000000E+00  0.00000000000E+00  0.15426468743E+03  0.15426468743E+03  0.00000000000E+00 0.  1.
          1   -1    0    0  501    0  0.00000000000E+00 -0.00000000000E+00 -0.46632898187E+03  0.46632898187E+03  0.00000000000E+00 0. -1.
         25    2    1    2    0    0  0.20590895972E+03 -0.11014696401E+03 -0.74155046122E+02  0.27509482361E+03  0.12508931905E+03 0.  0.
         23    2    1    2    0    0 -0.20590895972E+03  0.11014696401E+03 -0.23790924832E+03  0.34549884568E+03  0.90762263968E+02 0.  0.
          5    1    3    3  502    0  0.80753443732E+02  0.16098902124E+02 -0.39032726665E-01  0.82448573352E+02  0.41800000000E+01 0. -1.
         -5    1    3    3    0  502  0.12515551598E+03 -0.12624586614E+03 -0.74116013395E+02  0.19264625026E+03  0.41800000000E+01 0. -1.
        -11    1    4    4    0    0 -0.47744363098E+01 -0.13451420275E+02 -0.16829870386E+02  0.22067634370E+02  0.00000000000E+00 0.  1.
         11    1    4    4    0    0 -0.20113452341E+03  0.12359838429E+03 -0.22107937793E+03  0.32343121131E+03  0.00000000000E+00 0. -1.
</event>
<event>
 8    1  0.6692409E-009  0.1728315E+03  0.7561462E-02  0.1174927E+00
         -2   -1    0    0    0  501 -0.00000000000E+00  0.00000000000E+00  0.18834913845E+02  0.18834913845E+02  0.00000000000E+00 0.  1.
          2   -1    0    0  501    0  0.00000000000E+00 -0.00000000000E+00 -0.19700516030E+04  0.19700516030E+04  0.00000000000E+00 0. -1.
         25    2    1    2    0    0  0.73663280261E+02  0.13393356796E+03 -0.13938202211E+04  0.14077449695E+04  0.12508641407E+03 0.  0.
         23    2    1    2    0    0 -0.73663280261E+02 -0.13393356796E+03 -0.55739646806E+03  0.58114154732E+03  0.60582142079E+02 0.  0.
          5    1    3    3  502    0  0.49544516653E+02 -0.64869203320E+01 -0.24210356538E+03  0.24724147717E+03  0.41800000000E+01 0.  1.
         -5    1    3    3    0  502  0.24118763607E+02  0.14042048829E+03 -0.11517166557E+04  0.11605034924E+04  0.41800000000E+01 0.  1.
        -11    1    4    4    0    0 -0.31746398344E+02 -0.51359959388E+02 -0.33229967537E+03  0.33774066010E+03  0.00000000000E+00 0. -1.
         11    1    4    4    0    0 -0.41916881917E+02 -0.82573608568E+02 -0.22509679269E+03  0.24340088722E+03  0.00000000000E+00 0.  1.
</event>
<event>
 8    1  0.6692409E-009  0.1021878E+03  0.7561462E-02  0.1275762E+00
         -2   -1    0    0    0  501 -0.00000000000E+00  0.00000000000E+00  0.52663991673E+02  0.52663991673E+02  0.00000000000E+00 0.  1.
          2   -1    0    0  501    0  0.00000000000E+00 -0.00000000000E+00 -0.23428820319E+03  0.23428820319E+03  0.00000000000E+00 0. -1.
         25    2    1    2    0    0 -0.11957292242E+02 -0.22565297349E+01 -0.56249547580E+02  0.13768139794E+03  0.12507632458E+03 0.  0.
         23    2    1    2    0    0  0.11957292242E+02  0.22565297349E+01 -0.12537466394E+03  0.14927079692E+03  0.80093043968E+02 0.  0.
          5    1    3    3  502    0 -0.48509748795E+02  0.44607417887E+02 -0.27576339943E+02  0.71560774055E+02  0.41800000000E+01 0. -1.
         -5    1    3    3    0  502  0.36552456553E+02 -0.46863947622E+02 -0.28673207637E+02  0.66120623885E+02  0.41800000000E+01 0. -1.
        -11    1    4    4    0    0 -0.33383290507E+02  0.14055613134E+01 -0.70987896386E+02  0.78458276307E+02  0.00000000000E+00 0. -1.
         11    1    4    4    0    0  0.45340582749E+02  0.85096842148E+00 -0.54386767550E+02  0.70812520614E+02  0.00000000000E+00 0.  1.
</event>
<event>
 8    1  0.6692409E-009  0.8045658E+02  0.7561462E-02  0.1327761E+00
          2   -1    0    0  501    0  0.00000000000E+00  0.00000000000E+00  0.86366008614E+02  0.86366008614E+02  0.00000000000E+00 0. -1.
         -2   -1    0    0    0  501 -0.00000000000E+00 -0.00000000000E+00 -0.13832262840E+03  0.13832262840E+03  0.00000000000E+00 0.  1.
         25    2    1    2    0    0  0.28104999649E+01 -0.74062850069E+01 -0.37111295560E+02  0.13072042438E+03  0.12509128316E+03 0.  0.
         23    2    1    2    0    0 -0.28104999649E+01  0.74062850069E+01 -0.14845324224E+02  0.93968212635E+02  0.92449388137E+02 0.  0.
          5    1    3    3  502    0 -0.35112550777E+02  0.41203803664E+02  0.70718439383E+01  0.54755164461E+02  0.41800000000E+01 0.  1.
         -5    1    3    3    0  502  0.37923050742E+02 -0.48610088671E+02 -0.44183139498E+02  0.75965259916E+02  0.41800000000E+01 0.  1.
        -11    1    4    4    0    0 -0.15157411162E+02 -0.13659743761E+02 -0.48367827422E+02  0.52495546881E+02  0.00000000000E+00 0.  1.
         11    1    4    4    0    0  0.12346911197E+02  0.21066028767E+02  0.33522503198E+02  0.41472665755E+02  0.00000000000E+00 0. -1.
</event>
<event>
 8    1  0.6692409E-009  0.2117478E+03  0.7561462E-02  0.1140189E+00
         -1   -1    0    0    0  501 -0.00000000000E+00  0.00000000000E+00  0.62862203422E+02  0.62862203422E+02  0.00000000000E+00 0.  1.
          1   -1    0    0  501    0  0.00000000000E+00 -0.00000000000E+00 -0.78319539379E+03  0.78319539379E+03  0.00000000000E+00 0. -1.
         25    2    1    2    0    0 -0.18864924614E+03  0.32935791341E+02 -0.42680935673E+03  0.48423803409E+03  0.12508773822E+03 0.  0.
         23    2    1    2    0    0  0.18864924614E+03 -0.32935791341E+02 -0.29352383364E+03  0.36181956312E+03  0.89910238138E+02 0.  0.
          5    1    3    3  502    0 -0.12710915224E+03 -0.37536511363E+02 -0.21430407703E+03  0.25201078568E+03  0.41800000000E+01 0.  1.
         -5    1    3    3    0  502 -0.61540093901E+02  0.70472302704E+02 -0.21250527970E+03  0.23222724842E+03  0.41800000000E+01 0.  1.
        -11    1    4    4    0    0  0.17002950564E+03 -0.43935397184E+02 -0.20149419657E+03  0.26728311425E+03  0.00000000000E+00 0.  1.
         11    1    4    4    0    0  0.18619740498E+02  0.10999605843E+02 -0.92029637074E+02  0.94536448869E+02  0.00000000000E+00 0. -1.
</event>
<event>
 8    1  0.6692409E-009  0.8454630E+02  0.7561462E-02  0.1316623E+00
          1   -1    0    0  501    0  0.00000000000E+00  0.00000000000E+00  0.23788724966E+03  0.23788724966E+03  0.00000000000E+00 0. -1.
         -1   -1    0    0    0  501 -0.00000000000E+00 -0.00000000000E+00 -0.79757646126E+02  0.79757646126E+02  0.00000000000E+00 0.  1.
         25    2    1    2    0    0  0.16182990744E+02 -0.19196580939E+02  0.18078838625E+03  0.22127566164E+03  0.12509228562E+03 0.  0.
         23    2    1    2    0    0 -0.16182990744E+02  0.19196580939E+02 -0.22658782714E+02  0.96369234149E+02  0.90239741507E+02 0.  0.
          5    1    3    3  502    0 -0.25935742031E+02 -0.60925015102E+02  0.76714698465E+02  0.10142552706E+03  0.41800000000E+01 0. -1.
         -5    1    3    3    0  502  0.42118732774E+02  0.41728434164E+02  0.10407368779E+03  0.11985013458E+03  0.41800000000E+01 0. -1.
        -11    1    4    4    0    0 -0.13428650547E+02  0.29622821519E+02  0.29012881459E+02  0.43584257489E+02  0.00000000000E+00 0. -1.
         11    1    4    4    0    0 -0.27543401963E+01 -0.10426240580E+02 -0.51671664173E+02  0.52784976660E+02  0.00000000000E+00 0.  1.
</event>
<event>
 8    1  0.6692409E-009  0.9736086E+02  0.7561462E-02  0.1285946E+00
          1   -1    0    0  501    0  0.00000000000E+00  0.00000000000E+00  0.97675743573E+03  0.97675743573E+03  0.00000000000E+00 0. -1.
         -1   -1    0    0    0  501 -0.00000000000E+00 -0.00000000000E+00 -0.23056859166E+02  0.23056859166E+02  0.00000000000E+00 0.  1.
         25    2    1    2    0    0  0.39143964008E+02 -0.61752179723E+02  0.76299903888E+03  0.77663370787E+03  0.12508717460E+03 0.  0.
         23    2    1    2    0    0 -0.39143964008E+02  0.61752179723E+02  0.19070153769E+03  0.22318058703E+03  0.89982866877E+02 0.  0.
          5    1    3    3  502    0  0.47010165966E+02 -0.13400676477E+02  0.66676874440E+03  0.66857128621E+03  0.41800000000E+01 0. -1.
         -5    1    3    3    0  502 -0.78662019589E+01 -0.48351503247E+02  0.96230294476E+02  0.10806242166E+03  0.41800000000E+01 0. -1.
        -11    1    4    4    0    0 -0.56016662595E+02  0.39379688506E+02  0.65064103771E+02  0.94456148316E+02  0.00000000000E+00 0.  1.
         11    1    4    4    0    0  0.16872698587E+02  0.22372491217E+02  0.12563743392E+03  0.12872443871E+03  0.00000000000E+00 0. -1.
</event>
<event>
 8    1  0.6692409E-009  0.7569543E+02  0.7561462E-02  0.1341731E+00
         -1   -1    0    0    0  501 -0.00000000000E+00  0.00000000000E+00  0.70009403855E+02  0.70009403855E+02  0.00000000000E+00 0.  1.
          1   -1    0    0  501    0  0.00000000000E+00 -0.00000000000E+00 -0.18548469778E+03  0.18548469778E+03  0.00000000000E+00 0. -1.
         25    2    1    2    0    0 -0.41016653180E+01 -0.16339652030E+02 -0.99833282136E+02  0.16092891666E+03  0.12509046370E+03 0.  0.
         23    2    1    2    0    0  0.41016653180E+01  0.16339652030E+02 -0.15642011790E+02  0.94565184975E+02  0.91728369601E+02 0.  0.
          5    1    3    3  502    0 -0.58856038128E+02  0.16101086290E+02 -0.37473126430E+02  0.71728556435E+02  0.41800000000E+01 0.  1.
         -5    1    3    3    0  502  0.54754372810E+02 -0.32440738320E+02 -0.62360155706E+02  0.89200360225E+02  0.41800000000E+01 0.  1.
        -11    1    4    4    0    0 -0.80199324107E+01  0.98415239113E+01  0.37542577366E+02  0.39631048737E+02  0.00000000000E+00 0.  1.
         11    1    4    4    0    0  0.12121597729E+02  0.64981281191E+01 -0.53184589156E+02  0.54934136238E+02  0.00000000000E+00 0. -1.
</event>
<event>
 8    1  0.6692409E-009  0.7005178E+02  0.7561462E-02  0.1359917E+00
          2   -1    0    0  501    0  0.00000000000E+00  0.00000000000E+00  0.40693853398E+03  0.40693853398E+03  0.00000000000E+00 0. -1.
         -2   -1    0    0    0  501 -0.00000000000E+00 -0.00000000000E+00 -0.53909851843E+02  0.53909851843E+02  0.00000000000E+00 0.  1.
         25    2    1    2    0    0  0.20124602378E+02  0.71236115657E+01  0.34542504439E+03  0.36799729691E+03  0.12509118186E+03 0.  0.
         23    2    1    2    0    0 -0.20124602378E+02 -0.71236115657E+01  0.76036377529E+01  0.92851088917E+02  0.90043122688E+02 0.  0.
          5    1    3    3  502    0  0.10081720928E+02  0.40013620083E+02  0.32530042127E+03  0.32793378503E+03  0.41800000000E+01 0.  1.
         -5    1    3    3    0  502  0.10042881450E+02 -0.32890008517E+02  0.20124623119E+02  0.40063511875E+02  0.41800000000E+01 0.  1.
        -11    1    4    4    0    0  0.50369708098E-01 -0.31975701715E+02 -0.29738228034E+02  0.43667038414E+02  0.00000000000E+00 0. -1.
         11    1    4    4    0    0 -0.20174972086E+02  0.24852090150E+02  0.37341865786E+02  0.49184050503E+02  0.00000000000E+00 0.  1.
</event>
<event>
 8    1  0.6692409E-009  0.1338455E+03  0.7561462E-02  0.1221859E+00
          1   -1    0    0  501    0  0.00000000000E+00  0.00000000000E+00  0.15215275587E+03  0.15215275587E+03  0.00000000000E+00 0. -1.
         -1   -1    0    0    0  501 -0.00000000000E+00 -0.00000000000E+00 -0.11995781923E+03  0.11995781923E+03  0.00000000000E+00 0.  1.
         25    2    1    2    0    0 -0.13212032120E+02  0.78276098176E+02  0.33982516450E+02  0.15200171655E+03  0.12509198644E+03 0.  0.
         23    2    1    2    0    0  0.13212032120E+02 -0.78276098176E+02 -0.17875798186E+01  0.12010885855E+03  0.90117906776E+02 0.  0.
          5    1    3    3  502    0 -0.35481199218E+02  0.10620560631E+03  0.28505192348E+02  0.11562250948E+03  0.41800000000E+01 0.  1.
         -5    1    3    3    0  502  0.22269167098E+02 -0.27929508129E+02  0.54773241019E+01  0.36379207068E+02  0.41800000000E+01 0.  1.
        -11    1    4    4    0    0  0.51241543550E+02 -0.34959301098E+02 -0.59567390496E+01  0.62316380341E+02  0.00000000000E+00 0.  1.
         11    1    4    4    0    0 -0.38029511430E+02 -0.43316797078E+02  0.41691592310E+01  0.57792478208E+02  0.00000000000E+00 0. -1.
</event>
<event>
 8    1  0.6692409E-009  0.1099706E+03  0.7561462E-02  0.1260624E+00
          1   -1    0    0  501    0  0.00000000000E+00  0.00000000000E+00  0.20858579001E+03  0.20858579001E+03  0.00000000000E+00 0. -1.
         -1   -1    0    0    0  501 -0.00000000000E+00 -0.00000000000E+00 -0.10467468703E+03  0.10467468703E+03  0.00000000000E+00 0.  1.
         25    2    1    2    0    0  0.40725733144E+02  0.47098930328E+02 -0.24564804683E+02  0.14186995978E+03  0.12508701483E+03 0.  0.
         23    2    1    2    0    0 -0.40725733144E+02 -0.47098930328E+02  0.12847590767E+03  0.17139051726E+03  0.94824870039E+02 0.  0.
          5    1    3    3  502    0  0.25723764705E+02 -0.32134468758E+02 -0.42327771353E+02  0.59189938171E+02  0.41800000000E+01 0.  1.
         -5    1    3    3    0  502  0.15001968439E+02  0.79233399086E+02  0.17762966670E+02  0.82680021606E+02  0.41800000000E+01 0.  1.
        -11    1    4    4    0    0 -0.25613262747E+02 -0.67633838877E+02  0.47573677805E+02  0.86565756565E+02  0.00000000000E+00 0.  1.
         11    1    4    4    0    0 -0.15112470397E+02  0.20534908548E+02  0.80902229860E+02  0.84824760695E+02  0.00000000000E+00 0. -1.
</event>
<event>
 8    1  0.6692409E-009  0.1496413E+03  0.7561462E-02  0.1200914E+00
         -1   -1    0    0    0  501 -0.00000000000E+00  0.00000000000E+00  0.11355460245E+03  0.11355460245E+03  0.00000000000E+00 0.  1.
          1   -1    0    0  501    0  0.00000000000E+00 -0.00000000000E+00 -0.28553675648E+03  0.28553675648E+03  0.00000000000E+00 0. -1.
         25    2    1    2    0    0 -0.11707163107E+03 -0.43363472353E+02 -0.16994884743E+03  0.24518536858E+03  0.12508835552E+03 0.  0.
         23    2    1    2    0    0  0.11707163107E+03  0.43363472353E+02 -0.20333065950E+01  0.15390599035E+03  0.89982009282E+02 0.  0.
          5    1    3    3  502    0  0.79833378366E+01  0.76256812974E+01  0.13123448483E+02  0.17651685426E+02  0.41800000000E+01 0. -1.
         -5    1    3    3    0  502 -0.12505496891E+03 -0.50989153650E+02 -0.18307229591E+03  0.22753368315E+03  0.41800000000E+01 0. -1.
        -11    1    4    4    0    0  0.81265416516E+02  0.70381534136E+02  0.84606675415E+01  0.10783882030E+03  0.00000000000E+00 0. -1.
         11    1    4    4    0    0  0.35806214556E+02 -0.27018061783E+02 -0.10493974137E+02  0.46067170051E+02  0.00000000000E+00 0.  1.
</event>
<event>
 8    1  0.6692409E-009  0.1482287E+03  0.7561462E-02  0.1202667E+00
          1   -1    0    0  501    0  0.00000000000E+00  0.00000000000E+00  0.64328700212E+03  0.64328700212E+03  0.00000000000E+00 0. -1.
         -1   -1    0    0    0  501 -0.00000000000E+00 -0.00000000000E+00 -0.54942107697E+02  0.54942107697E+02  0.00000000000E+00 0.  1.
         25    2    1    2    0    0  0.95977108221E+02  0.83539214059E+02  0.14983831657E+03  0.23299768762E+03  0.12508395476E+03 0.  0.
         23    2    1    2    0    0 -0.95977108221E+02 -0.83539214059E+02  0.43850657785E+03  0.46523142219E+03  0.89229209273E+02 0.  0.
          5    1    3    3  502    0  0.67751581233E+02  0.92775234447E+02  0.44160862126E+02  0.12314696517E+03  0.41800000000E+01 0.  1.
         -5    1    3    3    0  502  0.28225526988E+02 -0.92360203878E+01  0.10567745444E+03  0.10985072246E+03  0.41800000000E+01 0.  1.
        -11    1    4    4    0    0  0.13398755412E+02  0.75646622170E+00  0.78700176741E+02  0.79836186700E+02  0.00000000000E+00 0. -1.
         11    1    4    4    0    0 -0.10937586363E+03 -0.84295680281E+02  0.35980640111E+03  0.38539523549E+03  0.00000000000E+00 0.  1.
</event>
<event>
 8    1  0.6692409E-009  0.1116271E+03  0.7561462E-02  0.1257586E+00
          1   -1    0    0  501    0  0.00000000000E+00  0.00000000000E+00  0.11109934583E+03  0.11109934583E+03  0.00000000000E+00 0. -1.
         -1   -1    0    0    0  501 -0.00000000000E+00 -0.00000000000E+00 -0.36097597742E+03  0.36097597742E+03  0.00000000000E+00 0.  1.
         25    2    1    2    0    0 -0.56273293583E+02 -0.24475341539E+02  0.53363346625E+02  0.14919967646E+03  0.12508865168E+03 0.  0.
         23    2    1    2    0    0  0.56273293583E+02  0.24475341539E+02 -0.30323997822E+03  0.32287564679E+03  0.92349731926E+02 0.  0.
          5    1    3    3  502    0  0.17888082768E+02  0.33873399519E+02 -0.39170208728E+01  0.38732494790E+02  0.41800000000E+01 0. -1.
         -5    1    3    3    0  502 -0.74161376351E+02 -0.58348741058E+02  0.57280367497E+02  0.11046718167E+03  0.41800000000E+01 0. -1.
        -11    1    4    4    0    0  0.34074550389E+02 -0.20742339986E+02 -0.46615686812E+02  0.61354233018E+02  0.00000000000E+00 0. -1.
         11    1    4    4    0    0  0.22198743194E+02  0.45217681525E+02 -0.25662429141E+03  0.26152141378E+03  0.00000000000E+00 0.  1.
</event>
<event>
 8    1  0.6692409E-009  0.1209381E+03  0.7561462E-02  0.1241557E+00
         -2   -1    0    0    0  501 -0.00000000000E+00  0.00000000000E+00  0.15978092290E+03  0.15978092290E+03  0.00000000000E+00 0.  1.
          2   -1    0    0  501    0  0.00000000000E+00 -0.00000000000E+00 -0.10364285208E+03  0.10364285208E+03  0.00000000000E+00 0. -1.
         25    2    1    2    0    0 -0.45350429469E+02 -0.28804553009E+02  0.75318448219E+02  0.15558927637E+03  0.12509512601E+03 0.  0.
         23    2    1    2    0    0  0.45350429469E+02  0.28804553009E+02 -0.19180377405E+02  0.10783449861E+03  0.91509717988E+02 0.  0.
          5    1    3    3  502    0 -0.11707469543E+02  0.49371733887E+02  0.26866582014E+02  0.57566644676E+02  0.41800000000E+01 0.  1.
         -5    1    3    3    0  502 -0.33642959926E+02 -0.78176286897E+02  0.48451866205E+02  0.98022631694E+02  0.41800000000E+01 0.  1.
        -11    1    4    4    0    0 -0.11044616754E+02  0.45593157748E+02 -0.40929324777E+01  0.47090038107E+02  0.00000000000E+00 0.  1.
         11    1    4    4    0    0  0.56395046223E+02 -0.16788604738E+02 -0.15087444928E+02  0.60744460505E+02  0.00000000000E+00 0. -1.
</event>
<event>
 8    1  0.6692409E-009  0.1003790E+03  0.7561462E-02  0.1279501E+00
         -2   -1    0    0    0  501 -0.00000000000E+00  0.00000000000E+00  0.27610812754E+02  0.27610812754E+02  0.00000000000E+00 0.  1.
          2   -1    0    0  501    0  0.00000000000E+00 -0.00000000000E+00 -0.50770568459E+03  0.50770568459E+03  0.00000000000E+00 0. -1.
         25    2    1    2    0    0  0.45322027822E+02 -0.79646032184E+01 -0.25893722376E+03  0.29122722398E+03  0.12508912433E+03 0.  0.
         23    2    1    2    0    0 -0.45322027822E+02  0.79646032184E+01 -0.22115764807E+03  0.24408927337E+03  0.92473493287E+02 0.  0.
          5    1    3    3  502    0 -0.35219969251E+02  0.20250160510E+02 -0.44533501520E+02  0.60425329063E+02  0.41800000000E+01 0.  1.
         -5    1    3    3    0  502  0.80541997073E+02 -0.28214763728E+02 -0.21440372224E+03  0.23080189491E+03  0.41800000000E+01 0.  1.
        -11    1    4    4    0    0 -0.51108595681E+02 -0.12991058636E+02 -0.21517295583E+03  0.22154064431E+03  0.00000000000E+00 0. -1.
         11    1    4    4    0    0  0.57865678588E+01  0.20955661854E+02 -0.59846922399E+01  0.22548629061E+02  0.00000000000E+00 0.  1.
</event>
<event>
 8    1  0.6692409E-009  0.4375069E+03  0.7561462E-02  0.1031514E+00
          1   -1    0    0  501    0  0.00000000000E+00  0.00000000000E+00  0.20109942385E+04  0.20109942385E+04  0.00000000000E+00 0. -1.
         -1   -1    0    0    0  501 -0.00000000000E+00 -0.00000000000E+00 -0.98280882661E+02  0.98280882661E+02  0.00000000000E+00 0.  1.
         25    2    1    2    0    0 -0.42548279283E+03 -0.58760100933E+02  0.10519187401E+04  0.11430960989E+04  0.12508916529E+03 0.  0.
         23    2    1    2    0    0  0.42548279283E+03  0.58760100933E+02  0.86079461580E+03  0.96617902224E+03  0.89700479219E+02 0.  0.
          5    1    3    3  502    0 -0.29914368153E+03 -0.95017549143E+02  0.78826435925E+03  0.84846534951E+03  0.41800000000E+01 0. -1.
         -5    1    3    3    0  502 -0.12633911130E+03  0.36257448210E+02  0.26365438080E+03  0.29463074943E+03  0.41800000000E+01 0. -1.
        -11    1    4    4    0    0  0.21749367824E+03  0.34428940917E+02  0.53902495075E+03  0.58226862321E+03  0.00000000000E+00 0.  1.
         11    1    4    4    0    0  0.20798911459E+03  0.24331160016E+02  0.32176966506E+03  0.38391039904E+03  0.00000000000E+00 0. -1.
</event>
<event>
 8    1  0.6692409E-009  0.8008773E+02  0.7561462E-02  0.1328803E+00
         -1   -1    0    0    0  501 -0.00000000000E+00  0.00000000000E+00  0.16278784878E+03  0.16278784878E+03  0.00000000000E+00 0.  1.
          1   -1    0    0  501    0  0.00000000000E+00 -0.00000000000E+00 -0.72897454534E+02  0.72897454534E+02  0.00000000000E+00 0. -1.
         25    2    1    2    0    0  0.87515362675E+01  0.97767950644E+01  0.54537895225E+02  0.13708999478E+03  0.12508840692E+03 0.  0.
         23    2    1    2    0    0 -0.87515362675E+01 -0.97767950644E+01  0.35352499025E+02  0.98595308534E+02  0.91099179847E+02 0.  0.
          5    1    3    3  502    0  0.54532760925E+02 -0.15291925944E+02 -0.59325448885E+01  0.57099321380E+02  0.41800000000E+01 0. -1.
         -5    1    3    3    0  502 -0.45781224657E+02  0.25068721009E+02  0.60470440113E+02  0.79990673404E+02  0.41800000000E+01 0. -1.
        -11    1    4    4    0    0 -0.28873240509E+02 -0.10918153547E+02  0.59567410854E+02  0.67090584512E+02  0.00000000000E+00 0.  1.
         11    1    4    4    0    0  0.20121704241E+02  0.11413584822E+01 -0.24214911829E+02  0.31504724021E+02  0.00000000000E+00 0. -1.
</event>
<event>
 8    1  0.6692409E-009  0.1734297E+03  0.7561462E-02  0.1174318E+00
          2   -1    0    0  501    0  0.00000000000E+00  0.00000000000E+00  0.23367511841E+03  0.23367511841E+03  0.00000000000E+00 0.  1.
         -2   -1    0    0    0  501 -0.00000000000E+00 -0.00000000000E+00 -0.27276614010E+03  0.27276614010E+03  0.00000000000E+00 0. -1.
         25    2    1    2    0    0 -0.15602717801E+03  0.75494336606E+01  0.14734464797E+03  0.24851345409E+03  0.12508803841E+03 0.  0.
         23    2    1    2    0    0  0.15602717801E+03 -0.75494336606E+01 -0.18643566966E+03  0.25792780442E+03  0.85831341287E+02 0.  0.
          5    1    3    3  502    0 -0.10528474282E+03  0.34718018788E+02  0.25705983617E+02  0.11387926893E+03  0.41800000000E+01 0. -1.
         -5    1    3    3    0  502 -0.50742435186E+02 -0.27168585128E+02  0.12163866435E+03  0.13463418516E+03  0.41800000000E+01 0. -1.
        -11    1    4    4    0    0  0.41706652668E+01 -0.25007611818E+02 -0.24963300225E+02  0.35580071047E+02  0.00000000000E+00 0.  1.
         11    1    4    4    0    0  0.15185651274E+03  0.17458178157E+02 -0.16147236943E+03  0.22234773337E+03  0.00000000000E+00 0. -1.
</event>
<event>
 8    1  0.6692409E-009  0.8911472E+02  0.7561462E-02  0.1305010E+00
         -1   -1    0    0    0  501 -0.00000000000E+00  0.00000000000E+00  0.50974095851E+03  0.50974095851E+03  0.00000000000E+00 0.  1.
          1   -1    0    0  501    0  0.00000000000E+00 -0.00000000000E+00 -0.26971015738E+02  0.26971015738E+02  0.00000000000E+00 0. -1.
         25    2    1    2    0    0 -0.36564798117E+01 -0.45341716080E+02  0.28366780217E+03  0.31334326713E+03  0.12508932810E+03 0.  0.
         23    2    1    2    0    0  0.36564798117E+01  0.45341716080E+02  0.19910214060E+03  0.22336870712E+03  0.90458144285E+02 0.  0.
          5    1    3    3  502    0  0.32291186179E+02 -0.13349501927E+02  0.25448965897E+03  0.25691124699E+03  0.41800000000E+01 0.  1.
         -5    1    3    3    0  502 -0.35947665991E+02 -0.31992214153E+02  0.29178143207E+02  0.56432020144E+02  0.41800000000E+01 0.  1.
        -11    1    4    4    0    0 -0.38190637169E+02  0.34595498897E+02  0.67923723147E+02  0.85258462791E+02  0.00000000000E+00 0.  1.
         11    1    4    4    0    0  0.41847116980E+02  0.10746217183E+02  0.13117841745E+03  0.13811024433E+03  0.00000000000E+00 0. -1.
</event>
<event>
 8    1  0.6692409E-009  0.9514786E+02  0.7561462E-02  0.1290843E+00
         -2   -1    0    0    0  501 -0.00000000000E+00  0.00000000000E+00  0.10075816852E+03  0.10075816852E+03  0.00000000000E+00 0.  1.
          2   -1    0    0  501    0  0.00000000000E+00 -0.00000000000E+00 -0.11860869955E+03  0.11860869955E+03  0.00000000000E+00 0. -1.
         25    2    1    2    0    0 -0.35795396678E+01 -0.19204241783E+01 -0.28524745212E+02  0.12836374605E+03  0.12508832511E+03 0.  0.
         23    2    1    2    0    0  0.35795396678E+01  0.19204241783E+01  0.10674214174E+02  0.91003122016E+02  0.90283598927E+02 0.  0.
          5    1    3    3  502    0  0.22493343678E+02  0.55329021424E+02 -0.18333112596E+01  0.59900622299E+02  0.41800000000E+01 0. -1.
         -5    1    3    3    0  502 -0.26072883346E+02 -0.57249445603E+02 -0.26691433952E+02  0.68463123754E+02  0.41800000000E+01 0. -1.
        -11    1    4    4    0    0 -0.31269940905E+02  0.73116346609E+01  0.35505377667E+02  0.47873803368E+02  0.00000000000E+00 0.  1.
         11    1    4    4    0    0  0.34849480573E+02 -0.53912104826E+01 -0.24831163493E+02  0.43129318648E+02  0.00000000000E+00 0. -1.
</event>
<event>
 8    1  0.6692409E-009  0.1459505E+03  0.7561462E-02  0.1205539E+00
          2   -1    0    0  501    0  0.00000000000E+00  0.00000000000E+00  0.18882182041E+03  0.18882182041E+03  0.00000000000E+00 0. -1.
         -2   -1    0    0    0  501 -0.00000000000E+00 -0.00000000000E+00 -0.14209214527E+03  0.14209214527E+03  0.00000000000E+00 0.  1.
         25    2    1    2    0    0  0.96003370780E+02 -0.62586906332E+02  0.67348344706E+02  0.18252946125E+03  0.12508971438E+03 0.  0.
         23    2    1    2    0    0 -0.96003370780E+02  0.62586906332E+02 -0.20618669564E+02  0.14838450443E+03  0.91973167698E+02 0.  0.
          5    1    3    3  502    0  0.80441581679E+02  0.19152413043E+02  0.52125703133E+02  0.97837744840E+02  0.41800000000E+01 0.  1.
         -5    1    3    3    0  502  0.15561789101E+02 -0.81739319375E+02  0.15222641574E+02  0.84691716410E+02  0.41800000000E+01 0.  1.
        -11    1    4    4    0    0 -0.99671396918E+02  0.47768182701E+02 -0.45229735285E+02  0.11942326237E+03  0.00000000000E+00 0.  1.
         11    1    4    4    0    0  0.36680261376E+01  0.14818723630E+02  0.24611065721E+02  0.28961242060E+02  0.00000000000E+00 0. -1.
</event>
<event>
 8    1  0.6692409E-009  0.1084090E+03  0.7561462E-02  0.1263545E+00
          2   -1    0    0  501    0  0.00000000000E+00  0.00000000000E+00  0.10461895271E+04  0.10461895271E+04  0.00000000000E+00 0. -1.
         -2   -1    0    0    0  501 -0.00000000000E+00 -0.00000000000E+00 -0.16724717636E+02  0.16724717636E+02  0.00000000000E+00 0.  1.
         25    2    1    2    0    0 -0.53450683947E+02  0.13554620910E+02  0.78404182772E+03  0.79587065085E+03  0.12509117438E+03 0.  0.
         23    2    1    2    0    0  0.53450683947E+02 -0.13554620910E+02  0.24542298179E+03  0.26704359393E+03  0.89661238598E+02 0.  0.
          5    1    3    3  502    0 -0.67474019185E+02 -0.25546147360E+02  0.67901670817E+03  0.68285174912E+03  0.41800000000E+01 0. -1.
         -5    1    3    3    0  502  0.14023335239E+02  0.39100768270E+02  0.10502511955E+03  0.11301890173E+03  0.41800000000E+01 0. -1.
        -11    1    4    4    0    0 -0.22313542006E+02  0.85204768259E+01  0.84528042009E+02  0.87837819691E+02  0.00000000000E+00 0. -1.
         11    1    4    4    0    0  0.75764225952E+02 -0.22075097735E+02  0.16089493978E+03  0.17920577424E+03  0.00000000000E+00 0.  1.
</event>
<event>
 8    1  0.6692409E-009  0.9439422E+02  0.7561462E-02  0.1292546E+00
          1   -1    0    0  501    0  0.00000000000E+00  0.00000000000E+00  0.85660991558E+02  0.85660991558E+02  0.00000000000E+00 0. -1.
         -1   -1    0    0    0  501 -0.00000000000E+00 -0.00000000000E+00 -0.19195954697E+03  0.19195954697E+03  0.00000000000E+00 0.  1.
         25    2    1    2    0    0  0.20703133294E+02 -0.47550568001E+02 -0.10826663856E+03  0.17339033241E+03  0.12511141475E+03 0.  0.
         23    2    1    2    0    0 -0.20703133294E+02  0.47550568001E+02  0.19680831483E+01  0.10423020612E+03  0.90390189021E+02 0.  0.
          5    1    3    3  502    0  0.53577214500E+01 -0.62429381524E+02 -0.12890361180E+03  0.14338670228E+03  0.41800000000E+01 0. -1.
         -5    1    3    3    0  502  0.15345411844E+02  0.14878813523E+02  0.20636973236E+02  0.30003630128E+02  0.41800000000E+01 0. -1.
        -11    1    4    4    0    0  0.35878841280E+02  0.14613611049E+02  0.57383042740E+00  0.38745040468E+02  0.00000000000E+00 0.  1.
         11    1    4    4    0    0 -0.56581974573E+02  0.32936956952E+02  0.13942527209E+01  0.65485165653E+02  0.00000000000E+00 0. -1.
</event>
<event>
 8    1  0.6692409E-009  0.1014685E+03  0.7561462E-02  0.1277238E+00
         -3   -1    0    0    0  501 -0.00000000000E+00  0.00000000000E+00  0.29308314014E+03  0.29308314014E+03  0.00000000000E+00 0.  1.
          3   -1    0    0  501    0  0.00000000000E+00 -0.00000000000E+00 -0.47592233853E+02  0.47592233853E+02  0.00000000000E+00 0. -1.
         25    2    1    2    0    0 -0.25627176079E+02  0.37958512577E+02  0.11874207197E+03  0.17844414243E+03  0.12508010027E+03 0.  0.
         23    2    1    2    0    0  0.25627176079E+02 -0.37958512577E+02  0.12674883432E+03  0.16223123155E+03  0.90311154681E+02 0.  0.
          5    1    3    3  502    0 -0.51491269311E+02 -0.29701571416E+02  0.64794961214E+02  0.88030639885E+02  0.41800000000E+01 0.  1.
         -5    1    3    3    0  502  0.25864093233E+02  0.67660083993E+02  0.53947110752E+02  0.90413502549E+02  0.41800000000E+01 0.  1.
        -11    1    4    4    0    0  0.42202458273E+02 -0.21229835817E+02  0.17350476923E+02  0.50326856276E+02  0.00000000000E+00 0.  1.
         11    1    4    4    0    0 -0.16575282195E+02 -0.16728676760E+02  0.10939835739E+03  0.11190437528E+03  0.00000000000E+00 0. -1.
</event>
<event>
 7    1  0.6692409E-009  0.1201789E+03  0.7561462E-02  0.1242802E+00
         -1   -1    0    0    0  501 -0.00000000000E+00  0.00000000000E+00  0.24675686693E+03  0.24675686693E+03  0.00000000000E+00 0.  1.
          1   -1    0    0  501    0  0.00000000000E+00 -0.00000000000E+00 -0.72431385859E+02  0.72431385859E+02  0.00000000000E+00 0. -1.
         23    2    1    2    0    0 -0.55064778448E+02  0.21986490858E+02  0.15190205630E+02  0.10821167132E+03  0.89238376591E+02 0.  0.
          5    1    1    2  502    0 -0.38255477305E+02 -0.97570282175E+01  0.24497641997E+02  0.46650702105E+02  0.41800000000E+01 0.  1.
         -5    1    1    2    0  502  0.93320255753E+02 -0.12229462641E+02  0.13463763344E+03  0.16432587937E+03  0.41800000000E+01 0.  1.
        -11    1    3    3    0    0 -0.18066523173E+02 -0.34486687912E+02  0.11508434399E+02  0.40597721180E+02  0.00000000000E+00 0.  1.
         11    1    3    3    0    0 -0.36998255275E+02  0.56473178770E+02  0.36817712304E+01  0.67613950138E+02  0.00000000000E+00 0. -1.
</event>
<event>
 8    1  0.6692409E-009  0.1874094E+03  0.7561462E-02  0.1160819E+00
         -4   -1    0    0    0  501 -0.00000000000E+00  0.00000000000E+00  0.21426010099E+03  0.21426010099E+03  0.00000000000E+00 0.  1.
          4   -1    0    0  501    0  0.00000000000E+00 -0.00000000000E+00 -0.23013432778E+03  0.23013432778E+03  0.00000000000E+00 0. -1.
         25    2    1    2    0    0  0.13043427362E+03 -0.12747032943E+03  0.55512376982E+02  0.22801527298E+03  0.12509019183E+03 0.  0.
         23    2    1    2    0    0 -0.13043427362E+03  0.12747032943E+03 -0.71386603773E+02  0.21637915579E+03  0.91989712689E+02 0.  0.
          5    1    3    3  502    0  0.46474375569E+02 -0.57551589657E+02  0.86958756751E+02  0.11424250887E+03  0.41800000000E+01 0. -1.
         -5    1    3    3    0  502  0.83959898051E+02 -0.69918739775E+02 -0.31446379769E+02  0.11377276411E+03  0.41800000000E+01 0. -1.
        -11    1    4    4    0    0 -0.47337004473E+02  0.11492115571E+02  0.13259513794E+02  0.50484407680E+02  0.00000000000E+00 0.  1.
         11    1    4    4    0    0 -0.83097269147E+02  0.11597821386E+03 -0.84646117568E+02  0.16589474811E+03  0.00000000000E+00 0. -1.
</event>
<event>
 8    1  0.6692409E-009  0.1368752E+03  0.7561462E-02  0.1217597E+00
         -1   -1    0    0    0  501 -0.00000000000E+00  0.00000000000E+00  0.50002667029E+02  0.50002667029E+02  0.00000000000E+00 0.  1.
          1   -1    0    0  501    0  0.00000000000E+00 -0.00000000000E+00 -0.41077205547E+03  0.41077205547E+03  0.00000000000E+00 0. -1.
         25    2    1    2    0    0  0.91742433182E+02 -0.18346932415E+02 -0.21823321399E+03  0.26839539419E+03  0.12512820610E+03 0.  0.
         23    2    1    2    0    0 -0.91742433182E+02  0.18346932415E+02 -0.14253617445E+03  0.19237932831E+03  0.89106458556E+02 0.  0.
          5    1    3    3  502    0 -0.23877735668E+02  0.14667054640E+02 -0.14595586364E+02  0.31871182811E+02  0.41800000000E+01 0. -1.
         -5    1    3    3    0  502  0.11562016885E+03 -0.33013987054E+02 -0.20363762762E+03  0.23652421138E+03  0.41800000000E+01 0. -1.
        -11    1    4    4    0    0 -0.96204861982E+02 -0.97105598067E+01 -0.87334193560E+02  0.13029555559E+03  0.00000000000E+00 0.  1.
         11    1    4    4    0    0  0.44624288002E+01  0.28057492221E+02 -0.55201980895E+02  0.62083772721E+02  0.00000000000E+00 0. -1.
</event>
<event>
 7    1  0.1099951E-008  0.4946926E+02  0.7561462E-02  0.1448225E+00
         -1   -1    0    0    0  501 -0.00000000000E+00  0.00000000000E+00  0.11441128593E+03  0.11441128593E+03  0.00000000000E+00 0.  1.
          1   -1    0    0  501    0  0.00000000000E+00 -0.00000000000E+00 -0.72510572578E+02  0.72510572578E+02  0.00000000000E+00 0. -1.
         25    2    1    2    0    0 -0.13814679885E+01  0.33021305667E+02  0.37899799150E+02  0.13481807592E+03  0.12508878342E+03 0.  0.
          5    1    3    3  502    0 -0.17556328853E+02 -0.90202720242E+01  0.74150590993E+02  0.76846421743E+02  0.41800000000E+01 0. -1.
         -5    1    3    3    0  502  0.16174860865E+02  0.42041577691E+02 -0.36250791842E+02  0.57971654176E+02  0.41800000000E+01 0. -1.
        -11    1    1    2    0    0  0.35809944729E+01 -0.20462224694E+02  0.21862794582E+02  0.30158049469E+02  0.00000000000E+00 0.  1.
         11    1    1    2    0    0 -0.21995264844E+01 -0.12559080973E+02 -0.17861880377E+02  0.21945733122E+02  0.00000000000E+00 0. -1.
</event>
<event>
 8    1  0.6692409E-009  0.2292673E+03  0.7561462E-02  0.1127157E+00
          2   -1    0    0  501    0  0.00000000000E+00  0.00000000000E+00  0.17690728703E+04  0.17690728703E+04  0.00000000000E+00 0. -1.
         -2   -1    0    0    0  501 -0.00000000000E+00 -0.00000000000E+00 -0.33485513813E+02  0.33485513813E+02  0.00000000000E+00 0.  1.
         25    2    1    2    0    0 -0.77379718026E+02  0.20153815402E+03  0.99263879883E+03  0.10235159291E+04  0.12509126228E+03 0.  0.
         23    2    1    2    0    0  0.77379718026E+02 -0.20153815402E+03  0.74294855766E+03  0.77904245501E+03  0.91265212944E+02 0.  0.
          5    1    3    3  502    0 -0.36469914802E+01  0.91288474750E+02  0.20095362876E+03  0.22078659262E+03  0.41800000000E+01 0.  1.
         -5    1    3    3    0  502 -0.73732726546E+02  0.11024967927E+03  0.79168517007E+03  0.80272933648E+03  0.41800000000E+01 0.  1.
        -11    1    4    4    0    0 -0.15127160941E+02 -0.81181303739E+02  0.26006426016E+03  0.27286013723E+03  0.00000000000E+00 0. -1.
         11    1    4    4    0    0  0.92506878967E+02 -0.12035685028E+03  0.48288429750E+03  0.50618231779E+03  0.00000000000E+00 0.  1.
</event>
<event>
 8    1  0.6692409E-009  0.8205347E+02  0.7561462E-02  0.1323323E+00
         -2   -1    0    0    0  501 -0.00000000000E+00  0.00000000000E+00  0.40248997853E+02  0.40248997853E+02  0.00000000000E+00 0.  1.
          2   -1    0    0  501    0  0.00000000000E+00 -0.00000000000E+00 -0.29824505394E+03  0.29824505394E+03  0.00000000000E+00 0. -1.
         25    2    1    2    0    0 -0.64918482225E+01 -0.14722815733E+02 -0.15527384063E+03  0.20003963668E+03  0.12508791015E+03 0.  0.
         23    2    1    2    0    0  0.64918482225E+01  0.14722815733E+02 -0.10272221546E+03  0.13845441511E+03  0.91426834777E+02 0.  0.
          5    1    3    3  502    0 -0.45118349006E+02 -0.22330131830E+02 -0.12722015493E+02  0.52092439786E+02  0.41800000000E+01 0. -1.
         -5    1    3    3    0  502  0.38626500784E+02  0.76073160973E+01 -0.14255182514E+03  0.14794719690E+03  0.41800000000E+01 0. -1.
        -11    1    4    4    0    0 -0.32232695456E+02 -0.89913445095E+00 -0.88743076698E+02  0.94419747728E+02  0.00000000000E+00 0.  1.
         11    1    4    4    0    0  0.38724543678E+02  0.15621950184E+02 -0.13979138758E+02  0.44034667377E+02  0.00000000000E+00 0. -1.
</event>
<event>
 7    1  0.6692409E-009  0.7655803E+02  0.7561462E-02  0.1339113E+00
         -2   -1    0    0    0  501 -0.00000000000E+00  0.00000000000E+00  0.50427633352E+02  0.50427633352E+02  0.00000000000E+00 0.  1.
          2   -1    0    0  501    0  0.00000000000E+00 -0.00000000000E+00 -0.30814523553E+03  0.30814523553E+03  0.00000000000E+00 0. -1.
         23    2    1    2    0    0  0.12076917035E+02 -0.54844428846E+02 -0.71513886657E+02  0.12727242798E+03  0.89052072624E+02 0.  0.
          5    1    1    2  502    0  0.16848273749E+02  0.32463246565E+02 -0.19069550835E+03  0.19421631242E+03  0.41800000000E+01 0. -1.
         -5    1    1    2    0  502 -0.28925190783E+02  0.22381182281E+02  0.44917928322E+01  0.37084128478E+02  0.41800000000E+01 0. -1.
        -11    1    3    3    0    0  0.25013097957E+02 -0.60429443959E+02 -0.12481813386E+02  0.66582042865E+02  0.00000000000E+00 0.  1.
         11    1    3    3    0    0 -0.12936180923E+02  0.55850151132E+01 -0.59032073271E+02  0.60690385115E+02  0.00000000000E+00 0. -1.
</event>
<event>
 8    1  0.6692409E-009  0.2409351E+03  0.7561462E-02  0.1119171E+00
         -1   -1    0    0    0  501 -0.00000000000E+00  0.00000000000E+00  0.11967257799E+03  0.11967257799E+03  0.00000000000E+00 0.  1.
          1   -1    0    0  501    0  0.00000000000E+00 -0.00000000000E+00 -0.57286526103E+03  0.57286526103E+03  0.00000000000E+00 0. -1.
         25    2    1    2    0    0 -0.14095112551E+03  0.17324260081E+03 -0.34448066512E+03  0.42917854388E+03  0.12508827031E+03 0.  0.
         23    2    1    2    0    0  0.14095112551E+03 -0.17324260081E+03 -0.10871201792E+03  0.26335929513E+03  0.87519123472E+02 0.  0.
          5    1    3    3  502    0 -0.10303702956E+03  0.30735292998E+02 -0.12816523432E+03  0.16734720608E+03  0.41800000000E+01 0. -1.
         -5    1    3    3    0  502 -0.37914095953E+02  0.14250730781E+03 -0.21631543080E+03  0.26183133780E+03  0.41800000000E+01 0. -1.
        -11    1    4    4    0    0  0.22349360820E+02 -0.88637776092E+01  0.12587175123E+02  0.27138486696E+02  0.00000000000E+00 0.  1.
         11    1    4    4    0    0  0.11860176469E+03 -0.16437882320E+03 -0.12129919304E+03  0.23622080843E+03  0.00000000000E+00 0. -1.
</event>
<event>
 8    1  0.6692409E-009  0.8967793E+02  0.7561462E-02  0.1303634E+00
         -3   -1    0    0    0  501 -0.00000000000E+00  0.00000000000E+00  0.34980355897E+02  0.34980355897E+02  0.00000000000E+00 0.  1.
          3   -1    0    0  501    0  0.00000000000E+00 -0.00000000000E+00 -0.55583307120E+03  0.55583307120E+03  0.00000000000E+00 0. -1.
         25    2    1    2    0    0  0.73875415164E+02 -0.10888040582E+01 -0.38438156020E+03  0.41091962809E+03  0.12508794692E+03 0.  0.
         23    2    1    2    0    0 -0.73875415164E+02  0.10888040582E+01 -0.13647115511E+03  0.17989379902E+03  0.90987033625E+02 0.  0.
          5    1    3    3  502    0  0.67102315304E+02 -0.29677740167E+02 -0.95431826174E+02  0.12044996815E+03  0.41800000000E+01 0.  1.
         -5    1    3    3    0  502  0.67730998599E+01  0.28588936108E+02 -0.28894973402E+03  0.29046965993E+03  0.41800000000E+01 0.  1.
        -11    1    4    4    0    0 -0.32666097499E+02 -0.87565585116E+01  0.31688727461E+01  0.33967528572E+02  0.00000000000E+00 0.  1.
         11    1    4    4    0    0 -0.41209317664E+02  0.98453625698E+01 -0.13964002785E+03  0.14592627044E+03  0.00000000000E+00 0. -1.
</event>
<event>
 8    1  0.6692409E-009  0.1881954E+03  0.7561462E-02  0.1160099E+00
          2   -1    0    0  501    0  0.00000000000E+00  0.00000000000E+00  0.64997928603E+03  0.64997928603E+03  0.00000000000E+00 0. -1.
         -2   -1    0    0    0  501 -0.00000000000E+00 -0.00000000000E+00 -0.59701944802E+02  0.59701944802E+02  0.00000000000E+00 0.  1.
         25    2    1    2    0    0  0.15496751199E+03 -0.21306626003E+02  0.40595793316E+03  0.45267883068E+03  0.12508948066E+03 0.  0.
         23    2    1    2    0    0 -0.15496751199E+03  0.21306626003E+02  0.18431940807E+03  0.25700240015E+03  0.87222058016E+02 0.  0.
          5    1    3    3  502    0  0.14339032308E+03  0.30258990087E+02  0.28117874956E+03  0.31710464020E+03  0.41800000000E+01 0. -1.
         -5    1    3    3    0  502  0.11577188917E+02 -0.51565616090E+02  0.12477918359E+03  0.13557419048E+03  0.41800000000E+01 0. -1.
        -11    1    4    4    0    0 -0.19269594476E+01  0.23632041911E+02  0.12174776359E+02  0.26653550552E+02  0.00000000000E+00 0.  1.
         11    1    4    4    0    0 -0.15304055255E+03 -0.23254159078E+01  0.17214463171E+03  0.23034884960E+03  0.00000000000E+00 0. -1.
</event>
<event>
 8    1  0.6692409E-009  0.1241605E+03  0.7561462E-02  0.1236387E+00
          1   -1    0    0  501    0  0.00000000000E+00  0.00000000000E+00  0.34084677011E+03  0.34084677011E+03  0.00000000000E+00 0. -1.
         -1   -1    0    0    0  501 -0.00000000000E+00 -0.00000000000E+00 -0.89574318407E+02  0.89574318407E+02  0.00000000000E+00 0.  1.
         25    2    1    2    0    0  0.67890078759E+02 -0.31021422736E+02  0.28040163125E+03  0.31598276062E+03  0.12509451922E+03 0.  0.
         23    2    1    2    0    0 -0.67890078759E+02  0.31021422736E+02 -0.29129179556E+02  0.11443832789E+03  0.81708202319E+02 0.  0.
          5    1    3    3  502    0  0.66717825808E+02 -0.75560030452E+02  0.19102471230E+03  0.21602893230E+03  0.41800000000E+01 0.  1.
         -5    1    3    3    0  502  0.11722529514E+01  0.44538607716E+02  0.89376918957E+02  0.99953828323E+02  0.41800000000E+01 0.  1.
        -11    1    4    4    0    0 -0.41258201771E+02  0.53690186434E+02 -0.38946320721E+02  0.78113323001E+02  0.00000000000E+00 0.  1.
         11    1    4    4    0    0 -0.26631876988E+02 -0.22668763698E+02  0.98171411647E+01  0.36325004889E+02  0.00000000000E+00 0. -1.
</event>
<event>
 8    1  0.6692409E-009  0.1060234E+03  0.7561462E-02  0.1268116E+00
         -1   -1    0    0    0  501 -0.00000000000E+00  0.00000000000E+00  0.81359468333E+02  0.81359468333E+02  0.00000000000E+00 0.  1.
          1   -1    0    0  501    0  0.00000000000E+00 -0.00000000000E+00 -0.15971700460E+03  0.15971700460E+03  0.00000000000E+00 0. -1.
         25    2    1    2    0    0  0.15495626470E+01 -0.37981082759E+02 -0.30373085077E+02  0.13422036776E+03  0.12509044342E+03 0.  0.
         23    2    1    2    0    0 -0.15495626470E+01  0.37981082759E+02 -0.47984451192E+02  0.10685610517E+03  0.87582851427E+02 0.  0.
          5    1    3    3  502    0  0.58813675878E+02 -0.37891918508E+01 -0.32359277441E+02  0.67364691655E+02  0.41800000000E+01 0.  1.
         -5    1    3    3    0  502 -0.57264113231E+02 -0.34191890908E+02  0.19861923645E+01  0.66855676110E+02  0.41800000000E+01 0.  1.
        -11    1    4    4    0    0  0.25714390581E+02  0.50090054971E+02 -0.78509670069E+01  0.56849636524E+02  0.00000000000E+00 0.  1.
         11    1    4    4    0    0 -0.27263953228E+02 -0.12108972212E+02 -0.40133484185E+02  0.50006468646E+02  0.00000000000E+00 0. -1.
</event>
<event>
 8    1  0.6692409E-009  0.6082611E+03  0.7561462E-02  0.9888414E-01
          1   -1    0    0  501    0  0.00000000000E+00  0.00000000000E+00  0.10291324260E+04  0.10291324260E+04  0.00000000000E+00 0. -1.
         -1   -1    0    0    0  501 -0.00000000000E+00 -0.00000000000E+00 -0.36398836802E+03  0.36398836802E+03  0.00000000000E+00 0.  1.
         25    2    1    2    0    0 -0.37680141972E+02 -0.60091836123E+03  0.32881975442E+03  0.69734639913E+03  0.12508756739E+03 0.  0.
         23    2    1    2    0    0  0.37680141972E+02  0.60091836123E+03  0.33632430361E+03  0.69577439495E+03  0.92007073088E+02 0.  0.
          5    1    3    3  502    0  0.19347000968E+02 -0.38791155130E+03  0.16214675955E+03  0.42090227145E+03  0.41800000000E+01 0. -1.
         -5    1    3    3    0  502 -0.57027142940E+02 -0.21300680993E+03  0.16667299487E+03  0.27644412768E+03  0.41800000000E+01 0. -1.
        -11    1    4    4    0    0  0.36244653056E+02  0.95639516901E+02  0.75653583445E+02  0.12721657422E+03  0.00000000000E+00 0.  1.
         11    1    4    4    0    0  0.14354889160E+01  0.50527884433E+03  0.26067072017E+03  0.56855782073E+03  0.00000000000E+00 0. -1.
</event>
<event>
 8    1  0.6692409E-009  0.9894195E+02  0.7561462E-02  0.1282537E+00
          1   -1    0    0  501    0  0.00000000000E+00  0.00000000000E+00  0.52227080421E+02  0.52227080421E+02  0.00000000000E+00 0. -1.
         -1   -1    0    0    0  501 -0.00000000000E+00 -0.00000000000E+00 -0.26669247253E+03  0.26669247253E+03  0.00000000000E+00 0.  1.
         25    2    1    2    0    0 -0.14252309981E+02  0.40491828127E+02 -0.13335686296E+03  0.18781485529E+03  0.12509056913E+03 0.  0.
         23    2    1    2    0    0  0.14252309981E+02 -0.40491828127E+02 -0.81108529146E+02  0.13110469766E+03  0.93632963011E+02 0.  0.
          5    1    3    3  502    0  0.26854042461E+02 -0.23775074295E+02 -0.96404014930E+02  0.10294464653E+03  0.41800000000E+01 0.  1.
         -5    1    3    3    0  502 -0.41106352443E+02  0.64266902422E+02 -0.36952848028E+02  0.84870208763E+02  0.41800000000E+01 0.  1.
        -11    1    4    4    0    0  0.16409731382E+02 -0.61806642822E+02 -0.87836899571E+02  0.10864925820E+03  0.00000000000E+00 0.  1.
         11    1    4    4    0    0 -0.21574214006E+01  0.21314814695E+02  0.67283704255E+01  0.22455439456E+02  0.00000000000E+00 0. -1.
</event>
<event>
 8    1  0.6692409E-009  0.1244767E+03  0.7561462E-02  0.1235889E+00
         -2   -1    0    0    0  501 -0.00000000000E+00  0.00000000000E+00  0.45152493235E+02  0.45152493235E+02  0.00000000000E+00 0.  1.
          2   -1    0    0  501    0  0.00000000000E+00 -0.00000000000E+00 -0.10703674759E+04  0.10703674759E+04  0.00000000000E+00 0. -1.
         25    2    1    2    0    0 -0.11515880256E+03 -0.33533590136E+02 -0.91105862426E+03  0.92739508937E+03  0.12509110070E+03 0.  0.
         23    2    1    2    0    0  0.11515880256E+03  0.33533590136E+02 -0.11415635845E+03  0.18812487981E+03  0.89293027469E+02 0.  0.
          5    1    3    3  502    0  0.26283326234E+01  0.13223023598E+01 -0.45605388860E+03  0.45608253455E+03  0.41800000000E+01 0. -1.
         -5    1    3    3    0  502 -0.11778713518E+03 -0.34855892496E+02 -0.45500473566E+03  0.47131255481E+03  0.41800000000E+01 0. -1.
        -11    1    4    4    0    0  0.88712369891E+02  0.32465767072E+02 -0.28800092940E+02  0.98759080375E+02  0.00000000000E+00 0.  1.
         11    1    4    4    0    0  0.26446432666E+02  0.10678230646E+01 -0.85356265505E+02  0.89365799431E+02  0.00000000000E+00 0. -1.
</event>
<event>
 8    1  0.6692409E-009  0.1022324E+03  0.7561462E-02  0.1275670E+00
         -3   -1    0    0    0  501 -0.00000000000E+00  0.00000000000E+00  0.58939376826E+02  0.58939376826E+02  0.00000000000E+00 0.  1.
          3   -1    0    0  501    0  0.00000000000E+00 -0.00000000000E+00 -0.39576454451E+03  0.39576454451E+03  0.00000000000E+00 0. -1.
         25    2    1    2    0    0  0.27659681914E+02  0.64555604581E+02 -0.30337212890E+03  0.33558150080E+03  0.12509121073E+03 0.  0.
         23    2    1    2    0    0 -0.27659681914E+02 -0.64555604581E+02 -0.33453038787E+02  0.11912242054E+03  0.90213974437E+02 0.  0.
          5    1    3    3  502    0  0.42922998520E+01  0.76802091250E+02 -0.29868864050E+03  0.30846290121E+03  0.41800000000E+01 0.  1.
         -5    1    3    3    0  502  0.23367382062E+02 -0.12246486669E+02 -0.46834883946E+01  0.27118599590E+02  0.41800000000E+01 0.  1.
        -11    1    4    4    0    0 -0.94863457656E+01 -0.77707965899E+02  0.66762068798E+00  0.78287702978E+02  0.00000000000E+00 0.  1.
         11    1    4    4    0    0 -0.18173336149E+02  0.13152361318E+02 -0.34120659475E+02  0.40834717558E+02  0.00000000000E+00 0. -1.
</event>
<event>
 8    1  0.6692409E-009  0.7843497E+02  0.7561462E-02  0.1333552E+00
         -1   -1    0    0    0  501 -0.00000000000E+00  0.00000000000E+00  0.56754329121E+02  0.56754329121E+02  0.00000000000E+00 0.  1.
          1   -1    0    0  501    0  0.00000000000E+00 -0.00000000000E+00 -0.22141188359E+03  0.22141188359E+03  0.00000000000E+00 0. -1.
         25    2    1    2    0    0  0.22096270831E+02  0.18021763914E+02 -0.10378236846E+03  0.16500834968E+03  0.12507576225E+03 0.  0.
         23    2    1    2    0    0 -0.22096270831E+02 -0.18021763914E+02 -0.60875186009E+02  0.11315786303E+03  0.91026834146E+02 0.  0.
          5    1    3    3  502    0 -0.21562569689E+02  0.41205755999E+02 -0.10549791061E+03  0.11536958127E+03  0.41800000000E+01 0. -1.
         -5    1    3    3    0  502  0.43658840520E+02 -0.23183992085E+02  0.17155421496E+01  0.49638768412E+02  0.41800000000E+01 0. -1.
        -11    1    4    4    0    0 -0.33194961113E+02  0.63409135696E+01 -0.75452173581E+02  0.82674924411E+02  0.00000000000E+00 0. -1.
         11    1    4    4    0    0  0.11098690282E+02 -0.24362677484E+02  0.14576987573E+02  0.30482938619E+02  0.00000000000E+00 0.  1.
</event>
<event>
 8    1  0.6692409E-009  0.2836044E+03  0.7561462E-02  0.1093736E+00
         -2   -1    0    0    0  501 -0.00000000000E+00  0.00000000000E+00  0.29621008210E+03  0.29621008210E+03  0.00000000000E+00 0.  1.
          2   -1    0    0  501    0  0.00000000000E+00 -0.00000000000E+00 -0.28670042821E+03  0.28670042821E+03  0.00000000000E+00 0. -1.
         25    2    1    2    0    0  0.11046373025E+03 -0.24252958951E+03  0.54301488766E+02  0.29936273208E+03  0.12508619503E+03 0.  0.
         23    2    1    2    0    0 -0.11046373025E+03  0.24252958951E+03 -0.44791834876E+02  0.28354777823E+03  0.85849849013E+02 0.  0.
          5    1    3    3  502    0  0.76078999193E+02 -0.24688768435E+03  0.56128860431E+02  0.26440397913E+03  0.41800000000E+01 0. -1.
         -5    1    3    3    0  502  0.34384731062E+02  0.43580948453E+01 -0.18273716659E+01  0.34958752954E+02  0.41800000000E+01 0. -1.
        -11    1    4    4    0    0 -0.75050134824E+02  0.89288182713E+02  0.98280688705E+01  0.11705337777E+03  0.00000000000E+00 0.  1.
         11    1    4    4    0    0 -0.35413595431E+02  0.15324140680E+03 -0.54619903747E+02  0.16649440046E+03  0.00000000000E+00 0. -1.
</event>
<event>
 8    1  0.6692409E-009  0.1011887E+03  0.7561462E-02  0.1277816E+00
         -2   -1    0    0    0  501 -0.00000000000E+00  0.00000000000E+00  0.18694924473E+03  0.18694924473E+03  0.00000000000E+00 0.  1.
          2   -1    0    0  501    0  0.00000000000E+00 -0.00000000000E+00 -0.75504136860E+02  0.75504136860E+02  0.00000000000E+00 0. -1.
         25    2    1    2    0    0  0.12970889918E+02 -0.39855900367E+02  0.36642235727E+02  0.13691520566E+03  0.12508550405E+03 0.  0.
         23    2    1    2    0    0 -0.12970889918E+02  0.39855900367E+02  0.74802872140E+02  0.12553817592E+03  0.91693113998E+02 0.  0.
          5    1    3    3  502    0  0.52481397967E+02  0.22055125259E+02  0.66258838731E+01  0.57463905365E+02  0.41800000000E+01 0. -1.
         -5    1    3    3    0  502 -0.39510508049E+02 -0.61911025626E+02  0.30016351853E+02  0.79451300298E+02  0.41800000000E+01 0. -1.
        -11    1    4    4    0    0 -0.14022738280E+02 -0.12848388326E+02  0.70076963233E+02  0.72611975923E+02  0.00000000000E+00 0.  1.
         11    1    4    4    0    0  0.10518483619E+01  0.52704288693E+02  0.47259089069E+01  0.52926200002E+02  0.00000000000E+00 0. -1.
</event>
<event>
 8    1  0.6692409E-009  0.7595216E+02  0.7561462E-02  0.1340948E+00
          2   -1    0    0  501    0  0.00000000000E+00  0.00000000000E+00  0.19793013420E+03  0.19793013420E+03  0.00000000000E+00 0. -1.
         -2   -1    0    0    0  501 -0.00000000000E+00 -0.00000000000E+00 -0.63316432980E+02  0.63316432980E+02  0.00000000000E+00 0.  1.
         25    2    1    2    0    0  0.14581122278E+02 -0.32394870154E+02  0.73461381806E+02  0.14935324325E+03  0.12509108646E+03 0.  0.
         23    2    1    2    0    0 -0.14581122278E+02  0.32394870154E+02  0.61152319413E+02  0.11189332393E+03  0.86709128884E+02 0.  0.
          5    1    3    3  502    0 -0.24392177448E+02 -0.12008346784E+02  0.95923534365E+02  0.99789656570E+02  0.41800000000E+01 0. -1.
         -5    1    3    3    0  502  0.38973299727E+02 -0.20386523371E+02 -0.22462152559E+02  0.49563586677E+02  0.41800000000E+01 0. -1.
        -11    1    4    4    0    0 -0.38645511065E+02 -0.14675140502E+01  0.86986530457E+00  0.38683146054E+02  0.00000000000E+00 0.  1.
         11    1    4    4    0    0  0.24064388787E+02  0.33862384205E+02  0.60282454109E+02  0.73210177879E+02  0.00000000000E+00 0. -1.
</event>
<event>
 8    1  0.6692409E-009  0.7990541E+02  0.7561462E-02  0.1329320E+00
         -2   -1    0    0    0  501 -0.00000000000E+00  0.00000000000E+00  0.72738361971E+02  0.72738361971E+02  0.00000000000E+00 0. -1.
          2   -1    0    0  501    0  0.00000000000E+00 -0.00000000000E+00 -0.23584760539E+03  0.23584760539E+03  0.00000000000E+00 0.  1.
         25    2    1    2    0    0 -0.75453292653E+02  0.11170944877E+02 -0.91339976902E+02  0.17265273827E+03  0.12509191528E+03 0.  0.
         23    2    1    2    0    0  0.75453292653E+02 -0.11170944877E+02 -0.71769266518E+02  0.13593322910E+03  0.86654635043E+02 0.  0.
          5    1    3    3  502    0 -0.51268176876E+02  0.13559848333E+02 -0.12212572176E+03  0.13320833218E+03  0.41800000000E+01 0.  1.
         -5    1    3    3    0  502 -0.24185115777E+02 -0.23889034564E+01  0.30785744859E+02  0.39444406085E+02  0.41800000000E+01 0.  1.
        -11    1    4    4    0    0  0.22934249822E+02  0.10396331105E+02  0.17127311040E+02  0.30453379103E+02  0.00000000000E+00 0. -1.
         11    1    4    4    0    0  0.52519042831E+02 -0.21567275982E+02 -0.88896577558E+02  0.10547984999E+03  0.00000000000E+00 0.  1.
</event>
<event>
 7    1  0.6692409E-009  0.2572136E+03  0.7561462E-02  0.1108829E+00
         -2   -1    0    0    0  501 -0.00000000000E+00  0.00000000000E+00  0.44240532005E+03  0.44240532005E+03  0.00000000000E+00 0. -1.
          2   -1    0    0  501    0  0.00000000000E+00 -0.00000000000E+00 -0.16927427711E+03  0.16927427711E+03  0.00000000000E+00 0.  1.
         25    2    1    2    0    0  0.78925201538E+02 -0.19510538446E+03  0.13959683351E+03  0.28183247016E+03  0.12508783645E+03 0.  0.
          5    1    3    3  502    0 -0.17663625108E+02 -0.59606664206E+02  0.87497016107E+02  0.10741581959E+03  0.41800000000E+01 0.  1.
         -5    1    3    3    0  502  0.96588826646E+02 -0.13549872026E+03  0.52099817399E+02  0.17441665057E+03  0.41800000000E+01 0.  1.
        -11    1    1    2    0    0  0.32512983116E+02  0.16781205390E+03  0.26564761891E+02  0.17298458336E+03  0.00000000000E+00 0.  1.
         11    1    1    2    0    0 -0.11143818465E+03  0.27293330561E+02  0.10696944754E+03  0.15686254365E+03  0.00000000000E+00 0. -1.
</event>
<event>
 8    1  0.6692409E-009  0.3040393E+03  0.7561462E-02  0.1083239E+00
         -1   -1    0    0    0  501 -0.00000000000E+00  0.00000000000E+00  0.76767178100E+02  0.76767178100E+02  0.00000000000E+00 0.  1.
          1   -1    0    0  501    0  0.00000000000E+00 -0.00000000000E+00 -0.13333225289E+04  0.13333225289E+04  0.00000000000E+00 0. -1.
         25    2    1    2    0    0 -0.25200406112E+03 -0.16252998816E+03 -0.60209433147E+03  0.68416812797E+03  0.12508556859E+03 0.  0.
         23    2    1    2    0    0  0.25200406112E+03  0.16252998816E+03 -0.65446101931E+03  0.72592157901E+03  0.93385594208E+02 0.  0.
          5    1    3    3  502    0 -0.24263092398E+03 -0.13321360697E+03 -0.58831008488E+03  0.65018601856E+03  0.41800000000E+01 0.  1.
         -5    1    3    3    0  502 -0.93731371441E+01 -0.29316381190E+02 -0.13784246581E+02  0.33982109408E+02  0.41800000000E+01 0.  1.
        -11    1    4    4    0    0  0.19526074171E+03  0.11890120941E+03 -0.39118701635E+03  0.45309109085E+03  0.00000000000E+00 0.  1.
         11    1    4    4    0    0  0.56743319413E+02  0.43628778748E+02 -0.26327400296E+03  0.27283048815E+03  0.00000000000E+00 0. -1.
</event>
<event>
 8    1  0.6692409E-009  0.2354863E+03  0.7561462E-02  0.1122837E+00
         -3   -1    0    0    0  501 -0.00000000000E+00  0.00000000000E+00  0.40505223794E+03  0.40505223794E+03  0.00000000000E+00 0.  1.
          3   -1    0    0  501    0  0.00000000000E+00 -0.00000000000E+00 -0.17118210115E+03  0.17118210115E+03  0.00000000000E+00 0. -1.
         25    2    1    2    0    0 -0.16946316512E+03 -0.12416160838E+03 -0.64395029136E+01  0.24458833836E+03  0.12509244077E+03 0.  0.
         23    2    1    2    0    0  0.16946316512E+03  0.12416160838E+03  0.24030963970E+03  0.33164600073E+03  0.90035979151E+02 0.  0.
          5    1    3    3  502    0 -0.18414136128E+03 -0.87249877016E+02 -0.12485355657E+02  0.20419093633E+03  0.41800000000E+01 0. -1.
         -5    1    3    3    0  502  0.14678196170E+02 -0.36911731365E+02  0.60458527436E+01  0.40397402027E+02  0.41800000000E+01 0. -1.
        -11    1    4    4    0    0  0.10941546672E+03  0.12634111002E+03  0.19194167195E+03  0.25451016850E+03  0.00000000000E+00 0.  1.
         11    1    4    4    0    0  0.60047698399E+02 -0.21795016357E+01  0.48367967752E+02  0.77135832236E+02  0.00000000000E+00 0. -1.
</event>
<event>
 8    1  0.6692409E-009  0.1080501E+03  0.7561462E-02  0.1264224E+00
         -1   -1    0    0    0  501 -0.00000000000E+00  0.00000000000E+00  0.43880564995E+03  0.43880564995E+03  0.00000000000E+00 0.  1.
          1   -1    0    0  501    0  0.00000000000E+00 -0.00000000000E+00 -0.42669132058E+02  0.42669132058E+02  0.00000000000E+00 0. -1.
         25    2    1    2    0    0  0.87667164100E+01  0.22316264402E+02  0.77760237138E+02  0.14921017758E+03  0.12506858774E+03 0.  0.
         23    2    1    2    0    0 -0.87667164100E+01 -0.22316264402E+02  0.31837628076E+03  0.33226460444E+03  0.91986087202E+02 0.  0.
          5    1    3    3  502    0 -0.17561313028E+02 -0.45287779646E+02  0.98297722081E+01  0.49734088130E+02  0.41800000000E+01 0.  1.
         -5    1    3    3    0  502  0.26328029438E+02  0.67604044047E+02  0.67930464930E+02  0.99476089445E+02  0.41800000000E+01 0.  1.
        -11    1    4    4    0    0  0.41493824586E+02 -0.65909774832E+01  0.12663496395E+03  0.13342260887E+03  0.00000000000E+00 0. -1.
         11    1    4    4    0    0 -0.50260540996E+02 -0.15725286919E+02  0.19174131681E+03  0.19884199557E+03  0.00000000000E+00 0.  1.
</event>
<event>
 8    1  0.6692409E-009  0.2060395E+03  0.7561462E-02  0.1144741E+00
          1   -1    0    0  501    0  0.00000000000E+00  0.00000000000E+00  0.18413193304E+04  0.18413193304E+04  0.00000000000E+00 0. -1.
         -1   -1    0    0    0  501 -0.00000000000E+00 -0.00000000000E+00 -0.28940010985E+02  0.28940010985E+02  0.00000000000E+00 0.  1.
         25    2    1    2    0    0 -0.16874632281E+03 -0.93874980174E+02  0.11756670117E+04  0.11979711731E+04  0.12511664883E+03 0.  0.
         23    2    1    2    0    0  0.16874632281E+03  0.93874980174E+02  0.63671230768E+03  0.67228816825E+03  0.96337869246E+02 0.  0.
          5    1    3    3  502    0 -0.10711746262E+03 -0.82956906061E+02  0.10364345488E+04  0.10452607547E+04  0.41800000000E+01 0. -1.
         -5    1    3    3    0  502 -0.61628860188E+02 -0.10918074113E+02  0.13923246294E+03  0.15271041840E+03  0.41800000000E+01 0. -1.
        -11    1    4    4    0    0  0.14368469553E+03  0.11257468918E+03  0.57197401626E+03  0.60039372719E+03  0.00000000000E+00 0. -1.
         11    1    4    4    0    0  0.25061627283E+02 -0.18699709008E+02  0.64738291419E+02  0.71894441056E+02  0.00000000000E+00 0.  1.
</event>
<event>
 8    1  0.6692409E-009  0.9976280E+02  0.7561462E-02  0.1280796E+00
         -2   -1    0    0    0  501 -0.00000000000E+00  0.00000000000E+00  0.23437214229E+02  0.23437214229E+02  0.00000000000E+00 0.  1.
          2   -1    0    0  501    0  0.00000000000E+00 -0.00000000000E+00 -0.58619479859E+03  0.58619479859E+03  0.00000000000E+00 0. -1.
         25    2    1    2    0    0  0.43417944843E+02  0.66303536050E+01 -0.34339575146E+03  0.36809931754E+03  0.12508951167E+03 0.  0.
         23    2    1    2    0    0 -0.43417944843E+02 -0.66303536050E+01 -0.21936183290E+03  0.24153269528E+03  0.91045865537E+02 0.  0.
          5    1    3    3  502    0 -0.19512365633E+02 -0.29707431217E+02 -0.23387186257E+03  0.23659413430E+03  0.41800000000E+01 0. -1.
         -5    1    3    3    0  502  0.62930310476E+02  0.36337784822E+02 -0.10952388889E+03  0.13150518324E+03  0.41800000000E+01 0. -1.
        -11    1    4    4    0    0  0.11420724321E+02  0.25112011701E+02 -0.25458123338E+02  0.37538808180E+02  0.00000000000E+00 0.  1.
         11    1    4    4    0    0 -0.54838669164E+02 -0.31742365306E+02 -0.19390370956E+03  0.20399388710E+03  0.00000000000E+00 0. -1.
</event>
<event>
 8    1  0.6692409E-009  0.6384039E+02  0.7561462E-02  0.1382387E+00
         -1   -1    0    0    0  501 -0.00000000000E+00  0.00000000000E+00  0.67210713618E+03  0.67210713618E+03  0.00000000000E+00 0.  1.
          1   -1    0    0  501    0  0.00000000000E+00 -0.00000000000E+00 -0.20698164553E+02  0.20698164553E+02  0.00000000000E+00 0. -1.
         25    2    1    2    0    0  0.17545607388E+02 -0.22199311212E+02  0.47418472064E+03  0.49122054819E+03  0.12508325197E+03 0.  0.
         23    2    1    2    0    0 -0.17545607388E+02  0.22199311212E+02  0.17722425099E+03  0.20158475254E+03  0.91800433340E+02 0.  0.
          5    1    3    3  502    0  0.35670807070E+02 -0.32733854607E+01  0.31921652523E+02  0.48162078746E+02  0.41800000000E+01 0. -1.
         -5    1    3    3    0  502 -0.18125199682E+02 -0.18925925751E+02  0.44226306811E+03  0.44305846944E+03  0.41800000000E+01 0. -1.
        -11    1    4    4    0    0  0.16333371375E+02  0.26294986663E+02  0.12534250892E+02  0.33396299039E+02  0.00000000000E+00 0. -1.
         11    1    4    4    0    0 -0.33878978763E+02 -0.40956754515E+01  0.16469000009E+03  0.16818845350E+03  0.00000000000E+00 0.  1.
</event>
<event>
 8    1  0.6692409E-009  0.9919431E+02  0.7561462E-02  0.1281999E+00
          4   -1    0    0  501    0  0.00000000000E+00  0.00000000000E+00  0.46062022225E+03  0.46062022225E+03  0.00000000000E+00 0. -1.
         -4   -1    0    0    0  501 -0.00000000000E+00 -0.00000000000E+00 -0.47713525468E+02  0.47713525468E+02  0.00000000000E+00 0.  1.
         25    2    1    2    0    0  0.47492788387E+02 -0.64188083923E+02  0.33018753677E+03  0.36200629581E+03  0.12509625773E+03 0.  0.
         23    2    1    2    0    0 -0.47492788387E+02  0.64188083923E+02  0.82719160011E+02  0.14632745191E+03  0.90518443885E+02 0.  0.
          5    1    3    3  502    0  0.33848154239E+02 -0.46354960117E+02  0.38080777456E+02  0.69007955226E+02  0.41800000000E+01 0.  1.
         -5    1    3    3    0  502  0.13644634148E+02 -0.17833123806E+02  0.29210675932E+03  0.29299834058E+03  0.41800000000E+01 0.  1.
        -11    1    4    4    0    0 -0.34147819793E+02 -0.15285448929E+02  0.12516057584E+02  0.39450858584E+02  0.00000000000E+00 0.  1.
         11    1    4    4    0    0 -0.13344968593E+02  0.79473532852E+02  0.70203102427E+02  0.10687659333E+03  0.00000000000E+00 0. -1.
</event>
<event>
 7    1  0.6692409E-009  0.1096141E+03  0.7561462E-02  0.1261286E+00
         -1   -1    0    0    0  501 -0.00000000000E+00  0.00000000000E+00  0.24218443130E+03  0.24218443130E+03  0.00000000000E+00 0.  1.
          1   -1    0    0  501    0  0.00000000000E+00 -0.00000000000E+00 -0.11097775457E+03  0.11097775457E+03  0.00000000000E+00 0. -1.
         23    2    1    2    0    0 -0.41723824450E+02  0.41270404716E+02 -0.55506207999E+02  0.12142362898E+03  0.90656686005E+02 0.  0.
          5    1    1    2  502    0 -0.25535710204E+02  0.29641873107E+02  0.49813173095E+02  0.63478640114E+02  0.41800000000E+01 0. -1.
         -5    1    1    2    0  502  0.67259534654E+02 -0.70912277822E+02  0.13689971163E+03  0.16825991677E+03  0.41800000000E+01 0. -1.
        -11    1    3    3    0    0 -0.46582039130E+02  0.52279827840E+02 -0.72374297640E+02  0.10070305719E+03  0.00000000000E+00 0. -1.
         11    1    3    3    0    0  0.48582146797E+01 -0.11009423124E+02  0.16868089641E+02  0.20720571796E+02  0.00000000000E+00 0.  1.
</event>
<event>
 8    1  0.6692409E-009  0.1219945E+03  0.7561462E-02  0.1239843E+00
         -1   -1    0    0    0  501 -0.00000000000E+00  0.00000000000E+00  0.55191806449E+02  0.55191806449E+02  0.00000000000E+00 0.  1.
          1   -1    0    0  501    0  0.00000000000E+00 -0.00000000000E+00 -0.29186377304E+03  0.29186377304E+03  0.00000000000E+00 0. -1.
         25    2    1    2    0    0 -0.82412854763E+01 -0.63265875127E+02 -0.15762111073E+03  0.21109642072E+03  0.12508714782E+03 0.  0.
         23    2    1    2    0    0  0.82412854763E+01  0.63265875127E+02 -0.79050855862E+02  0.13595915877E+03  0.90362410881E+02 0.  0.
          5    1    3    3  502    0  0.52662889321E+02 -0.83749762357E+00 -0.65801843637E+02  0.84388603140E+02  0.41800000000E+01 0. -1.
         -5    1    3    3    0  502 -0.60904174798E+02 -0.62428377503E+02 -0.91819267096E+02  0.12670781758E+03  0.41800000000E+01 0. -1.
        -11    1    4    4    0    0 -0.14172880756E+02  0.76504331543E+02 -0.77597294877E+02  0.10988686667E+03  0.00000000000E+00 0. -1.
         11    1    4    4    0    0  0.22414166232E+02 -0.13238456416E+02 -0.14535609854E+01  0.26072292107E+02  0.00000000000E+00 0.  1.
</event>
<event>
 8    1  0.6692409E-009  0.1530880E+03  0.7561462E-02  0.1196729E+00
         -1   -1    0    0    0  501 -0.00000000000E+00  0.00000000000E+00  0.51437085628E+02  0.51437085628E+02  0.00000000000E+00 0.  1.
          1   -1    0    0  501    0  0.00000000000E+00 -0.00000000000E+00 -0.59382019230E+03  0.59382019230E+03  0.00000000000E+00 0. -1.
         25    2    1    2    0    0 -0.53491623535E+02  0.12532733278E+03 -0.27992092865E+03  0.33552687546E+03  0.12511700016E+03 0.  0.
         23    2    1    2    0    0  0.53491623535E+02 -0.12532733278E+03 -0.26246217803E+03  0.30973040247E+03  0.92077321792E+02 0.  0.
          5    1    3    3  502    0 -0.58201556710E+02  0.12037786356E+03 -0.13385986526E+03  0.18924636632E+03  0.41800000000E+01 0.  1.
         -5    1    3    3    0  502  0.47099331749E+01  0.49494692283E+01 -0.14606106339E+03  0.14628050914E+03  0.41800000000E+01 0.  1.
        -11    1    4    4    0    0 -0.25876196936E+02 -0.21117704600E+02 -0.49838580792E+02  0.59995159395E+02  0.00000000000E+00 0.  1.
         11    1    4    4    0    0  0.79367820472E+02 -0.10420962818E+03 -0.21262359724E+03  0.24973524308E+03  0.00000000000E+00 0. -1.
</event>
<event>
 8    1  0.6692409E-009  0.7773950E+02  0.7561462E-02  0.1335592E+00
          1   -1    0    0  501    0  0.00000000000E+00  0.00000000000E+00  0.81768899900E+03  0.81768899900E+03  0.00000000000E+00 0. -1.
         -1   -1    0    0    0  501 -0.00000000000E+00 -0.00000000000E+00 -0.28379596500E+02  0.28379596500E+02  0.00000000000E+00 0.  1.
         25    2    1    2    0    0  0.29154117025E+01 -0.31469977828E+02  0.67212382122E+03  0.68439519566E+03  0.12508994225E+03 0.  0.
         23    2    1    2    0    0 -0.29154117025E+01  0.31469977828E+02  0.11718558127E+03  0.16167339984E+03  0.10680341112E+03 0.  0.
          5    1    3    3  502    0  0.18783443607E+02 -0.24126911356E+02  0.33613503452E+02  0.45631848743E+02  0.41800000000E+01 0. -1.
         -5    1    3    3    0  502 -0.15868031905E+02 -0.73430664721E+01  0.63851031777E+03  0.63876334691E+03  0.41800000000E+01 0. -1.
        -11    1    4    4    0    0  0.12281590157E+01  0.68935616551E+02  0.51937776242E+02  0.86320103132E+02  0.00000000000E+00 0.  1.
         11    1    4    4    0    0 -0.41435707182E+01 -0.37465638723E+02  0.65247805033E+02  0.75353296708E+02  0.00000000000E+00 0. -1.
</event>
<event>
 8    1  0.6692409E-009  0.7182085E+02  0.7561462E-02  0.1354008E+00
          2   -1    0    0  501    0  0.00000000000E+00  0.00000000000E+00  0.32380618312E+03  0.32380618312E+03  0.00000000000E+00 0. -1.
         -2   -1    0    0    0  501 -0.00000000000E+00 -0.00000000000E+00 -0.44076695878E+02  0.44076695878E+02  0.00000000000E+00 0.  1.
         25    2    1    2    0    0  0.27740301038E+01 -0.85554701682E+01  0.82344812429E+02  0.15003056959E+03  0.12509041675E+03 0.  0.
         23    2    1    2    0    0 -0.27740301038E+01  0.85554701682E+01  0.19738467482E+03  0.21785230942E+03  0.91749809549E+02 0.  0.
          5    1    3    3  502    0  0.40735875556E+02 -0.19354381606E+02  0.97531597546E+02  0.10753552234E+03  0.41800000000E+01 0. -1.
         -5    1    3    3    0  502 -0.37961845453E+02  0.10798911437E+02 -0.15186785117E+02  0.42495047248E+02  0.41800000000E+01 0. -1.
        -11    1    4    4    0    0  0.24189333620E+02 -0.97386018890E+01  0.10438555061E+02  0.28087856086E+02  0.00000000000E+00 0.  1.
         11    1    4    4    0    0 -0.26963363724E+02  0.18294072057E+02  0.18694611976E+03  0.18976445333E+03  0.00000000000E+00 0. -1.
</event>
<event>
 8    1  0.6692409E-009  0.7861666E+02  0.7561462E-02  0.1333024E+00
         -1   -1    0    0    0  501 -0.00000000000E+00  0.00000000000E+00  0.24723391935E+02  0.24723391935E+02  0.00000000000E+00 0.  1.
          1   -1    0    0  501    0  0.00000000000E+00 -0.00000000000E+00 -0.65976662224E+03  0.65976662224E+03  0.00000000000E+00 0. -1.
         25    2    1    2    0    0 -0.49891919247E+02 -0.56238030859E+01 -0.46505772860E+03  0.48419813054E+03  0.12509319696E+03 0.  0.
         23    2    1    2    0    0  0.49891919247E+02  0.56238030859E+01 -0.16998550170E+03  0.20029188363E+03  0.93278813729E+02 0.  0.
          5    1    3    3  502    0  0.17353862267E+01  0.75043662672E+01 -0.39961791825E+03  0.39971399784E+03  0.41800000000E+01 0.  1.
         -5    1    3    3    0  502 -0.51627305474E+02 -0.13128169353E+02 -0.65439810345E+02  0.84484132706E+02  0.41800000000E+01 0.  1.
        -11    1    4    4    0    0 -0.74256740683E+01  0.31344205844E+02 -0.20605070874E+02  0.38238316138E+02  0.00000000000E+00 0.  1.
         11    1    4    4    0    0  0.57317593316E+02 -0.25720402758E+02 -0.14938043083E+03  0.16205356749E+03  0.00000000000E+00 0. -1.
</event>
<event>
 8    1  0.6692409E-009  0.1277921E+03  0.7561462E-02  0.1230769E+00
          4   -1    0    0  501    0  0.00000000000E+00  0.00000000000E+00  0.19349866655E+03  0.19349866655E+03  0.00000000000E+00 0. -1.
         -4   -1    0    0    0  501 -0.00000000000E+00 -0.00000000000E+00 -0.11939058687E+03  0.11939058687E+03  0.00000000000E+00 0.  1.
         25    2    1    2    0    0  0.58028654311E+02  0.53761381912E+02  0.11255542529E+03  0.18593983328E+03  0.12508911596E+03 0.  0.
         23    2    1    2    0    0 -0.58028654311E+02 -0.53761381912E+02 -0.38447345614E+02  0.12694942014E+03  0.91544229653E+02 0.  0.
          5    1    3    3  502    0 -0.27023074685E+02 -0.13581944898E+02  0.55381465002E+02  0.63239978324E+02  0.41800000000E+01 0.  1.
         -5    1    3    3    0  502  0.85051728996E+02  0.67343326810E+02  0.57173960292E+02  0.12269985496E+03  0.41800000000E+01 0.  1.
        -11    1    4    4    0    0 -0.82841335313E+01  0.23320284978E+02 -0.23256958582E+02  0.33960987652E+02  0.00000000000E+00 0.  1.
         11    1    4    4    0    0 -0.49744520780E+02 -0.77081666890E+02 -0.15190387032E+02  0.92988432487E+02  0.00000000000E+00 0. -1.
</event>
<event>
 7    1  0.6692409E-009  0.1148573E+03  0.7561462E-02  0.1251830E+00
          1   -1    0    0  501    0  0.00000000000E+00  0.00000000000E+00  0.48375670556E+03  0.48375670556E+03  0.00000000000E+00 0. -1.
         -1   -1    0    0    0  501 -0.00000000000E+00 -0.00000000000E+00 -0.67008169787E+02  0.67008169787E+02  0.00000000000E+00 0.  1.
         23    2    1    2    0    0  0.38421587909E+02  0.76828064956E+01  0.40744577534E+03  0.41949030450E+03  0.91786773499E+02 0.  0.
          5    1    1    2  502    0 -0.22740166609E+02 -0.65974097419E+02  0.10856908221E+02  0.70746318376E+02  0.41800000000E+01 0.  1.
         -5    1    1    2    0  502 -0.15681421300E+02  0.58291290924E+02 -0.15541477970E+01  0.60528252469E+02  0.41800000000E+01 0.  1.
        -11    1    3    3    0    0  0.10186938735E+02 -0.41421128194E+02  0.19611790294E+03  0.20070305288E+03  0.00000000000E+00 0. -1.
         11    1    3    3    0    0  0.28234649173E+02  0.49103934690E+02  0.21132787240E+03  0.21878725162E+03  0.00000000000E+00 0.  1.
</event>
<event>
 8    1  0.6692409E-009  0.9469215E+02  0.7561462E-02  0.1291871E+00
         -1   -1    0    0    0  501 -0.00000000000E+00  0.00000000000E+00  0.38186361511E+03  0.38186361511E+03  0.00000000000E+00 0.  1.
          1   -1    0    0  501    0  0.00000000000E+00 -0.00000000000E+00 -0.44443632459E+02  0.44443632459E+02  0.00000000000E+00 0. -1.
         25    2    1    2    0    0  0.55066224105E+02 -0.75717007402E+01  0.11871344419E+03  0.18119248010E+03  0.12509281884E+03 0.  0.
         23    2    1    2    0    0 -0.55066224105E+02  0.75717007402E+01  0.21870653846E+03  0.24511476746E+03  0.95703080278E+02 0.  0.
          5    1    3    3  502    0  0.52672572210E+02 -0.42474422857E+02  0.12044321592E+02  0.68855025545E+02  0.41800000000E+01 0. -1.
         -5    1    3    3    0  502  0.23936518946E+01  0.34902722117E+02  0.10666912260E+03  0.11233745456E+03  0.41800000000E+01 0. -1.
        -11    1    4    4    0    0 -0.39538716353E+02  0.36316912781E+02  0.20081118570E+03  0.20786380288E+03  0.00000000000E+00 0.  1.
         11    1    4    4    0    0 -0.15527507752E+02 -0.28745212040E+02  0.17895352761E+02  0.37250964587E+02  0.00000000000E+00 0. -1.
</event>
<event>
 8    1  0.6692409E-009  0.1303496E+03  0.7561462E-02  0.1226938E+00
         -2   -1    0    0    0  501 -0.00000000000E+00  0.00000000000E+00  0.32763347273E+02  0.32763347273E+02  0.00000000000E+00 0.  1.
          2   -1    0    0  501    0  0.00000000000E+00 -0.00000000000E+00 -0.59179481179E+03  0.59179481179E+03  0.00000000000E+00 0. -1.
         25    2    1    2    0    0  0.80225510246E+02  0.27453145508E+02 -0.36133768663E+03  0.39166574538E+03  0.12508926664E+03 0.  0.
         23    2    1    2    0    0 -0.80225510246E+02 -0.27453145508E+02 -0.19769377788E+03  0.23289241368E+03  0.89253788968E+02 0.  0.
          5    1    3    3  502    0  0.70039735594E+02  0.68605778850E+02 -0.17613395310E+03  0.20162579024E+03  0.41800000000E+01 0.  1.
         -5    1    3    3    0  502  0.10185774652E+02 -0.41152633341E+02 -0.18520373353E+03  0.19003995514E+03  0.41800000000E+01 0.  1.
        -11    1    4    4    0    0 -0.96794169853E+02 -0.33353882613E+02 -0.18414201832E+03  0.21068904982E+03  0.00000000000E+00 0. -1.
         11    1    4    4    0    0  0.16568659607E+02  0.59007371049E+01 -0.13551759558E+02  0.22203363860E+02  0.00000000000E+00 0.  1.
</event>
<event>
 8    1  0.6692409E-009  0.1572326E+03  0.7561462E-02  0.1191857E+00
          1   -1    0    0  501    0  0.00000000000E+00  0.00000000000E+00  0.63003025147E+02  0.63003025147E+02  0.00000000000E+00 0. -1.
         -1   -1    0    0    0  501 -0.00000000000E+00 -0.00000000000E+00 -0.40936940805E+03  0.40936940805E+03  0.00000000000E+00 0.  1.
         25    2    1    2    0    0  0.10291755939E+03 -0.50393745923E+02 -0.14732267674E+03  0.22468634449E+03  0.12509367955E+03 0.  0.
         23    2    1    2    0    0 -0.10291755939E+03  0.50393745923E+02 -0.19904370617E+03  0.24768608871E+03  0.92727816300E+02 0.  0.
          5    1    3    3  502    0  0.21944808928E+02 -0.80110022724E+02 -0.67957165388E+02  0.10740036828E+03  0.41800000000E+01 0. -1.
         -5    1    3    3    0  502  0.80972750459E+02  0.29716276801E+02 -0.79365511353E+02  0.11728597621E+03  0.41800000000E+01 0. -1.
        -11    1    4    4    0    0 -0.87529648908E+00  0.42595353308E+02 -0.80493418866E+02  0.91073161514E+02  0.00000000000E+00 0.  1.
         11    1    4    4    0    0 -0.10204226290E+03  0.77983926145E+01 -0.11855028730E+03  0.15661292719E+03  0.00000000000E+00 0. -1.
</event>
<event>
 8    1  0.6692409E-009  0.8147113E+02  0.7561462E-02  0.1324928E+00
         -1   -1    0    0    0  501 -0.00000000000E+00  0.00000000000E+00  0.12109486358E+03  0.12109486358E+03  0.00000000000E+00 0.  1.
          1   -1    0    0  501    0  0.00000000000E+00 -0.00000000000E+00 -0.11167385933E+03  0.11167385933E+03  0.00000000000E+00 0. -1.
         25    2    1    2    0    0 -0.17150120657E+02  0.41209258297E+02  0.44963021107E+01  0.13289429194E+03  0.12509335110E+03 0.  0.
         23    2    1    2    0    0  0.17150120657E+02 -0.41209258297E+02  0.49247021383E+01  0.99874430971E+02  0.89209414653E+02 0.  0.
          5    1    3    3  502    0 -0.34863252745E+02  0.69736277120E+02 -0.30859892350E+02  0.83954750279E+02  0.41800000000E+01 0.  1.
         -5    1    3    3    0  502  0.17713132087E+02 -0.28527018824E+02  0.35356194460E+02  0.48939541661E+02  0.41800000000E+01 0.  1.
        -11    1    4    4    0    0  0.59493296546E+01 -0.39197971750E+02  0.43969720746E+02  0.59204829661E+02  0.00000000000E+00 0.  1.
         11    1    4    4    0    0  0.11200791003E+02 -0.20112865468E+01 -0.39045018608E+02  0.40669601310E+02  0.00000000000E+00 0. -1.
</event>
<event>
 8    1  0.6692409E-009  0.8227446E+02  0.7561462E-02  0.1322718E+00
          2   -1    0    0  501    0  0.00000000000E+00  0.00000000000E+00  0.98726531095E+03  0.98726531095E+03  0.00000000000E+00 0. -1.
         -2   -1    0    0    0  501 -0.00000000000E+00 -0.00000000000E+00 -0.19383164716E+02  0.19383164716E+02  0.00000000000E+00 0.  1.
         25    2    1    2    0    0  0.22109008740E+02  0.44540613909E+01  0.81761126147E+03  0.82743249765E+03  0.12509083247E+03 0.  0.
         23    2    1    2    0    0 -0.22109008740E+02 -0.44540613909E+01  0.15027088477E+03  0.17921597801E+03  0.95017793259E+02 0.  0.
          5    1    3    3  502    0  0.20850494605E+02 -0.52851923719E+02  0.22731865773E+03  0.23434870069E+03  0.41800000000E+01 0.  1.
         -5    1    3    3    0  502  0.12585141344E+01  0.57305985110E+02  0.59029260374E+03  0.59308379696E+03  0.41800000000E+01 0.  1.
        -11    1    4    4    0    0 -0.50475372123E+01 -0.23790360734E+02 -0.23487665126E+01  0.24433084126E+02  0.00000000000E+00 0.  1.
         11    1    4    4    0    0 -0.17061471527E+02  0.19336299343E+02  0.15261965128E+03  0.15478289389E+03  0.00000000000E+00 0. -1.
</event>
<event>
 8    1  0.6692409E-009  0.9155644E+02  0.7561462E-02  0.1299126E+00
         -1   -1    0    0    0  501 -0.00000000000E+00  0.00000000000E+00  0.34551338685E+03  0.34551338685E+03  0.00000000000E+00 0.  1.
          1   -1    0    0  501    0  0.00000000000E+00 -0.00000000000E+00 -0.35717573914E+02  0.35717573914E+02  0.00000000000E+00 0. -1.
         25    2    1    2    0    0 -0.76292476592E+01  0.23847056383E+02  0.18814781593E+03  0.22731946169E+03  0.12509056522E+03 0.  0.
         23    2    1    2    0    0  0.76292476592E+01 -0.23847056383E+02  0.12164799701E+03  0.15391149907E+03  0.90904493030E+02 0.  0.
          5    1    3    3  502    0 -0.29010798287E+02 -0.26765230541E+02  0.10124056421E+02  0.40963067532E+02  0.41800000000E+01 0.  1.
         -5    1    3    3    0  502  0.21381550628E+02  0.50612286925E+02  0.17802375951E+03  0.18635639416E+03  0.41800000000E+01 0.  1.
        -11    1    4    4    0    0 -0.46113889591E+01  0.31397365371E+02  0.19811477415E+02  0.37410614774E+02  0.00000000000E+00 0. -1.
         11    1    4    4    0    0  0.12240636618E+02 -0.55244421755E+02  0.10183651959E+03  0.11650088430E+03  0.00000000000E+00 0.  1.
</event>
<event>
 8    1  0.6692409E-009  0.1109934E+03  0.7561462E-02  0.1258741E+00
         -3   -1    0    0    0  501 -0.00000000000E+00  0.00000000000E+00  0.97041879923E+02  0.97041879923E+02  0.00000000000E+00 0.  1.
          3   -1    0    0  501    0  0.00000000000E+00 -0.00000000000E+00 -0.13011366017E+03  0.13011366017E+03  0.00000000000E+00 0. -1.
         25    2    1    2    0    0  0.22525961400E+02 -0.21768038540E+02 -0.24574441763E+02  0.13127385946E+03  0.12509059337E+03 0.  0.
         23    2    1    2    0    0 -0.22525961400E+02  0.21768038540E+02 -0.84973384882E+01  0.95881680641E+02  0.90220981387E+02 0.  0.
          5    1    3    3  502    0  0.64694185780E+02  0.19220756244E+02 -0.57455925412E+00  0.67620837488E+02  0.41800000000E+01 0.  1.
         -5    1    3    3    0  502 -0.42168224380E+02 -0.40988794784E+02 -0.23999882509E+02  0.63653021968E+02  0.41800000000E+01 0.  1.
        -11    1    4    4    0    0  0.51946676636E+01  0.53229034768E+02 -0.68420986822E+01  0.53917798813E+02  0.00000000000E+00 0. -1.
         11    1    4    4    0    0 -0.27720629063E+02 -0.31460996228E+02 -0.16552398060E+01  0.41963881828E+02  0.00000000000E+00 0.  1.
</event>
<event>
 8    1  0.6692409E-009  0.9059976E+02  0.7561462E-02  0.1301406E+00
          2   -1    0    0  501    0  0.00000000000E+00  0.00000000000E+00  0.75671050152E+02  0.75671050152E+02  0.00000000000E+00 0. -1.
         -2   -1    0    0    0  501 -0.00000000000E+00 -0.00000000000E+00 -0.35973908407E+03  0.35973908407E+03  0.00000000000E+00 0.  1.
         25    2    1    2    0    0  0.49162780258E+02 -0.25846282159E+02 -0.58599498461E+01  0.13699245980E+03  0.12509031044E+03 0.  0.
         23    2    1    2    0    0 -0.49162780258E+02  0.25846282159E+02 -0.27820808407E+03  0.29841767442E+03  0.92565442267E+02 0.  0.
          5    1    3    3  502    0  0.18064383511E+02  0.23805889657E+02 -0.53461538153E+02  0.61389337801E+02  0.41800000000E+01 0.  1.
         -5    1    3    3    0  502  0.31098396748E+02 -0.49652171815E+02  0.47601588307E+02  0.75603121996E+02  0.41800000000E+01 0.  1.
        -11    1    4    4    0    0 -0.46228563898E+02 -0.17064659193E+02 -0.68733159161E+02  0.84572630807E+02  0.00000000000E+00 0. -1.
         11    1    4    4    0    0 -0.29342163605E+01  0.42910941352E+02 -0.20947492491E+03  0.21384504361E+03  0.00000000000E+00 0.  1.
</event>
<event>
 8    1  0.6692409E-009  0.9082461E+02  0.7561462E-02  0.1300867E+00
         -4   -1    0    0    0  501 -0.00000000000E+00  0.00000000000E+00  0.64907655311E+02  0.64907655311E+02  0.00000000000E+00 0. -1.
          4   -1    0    0  501    0  0.00000000000E+00 -0.00000000000E+00 -0.20760722480E+03  0.20760722480E+03  0.00000000000E+00 0.  1.
         25    2    1    2    0    0 -0.18961996803E+01  0.15830187087E+02 -0.54191903553E+02  0.13725570585E+03  0.12509266957E+03 0.  0.
         23    2    1    2    0    0  0.18961996803E+01 -0.15830187087E+02 -0.88507665933E+02  0.13525917426E+03  0.10103092049E+03 0.  0.
          5    1    3    3  502    0  0.42844692716E+02 -0.20650838152E+01 -0.73477866629E+02  0.85184514728E+02  0.41800000000E+01 0.  1.
         -5    1    3    3    0  502 -0.44740892396E+02  0.17895270902E+02  0.19285963076E+02  0.52071191122E+02  0.41800000000E+01 0.  1.
        -11    1    4    4    0    0  0.36067310824E+02  0.19525717418E+02 -0.72945964586E+02  0.83685233465E+02  0.00000000000E+00 0.  1.
         11    1    4    4    0    0 -0.34171111144E+02 -0.35355904505E+02 -0.15561701347E+02  0.51573940794E+02  0.00000000000E+00 0. -1.
</event>
<event>
 8    1  0.6692409E-009  0.1693135E+03  0.7561462E-02  0.1178566E+00
          3   -1    0    0  501    0  0.00000000000E+00  0.00000000000E+00  0.50401847049E+02  0.50401847049E+02  0.00000000000E+00 0. -1.
         -3   -1    0    0    0  501 -0.00000000000E+00 -0.00000000000E+00 -0.66553710080E+03  0.66553710080E+03  0.00000000000E+00 0.  1.
         25    2    1    2    0    0  0.33066641019E+01 -0.14815681952E+03 -0.37726974522E+03  0.42419367607E+03  0.12508571846E+03 0.  0.
         23    2    1    2    0    0 -0.33066641019E+01  0.14815681952E+03 -0.23786550853E+03  0.29174527178E+03  0.81079752446E+02 0.  0.
          5    1    3    3  502    0  0.35735011763E+02 -0.13709978271E+03 -0.20972866177E+03  0.25313420442E+03  0.41800000000E+01 0.  1.
         -5    1    3    3    0  502 -0.32428347661E+02 -0.11057036818E+02 -0.16754108345E+03  0.17105947165E+03  0.41800000000E+01 0.  1.
        -11    1    4    4    0    0 -0.32461913014E+02  0.47188243503E+02 -0.12516670938E+03  0.13764886944E+03  0.00000000000E+00 0.  1.
         11    1    4    4    0    0  0.29155248912E+02  0.10096857602E+03 -0.11269879915E+03  0.15409640233E+03  0.00000000000E+00 0. -1.
</event>
<event>
 8    1  0.6692409E-009  0.1189347E+03  0.7561462E-02  0.1244865E+00
          2   -1    0    0  501    0  0.00000000000E+00  0.00000000000E+00  0.11366768613E+04  0.11366768613E+04  0.00000000000E+00 0. -1.
         -2   -1    0    0    0  501 -0.00000000000E+00 -0.00000000000E+00 -0.26323048213E+02  0.26323048213E+02  0.00000000000E+00 0.  1.
         25    2    1    2    0    0 -0.47528602678E+02  0.60418682319E+02  0.95575011155E+03  0.96696840719E+03  0.12514087870E+03 0.  0.
         23    2    1    2    0    0  0.47528602678E+02 -0.60418682319E+02  0.15460370154E+03  0.19603150233E+03  0.92825966897E+02 0.  0.
          5    1    3    3  502    0 -0.50499648137E+02  0.94271034602E+02  0.82054287009E+03  0.82749339362E+03  0.41800000000E+01 0. -1.
         -5    1    3    3    0  502  0.29710454589E+01 -0.33852352283E+02  0.13520724146E+03  0.13947501357E+03  0.41800000000E+01 0. -1.
        -11    1    4    4    0    0  0.22852342393E+02  0.77309496282E+01 -0.12414558098E+01  0.24156538402E+02  0.00000000000E+00 0.  1.
         11    1    4    4    0    0  0.24676260284E+02 -0.68149631947E+02  0.15584515735E+03  0.17187496393E+03  0.00000000000E+00 0. -1.
</event>
<event>
 8    1  0.6692409E-009  0.1311380E+03  0.7561462E-02  0.1225777E+00
         -4   -1    0    0    0  501 -0.00000000000E+00  0.00000000000E+00  0.81173140949E+02  0.81173140949E+02  0.00000000000E+00 0.  1.
          4   -1    0    0  501    0  0.00000000000E+00 -0.00000000000E+00 -0.36270011842E+03  0.36270011842E+03  0.00000000000E+00 0. -1.
         25    2    1    2    0    0 -0.35608787191E+02  0.96741706538E+02 -0.25779227915E+03  0.30451776403E+03  0.12508903193E+03 0.  0.
         23    2    1    2    0    0  0.35608787191E+02 -0.96741706538E+02 -0.23734698316E+02  0.13935549534E+03  0.90717554353E+02 0.  0.
          5    1    3    3  502    0 -0.73306441579E+02  0.42191468219E+02 -0.19712974294E+03  0.21454967331E+03  0.41800000000E+01 0.  1.
         -5    1    3    3    0  502  0.37697654388E+02  0.54550238319E+02 -0.60662536211E+02  0.89968090714E+02  0.41800000000E+01 0.  1.
        -11    1    4    4    0    0  0.26958576884E+02 -0.19123220129E+02 -0.47367312835E+02  0.57759196159E+02  0.00000000000E+00 0. -1.
         11    1    4    4    0    0  0.86502103073E+01 -0.77618486409E+02  0.23632614519E+02  0.81596299180E+02  0.00000000000E+00 0.  1.
</event>
<event>
 8    1  0.6692409E-009  0.1416450E+03  0.7561462E-02  0.1211132E+00
          2   -1    0    0  501    0  0.00000000000E+00  0.00000000000E+00  0.13689591621E+04  0.13689591621E+04  0.00000000000E+00 0. -1.
         -2   -1    0    0    0  501 -0.00000000000E+00 -0.00000000000E+00 -0.18001168915E+02  0.18001168915E+02  0.00000000000E+00 0.  1.
         25    2    1    2    0    0  0.88965196278E+02 -0.64628603522E+02  0.85953749929E+03  0.87552467504E+03  0.12508829430E+03 0.  0.
         23    2    1    2    0    0 -0.88965196278E+02  0.64628603522E+02  0.49142049393E+03  0.51143565601E+03  0.89334572508E+02 0.  0.
          5    1    3    3  502    0  0.11728106612E+03 -0.47940324129E+02  0.76300626565E+03  0.77346567924E+03  0.41800000000E+01 0.  1.
         -5    1    3    3    0  502 -0.28315869843E+02 -0.16688279392E+02  0.96531233641E+02  0.10205899579E+03  0.41800000000E+01 0.  1.
        -11    1    4    4    0    0 -0.44544740057E+02 -0.50647031309E+00  0.71980242768E+02  0.84650137199E+02  0.00000000000E+00 0.  1.
         11    1    4    4    0    0 -0.44420456221E+02  0.65135073835E+02  0.41944025116E+03  0.42678551881E+03  0.00000000000E+00 0. -1.
</event>
<event>
 8    1  0.6692409E-009  0.8268495E+02  0.7561462E-02  0.1321600E+00
         -1   -1    0    0    0  501 -0.00000000000E+00  0.00000000000E+00  0.20168943359E+03  0.20168943359E+03  0.00000000000E+00 0.  1.
          1   -1    0    0  501    0  0.00000000000E+00 -0.00000000000E+00 -0.26181894822E+03  0.26181894822E+03  0.00000000000E+00 0. -1.
         25    2    1    2    0    0 -0.11781969921E+02  0.53290847224E+02  0.16548068788E+03  0.21449357796E+03  0.12507960549E+03 0.  0.
         23    2    1    2    0    0  0.11781969921E+02 -0.53290847224E+02 -0.22561020252E+03  0.24901480385E+03  0.90164737260E+02 0.  0.
          5    1    3    3  502    0  0.95298825129E+01  0.15747204542E+02 -0.17924372883E+02  0.26029764787E+02  0.41800000000E+01 0.  1.
         -5    1    3    3    0  502 -0.21311852434E+02  0.37543642682E+02  0.18340506077E+03  0.18846381317E+03  0.41800000000E+01 0.  1.
        -11    1    4    4    0    0  0.90328973829E+01  0.24071753951E+02 -0.36246595314E+02  0.44439377193E+02  0.00000000000E+00 0. -1.
         11    1    4    4    0    0  0.27490725379E+01 -0.77362601175E+02 -0.18936360720E+03  0.20457542666E+03  0.00000000000E+00 0.  1.
</event>
<event>
 8    1  0.6692409E-009  0.8146520E+02  0.7561462E-02  0.1324944E+00
         -1   -1    0    0    0  501 -0.00000000000E+00  0.00000000000E+00  0.22375076609E+02  0.22375076609E+02  0.00000000000E+00 0.  1.
          1   -1    0    0  501    0  0.00000000000E+00 -0.00000000000E+00 -0.65915581949E+03  0.65915581949E+03  0.00000000000E+00 0. -1.
         25    2    1    2    0    0 -0.29376816291E+01  0.55670754813E+02 -0.38647149390E+03  0.41001015126E+03  0.12506096762E+03 0.  0.
         23    2    1    2    0    0  0.29376816291E+01 -0.55670754813E+02 -0.25030924898E+03  0.27152074484E+03  0.89224054152E+02 0.  0.
          5    1    3    3  502    0  0.38887400168E+01  0.36707872616E+02 -0.18567609987E+02  0.41530937282E+02  0.41800000000E+01 0. -1.
         -5    1    3    3    0  502 -0.68264216458E+01  0.18962882198E+02 -0.36790388391E+03  0.36847921398E+03  0.41800000000E+01 0. -1.
        -11    1    4    4    0    0 -0.81283197634E+01 -0.78979103362E+02 -0.19053165668E+03  0.20641240406E+03  0.00000000000E+00 0.  1.
         11    1    4    4    0    0  0.11066001392E+02  0.23308348549E+02 -0.59777592299E+02  0.65108340786E+02  0.00000000000E+00 0. -1.
</event>
<event>
 8    1  0.6692409E-009  0.1757360E+03  0.7561462E-02  0.1171995E+00
          2   -1    0    0  501    0  0.00000000000E+00  0.00000000000E+00  0.16000693173E+03  0.16000693173E+03  0.00000000000E+00 0. -1.
         -2   -1    0    0    0  501 -0.00000000000E+00 -0.00000000000E+00 -0.22616020818E+03  0.22616020818E+03  0.00000000000E+00 0.  1.
         25    2    1    2    0    0 -0.14629260915E+03  0.29647705040E+02 -0.81727097196E+02  0.21120343191E+03  0.12508819820E+03 0.  0.
         23    2    1    2    0    0  0.14629260915E+03 -0.29647705040E+02  0.15573820741E+02  0.17496370800E+03  0.89940209690E+02 0.  0.
          5    1    3    3  502    0 -0.61494055379E+01 -0.28183444184E+02  0.13499440181E+02  0.32122095195E+02  0.41800000000E+01 0.  1.
         -5    1    3    3    0  502 -0.14014320361E+03  0.57831149224E+02 -0.95226537377E+02  0.17908133672E+03  0.41800000000E+01 0.  1.
        -11    1    4    4    0    0  0.11753093949E+03 -0.57306101242E+02 -0.33517458336E+01  0.13080040205E+03  0.00000000000E+00 0.  1.
         11    1    4    4    0    0  0.28761669660E+02  0.27658396202E+02  0.18925566575E+02  0.44163305949E+02  0.00000000000E+00 0. -1.
</event>
<event>
 8    1  0.6692409E-009  0.9453734E+02  0.7561462E-02  0.1292222E+00
         -1   -1    0    0    0  501 -0.00000000000E+00  0.00000000000E+00  0.87119530475E+02  0.87119530475E+02  0.00000000000E+00 0.  1.
          1   -1    0    0  501    0  0.00000000000E+00 -0.00000000000E+00 -0.14626298332E+03  0.14626298332E+03  0.00000000000E+00 0. -1.
         25    2    1    2    0    0  0.26517425299E+02  0.28042746507E+01 -0.28481176936E+02  0.13103240140E+03  0.12508906818E+03 0.  0.
         23    2    1    2    0    0 -0.26517425299E+02 -0.28042746507E+01 -0.30662275908E+02  0.10235011239E+03  0.93937918551E+02 0.  0.
          5    1    3    3  502    0  0.20238369420E+01  0.57892477332E+02 -0.38631510363E+02  0.69753142155E+02  0.41800000000E+01 0.  1.
         -5    1    3    3    0  502  0.24493588357E+02 -0.55088202681E+02  0.10150333427E+02  0.61279259248E+02  0.41800000000E+01 0.  1.
        -11    1    4    4    0    0  0.21692300033E+02 -0.51551818679E+01  0.21715711135E+02  0.31124008272E+02  0.00000000000E+00 0.  1.
         11    1    4    4    0    0 -0.48209725331E+02  0.23509072173E+01 -0.52377987043E+02  0.71226104119E+02  0.00000000000E+00 0. -1.
</event>
<event>
 8    1  0.6692409E-009  0.1257243E+03  0.7561462E-02  0.1233942E+00
         -1   -1    0    0    0  501 -0.00000000000E+00  0.00000000000E+00  0.25090131085E+03  0.25090131085E+03  0.00000000000E+00 0.  1.
          1   -1    0    0  501    0  0.00000000000E+00 -0.00000000000E+00 -0.83874989034E+02  0.83874989034E+02  0.00000000000E+00 0. -1.
         25    2    1    2    0    0  0.22592922589E+02 -0.76083059152E+02  0.27899344123E+02  0.15074871793E+03  0.12509088901E+03 0.  0.
         23    2    1    2    0    0 -0.22592922589E+02  0.76083059152E+02  0.13912697769E+03  0.18402758195E+03  0.90613260376E+02 0.  0.
          5    1    3    3  502    0 -0.11406750210E+02  0.31835854555E+02 -0.25356242574E+00  0.34075978042E+02  0.41800000000E+01 0.  1.
         -5    1    3    3    0  502  0.33999672800E+02 -0.10791891371E+03  0.28152906549E+02  0.11667273989E+03  0.41800000000E+01 0.  1.
        -11    1    4    4    0    0  0.18428649018E+02  0.83780126873E+00 -0.23715499726E+01  0.18599496360E+02  0.00000000000E+00 0. -1.
         11    1    4    4    0    0 -0.41021571607E+02  0.75245257884E+02  0.14149852766E+03  0.16542808559E+03  0.00000000000E+00 0.  1.
</event>
<event>
 8    1  0.6692409E-009  0.1513236E+03  0.7561462E-02  0.1198856E+00
          1   -1    0    0  501    0  0.00000000000E+00  0.00000000000E+00  0.31283189031E+03  0.31283189031E+03  0.00000000000E+00 0. -1.
         -1   -1    0    0    0  501 -0.00000000000E+00 -0.00000000000E+00 -0.97912152675E+02  0.97912152675E+02  0.00000000000E+00 0.  1.
         25    2    1    2    0    0  0.60859032370E+02  0.85571843298E+02  0.11737135545E+02  0.16374683677E+03  0.12509557951E+03 0.  0.
         23    2    1    2    0    0 -0.60859032370E+02 -0.85571843298E+02  0.20318260209E+03  0.24699720622E+03  0.93263540040E+02 0.  0.
          5    1    3    3  502    0  0.40359478692E+02 -0.26359528070E+02  0.12102628208E+02  0.49876429803E+02  0.41800000000E+01 0. -1.
         -5    1    3    3    0  502  0.20499553678E+02  0.11193137137E+03 -0.36549266272E+00  0.11387040696E+03  0.41800000000E+01 0. -1.
        -11    1    4    4    0    0 -0.56975757708E+02 -0.10560021487E+03  0.17122846271E+03  0.20908569723E+03  0.00000000000E+00 0.  1.
         11    1    4    4    0    0 -0.38832746613E+01  0.20028371568E+02  0.31954139390E+02  0.37911508990E+02  0.00000000000E+00 0. -1.
</event>
<event>
 8    1  0.6692409E-009  0.1268299E+03  0.7561462E-02  0.1232237E+00
          1   -1    0    0  501    0  0.00000000000E+00  0.00000000000E+00  0.28835911671E+03  0.28835911671E+03  0.00000000000E+00 0.  1.
         -1   -1    0    0    0  501 -0.00000000000E+00 -0.00000000000E+00 -0.67618308974E+02  0.67618308974E+02  0.00000000000E+00 0. -1.
         25    2    1    2    0    0  0.72296660666E+02 -0.42210788877E+02  0.88507685054E+02  0.17461214946E+03  0.12508890671E+03 0.  0.
         23    2    1    2    0    0 -0.72296660666E+02  0.42210788877E+02  0.13223312268E+03  0.18136527623E+03  0.91647186789E+02 0.  0.
          5    1    3    3  502    0 -0.33972193453E+02 -0.23375398997E+02  0.34116573286E+02  0.53683630457E+02  0.41800000000E+01 0.  1.
         -5    1    3    3    0  502  0.10626885412E+03 -0.18835389880E+02  0.54391111768E+02  0.12092851900E+03  0.41800000000E+01 0.  1.
        -11    1    4    4    0    0 -0.27865628622E+02  0.51737233089E+02  0.12106328341E+03  0.13457173974E+03  0.00000000000E+00 0.  1.
         11    1    4    4    0    0 -0.44431032044E+02 -0.95264442126E+01  0.11169839271E+02  0.46793536489E+02  0.00000000000E+00 0. -1.
</event>
<event>
 8    1  0.6692409E-009  0.7650821E+02  0.7561462E-02  0.1339263E+00
          2   -1    0    0  501    0  0.00000000000E+00  0.00000000000E+00  0.15259915909E+03  0.15259915909E+03  0.00000000000E+00 0. -1.
         -2   -1    0    0    0  501 -0.00000000000E+00 -0.00000000000E+00 -0.85757902668E+02  0.85757902668E+02  0.00000000000E+00 0.  1.
         25    2    1    2    0    0  0.73524817472E+01 -0.24203080195E+02  0.65611197463E+02  0.14349972967E+03  0.12508994806E+03 0.  0.
         23    2    1    2    0    0 -0.73524817472E+01  0.24203080195E+02  0.12300589589E+01  0.94857332087E+02  0.91414180119E+02 0.  0.
          5    1    3    3  502    0  0.51962984026E+02 -0.15328754267E+02  0.79016603602E+02  0.95896915806E+02  0.41800000000E+01 0. -1.
         -5    1    3    3    0  502 -0.44610502279E+02 -0.88743259280E+01 -0.13405406139E+02  0.47602813866E+02  0.41800000000E+01 0. -1.
        -11    1    4    4    0    0 -0.27239007133E+02  0.14890247407E+02 -0.38503773716E+02  0.49459312246E+02  0.00000000000E+00 0.  1.
         11    1    4    4    0    0  0.19886525386E+02  0.93128327871E+01  0.39733832675E+02  0.45398019841E+02  0.00000000000E+00 0. -1.
</event>
<event>
 8    1  0.6692409E-009  0.1621275E+03  0.7561462E-02  0.1186316E+00
          2   -1    0    0  501    0  0.00000000000E+00  0.00000000000E+00  0.13297898080E+03  0.13297898080E+03  0.00000000000E+00 0.  1.
         -2   -1    0    0    0  501 -0.00000000000E+00 -0.00000000000E+00 -0.26180884745E+03  0.26180884745E+03  0.00000000000E+00 0. -1.
         25    2    1    2    0    0 -0.45193355009E+02 -0.14170100901E+03 -0.46358067329E+02  0.19979653064E+03  0.12509183809E+03 0.  0.
         23    2    1    2    0    0  0.45193355009E+02  0.14170100901E+03 -0.82471799324E+02  0.19499129762E+03  0.95385497697E+02 0.  0.
          5    1    3    3  502    0 -0.41296055068E+01 -0.20778025414E+02 -0.66975554149E+02  0.70370286594E+02  0.41800000000E+01 0. -1.
         -5    1    3    3    0  502 -0.41063749503E+02 -0.12092298359E+03  0.20617486819E+02  0.12942624404E+03  0.41800000000E+01 0. -1.
        -11    1    4    4    0    0  0.39402026914E+02  0.69464346163E+01 -0.76006214469E+01  0.40725202580E+02  0.00000000000E+00 0.  1.
         11    1    4    4    0    0  0.57913280956E+01  0.13475457439E+03 -0.74871177877E+02  0.15426609504E+03  0.00000000000E+00 0. -1.
</event>
<event>
 8    1  0.6692409E-009  0.1281883E+03  0.7561462E-02  0.1230169E+00
          2   -1    0    0  501    0  0.00000000000E+00  0.00000000000E+00  0.14342998541E+04  0.14342998541E+04  0.00000000000E+00 0. -1.
         -2   -1    0    0    0  501 -0.00000000000E+00 -0.00000000000E+00 -0.13859027826E+02  0.13859027826E+02  0.00000000000E+00 0.  1.
         25    2    1    2    0    0  0.64680646121E+02 -0.61910707968E+02  0.81871936708E+03  0.83304584067E+03  0.12508976332E+03 0.  0.
         23    2    1    2    0    0 -0.64680646121E+02  0.61910707968E+02  0.60172145920E+03  0.61511304126E+03  0.90988006469E+02 0.  0.
          5    1    3    3  502    0  0.99674315762E+01 -0.73414518812E+02  0.67021571197E+03  0.67431121468E+03  0.41800000000E+01 0. -1.
         -5    1    3    3    0  502  0.54713214545E+02  0.11503810844E+02  0.14850365511E+03  0.15873462599E+03  0.41800000000E+01 0. -1.
        -11    1    4    4    0    0 -0.85891729386E+02  0.37372713889E+02  0.48533347832E+03  0.49429009104E+03  0.00000000000E+00 0. -1.
         11    1    4    4    0    0  0.21211083265E+02  0.24537994079E+02  0.11638798088E+03  0.12082295022E+03  0.00000000000E+00 0.  1.
</event>
<event>
 8    1  0.6692409E-009  0.1260346E+03  0.7561462E-02  0.1233461E+00
         -3   -1    0    0    0  501 -0.00000000000E+00  0.00000000000E+00  0.62730968907E+02  0.62730968907E+02  0.00000000000E+00 0.  1.
          3   -1    0    0  501    0  0.00000000000E+00 -0.00000000000E+00 -0.38447785645E+03  0.38447785645E+03  0.00000000000E+00 0. -1.
         25    2    1    2    0    0  0.10812849947E+03 -0.12279371484E+02 -0.21101492114E+03  0.26835992555E+03  0.12508875784E+03 0.  0.
         23    2    1    2    0    0 -0.10812849947E+03  0.12279371484E+02 -0.11073196641E+03  0.17884889981E+03  0.88785163267E+02 0.  0.
          5    1    3    3  502    0  0.23047587766E+02 -0.16936264313E+02 -0.17224378009E+03  0.17465228464E+03  0.41800000000E+01 0.  1.
         -5    1    3    3    0  502  0.85080911703E+02  0.46568928283E+01 -0.38771141047E+02  0.93707640911E+02  0.41800000000E+01 0.  1.
        -11    1    4    4    0    0 -0.33431534779E+02 -0.35829835612E+02 -0.56351996672E+02  0.74679261958E+02  0.00000000000E+00 0.  1.
         11    1    4    4    0    0 -0.74696964690E+02  0.48109207096E+02 -0.54379969735E+02  0.10416963785E+03  0.00000000000E+00 0. -1.
</event>
<event>
 8    1  0.6692409E-009  0.1087446E+03  0.7561462E-02  0.1262912E+00
          2   -1    0    0  501    0  0.00000000000E+00  0.00000000000E+00  0.32204446626E+03  0.32204446626E+03  0.00000000000E+00 0.  1.
         -2   -1    0    0    0  501 -0.00000000000E+00 -0.00000000000E+00 -0.74489182665E+02  0.74489182665E+02  0.00000000000E+00 0. -1.
         25    2    1    2    0    0 -0.77478713476E+02  0.23454307359E+02  0.37089240253E+02  0.15354536213E+03  0.12509001125E+03 0.  0.
         23    2    1    2    0    0  0.77478713476E+02 -0.23454307359E+02  0.21046604334E+03  0.24298828680E+03  0.90522353836E+02 0.  0.
          5    1    3    3  502    0 -0.69872218993E+02  0.42608148940E+02  0.74422754388E+02  0.11069688394E+03  0.41800000000E+01 0. -1.
         -5    1    3    3    0  502 -0.76064944835E+01 -0.19153841581E+02 -0.37333514135E+02  0.42848478192E+02  0.41800000000E+01 0. -1.
        -11    1    4    4    0    0  0.42046077269E+02  0.29098627167E+02  0.54993631357E+02  0.75092624182E+02  0.00000000000E+00 0. -1.
         11    1    4    4    0    0  0.35432636208E+02 -0.52552934526E+02  0.15547241199E+03  0.16789566262E+03  0.00000000000E+00 0.  1.
</event>
<event>
 8    1  0.6692409E-009  0.8699115E+02  0.7561462E-02  0.1310306E+00
          3   -1    0    0  501    0  0.00000000000E+00  0.00000000000E+00  0.48003350890E+02  0.48003350890E+02  0.00000000000E+00 0. -1.
         -3   -1    0    0    0  501 -0.00000000000E+00 -0.00000000000E+00 -0.38756790271E+03  0.38756790271E+03  0.00000000000E+00 0.  1.
         25    2    1    2    0    0  0.39200034465E+02  0.73192806711E+02 -0.18575839573E+03  0.23884579409E+03  0.12508917665E+03 0.  0.
         23    2    1    2    0    0 -0.39200034465E+02 -0.73192806711E+02 -0.15380615609E+03  0.19672545952E+03  0.90281466052E+02 0.  0.
          5    1    3    3  502    0  0.27833075863E+02  0.16936581397E+02  0.10372763490E+02  0.34446981346E+02  0.41800000000E+01 0. -1.
         -5    1    3    3    0  502  0.11366958601E+02  0.56256225313E+02 -0.19613115922E+03  0.20439881274E+03  0.41800000000E+01 0. -1.
        -11    1    4    4    0    0 -0.20762986393E+02 -0.28661046580E+02 -0.14302245903E+03  0.14733628535E+03  0.00000000000E+00 0.  1.
         11    1    4    4    0    0 -0.18437048071E+02 -0.44531760131E+02 -0.10783697066E+02  0.49389174162E+02  0.00000000000E+00 0. -1.
</event>
<event>
 8    1  0.6692409E-009  0.1227141E+03  0.7561462E-02  0.1238686E+00
          2   -1    0    0  501    0  0.00000000000E+00  0.00000000000E+00  0.53173038357E+03  0.53173038357E+03  0.00000000000E+00 0.  1.
         -2   -1    0    0    0  501 -0.00000000000E+00 -0.00000000000E+00 -0.35709576865E+02  0.35709576865E+02  0.00000000000E+00 0. -1.
         25    2    1    2    0    0  0.78931071174E+02 -0.28489625021E+02  0.26308728685E+03  0.30316190782E+03  0.12510175508E+03 0.  0.
         23    2    1    2    0    0 -0.78931071174E+02  0.28489625021E+02  0.23293351986E+03  0.26427805261E+03  0.92428846623E+02 0.  0.
          5    1    3    3  502    0  0.55450529656E+02 -0.76854199418E+02  0.14404717423E+03  0.17247721592E+03  0.41800000000E+01 0. -1.
         -5    1    3    3    0  502  0.23480541518E+02  0.48364574397E+02  0.11904011261E+03  0.13068469190E+03  0.41800000000E+01 0. -1.
        -11    1    4    4    0    0 -0.44593897223E+02  0.40523732858E+02  0.51601285739E+02  0.79331464654E+02  0.00000000000E+00 0. -1.
         11    1    4    4    0    0 -0.34337173951E+02 -0.12034107837E+02  0.18133223412E+03  0.18494658796E+03  0.00000000000E+00 0.  1.
</event>
<event>
 8    1  0.6692409E-009  0.9142620E+02  0.7561462E-02  0.1299434E+00
         -2   -1    0    0    0  501 -0.00000000000E+00  0.00000000000E+00  0.57058761889E+02  0.57058761889E+02  0.00000000000E+00 0.  1.
          2   -1    0    0  501    0  0.00000000000E+00 -0.00000000000E+00 -0.33705855965E+03  0.33705855965E+03  0.00000000000E+00 0. -1.
         25    2    1    2    0    0  0.34071217654E+02 -0.19462242590E+02 -0.44391681976E+02  0.13841317059E+03  0.12509179671E+03 0.  0.
         23    2    1    2    0    0 -0.34071217654E+02  0.19462242590E+02 -0.23560811578E+03  0.25570415095E+03  0.91289658946E+02 0.  0.
          5    1    3    3  502    0 -0.29104407348E+02 -0.14678633563E+02 -0.64013285779E+02  0.71956250365E+02  0.41800000000E+01 0.  1.
         -5    1    3    3    0  502  0.63175625002E+02 -0.47836090270E+01  0.19621603803E+02  0.66456920223E+02  0.41800000000E+01 0.  1.
        -11    1    4    4    0    0  0.24934615611E+02  0.93431227744E+01 -0.24195576834E+02  0.35978534395E+02  0.00000000000E+00 0.  1.
         11    1    4    4    0    0 -0.59005833265E+02  0.10119119815E+02 -0.21141253895E+03  0.21972561656E+03  0.00000000000E+00 0. -1.
</event>
<event>
 8    1  0.6692409E-009  0.8193190E+02  0.7561462E-02  0.1323657E+00
         -2   -1    0    0    0  501 -0.00000000000E+00  0.00000000000E+00  0.78220665346E+02  0.78220665346E+02  0.00000000000E+00 0.  1.
          2   -1    0    0  501    0  0.00000000000E+00 -0.00000000000E+00 -0.17494026332E+03  0.17494026332E+03  0.00000000000E+00 0. -1.
         25    2    1    2    0    0 -0.19012478332E+02 -0.41098503667E+02 -0.57989514666E+02  0.14511762164E+03  0.12508308823E+03 0.  0.
         23    2    1    2    0    0  0.19012478332E+02  0.41098503667E+02 -0.38730083309E+02  0.10804330703E+03  0.90126441766E+02 0.  0.
          5    1    3    3  502    0 -0.24007538423E+02 -0.53617374224E+02 -0.91466537602E+02  0.10878779629E+03  0.41800000000E+01 0. -1.
         -5    1    3    3    0  502  0.49950600902E+01  0.12518870558E+02  0.33477022936E+02  0.36329825350E+02  0.41800000000E+01 0. -1.
        -11    1    4    4    0    0  0.48736414511E+02  0.14185390394E+02 -0.44536317250E+02  0.67527379293E+02  0.00000000000E+00 0. -1.
         11    1    4    4    0    0 -0.29723936179E+02  0.26913113272E+02  0.58062339407E+01  0.40515927739E+02  0.00000000000E+00 0.  1.
</event>
<event>
 8    1  0.6692409E-009  0.9083555E+02  0.7561462E-02  0.1300841E+00
          3   -1    0    0  501    0  0.00000000000E+00  0.00000000000E+00  0.18381434465E+03  0.18381434465E+03  0.00000000000E+00 0. -1.
         -3   -1    0    0    0  501 -0.00000000000E+00 -0.00000000000E+00 -0.19672826699E+03  0.19672826699E+03  0.00000000000E+00 0.  1.
         25    2    1    2    0    0 -0.29480244412E+01  0.80708285029E+02 -0.14256754926E+03  0.20614521856E+03  0.12509127433E+03 0.  0.
         23    2    1    2    0    0  0.29480244412E+01 -0.80708285029E+02  0.12965362692E+03  0.17439739307E+03  0.84153844920E+02 0.  0.
          5    1    3    3  502    0 -0.24088228502E+02  0.48445308296E+02 -0.15593643871E+03  0.16510855812E+03  0.41800000000E+01 0.  1.
         -5    1    3    3    0  502  0.21140204061E+02  0.32262976733E+02  0.13368889446E+02  0.41036660444E+02  0.41800000000E+01 0.  1.
        -11    1    4    4    0    0 -0.14811147925E+02 -0.57545703400E+02  0.22826465889E+02  0.63654737668E+02  0.00000000000E+00 0.  1.
         11    1    4    4    0    0  0.17759172366E+02 -0.23162581629E+02  0.10682716103E+03  0.11074265540E+03  0.00000000000E+00 0. -1.
</event>
<event>
 8    1  0.6692409E-009  0.1034161E+03  0.7561462E-02  0.1273272E+00
          2   -1    0    0  501    0  0.00000000000E+00  0.00000000000E+00  0.28005813727E+03  0.28005813727E+03  0.00000000000E+00 0. -1.
         -2   -1    0    0    0  501 -0.00000000000E+00 -0.00000000000E+00 -0.86439338849E+02  0.86439338849E+02  0.00000000000E+00 0.  1.
         25    2    1    2    0    0 -0.57842484759E+02  0.20109744077E+02  0.20585736490E+03  0.24854581226E+03  0.12509041234E+03 0.  0.
         23    2    1    2    0    0  0.57842484759E+02 -0.20109744077E+02 -0.12238566481E+02  0.11795166386E+03  0.10006326822E+03 0.  0.
          5    1    3    3  502    0  0.37292273675E+02 -0.41976691613E+00  0.32278478375E+02  0.49500125720E+02  0.41800000000E+01 0. -1.
         -5    1    3    3    0  502 -0.95134758434E+02  0.20529510993E+02  0.17357888653E+03  0.19904568655E+03  0.41800000000E+01 0. -1.
        -11    1    4    4    0    0  0.13725722288E+02 -0.23951987466E+02  0.40545727474E+02  0.49051495108E+02  0.00000000000E+00 0. -1.
         11    1    4    4    0    0  0.44116762471E+02  0.38422433894E+01 -0.52784293955E+02  0.68900168748E+02  0.00000000000E+00 0.  1.
</event>
<event>
 8    1  0.6692409E-009  0.1611387E+03  0.7561462E-02  0.1187417E+00
          1   -1    0    0  501    0  0.00000000000E+00  0.00000000000E+00  0.44399518061E+03  0.44399518061E+03  0.00000000000E+00 0. -1.
         -1   -1    0    0    0  501 -0.00000000000E+00 -0.00000000000E+00 -0.77347790369E+02  0.77347790369E+02  0.00000000000E+00 0.  1.
         25    2    1    2    0    0  0.11274739565E+03  0.75016552136E+02  0.28304002102E+03  0.33778568954E+03  0.12509220694E+03 0.  0.
         23    2    1    2    0    0 -0.11274739565E+03 -0.75016552136E+02  0.83607369220E+02  0.18355728144E+03  0.91452857034E+02 0.  0.
          5    1    3    3  502    0  0.63705506682E+02  0.87330094144E+02  0.26088248263E+03  0.28242181054E+03  0.41800000000E+01 0.  1.
         -5    1    3    3    0  502  0.49041888971E+02 -0.12313542008E+02  0.22157538392E+02  0.55363879003E+02  0.41800000000E+01 0.  1.
        -11    1    4    4    0    0 -0.48664564188E+02  0.16723314987E+02  0.24287211296E+02  0.56901473657E+02  0.00000000000E+00 0.  1.
         11    1    4    4    0    0 -0.64082831466E+02 -0.91739867123E+02  0.59320157924E+02  0.12665580778E+03  0.00000000000E+00 0. -1.
</event>
<event>
 8    1  0.6692409E-009  0.1126410E+03  0.7561462E-02  0.1255756E+00
         -2   -1    0    0    0  501 -0.00000000000E+00  0.00000000000E+00  0.28660855442E+02  0.28660855442E+02  0.00000000000E+00 0.  1.
          2   -1    0    0  501    0  0.00000000000E+00 -0.00000000000E+00 -0.72652995364E+03  0.72652995364E+03  0.00000000000E+00 0. -1.
         25    2    1    2    0    0  0.21740817991E+00 -0.94013927216E+02 -0.40043205131E+03  0.42992068940E+03  0.12508919090E+03 0.  0.
         23    2    1    2    0    0 -0.21740817991E+00  0.94013927216E+02 -0.29743704689E+03  0.32527011969E+03  0.92158494571E+02 0.  0.
          5    1    3    3  502    0 -0.17075585645E+02 -0.10032979868E+03 -0.16620385489E+03  0.19493290617E+03  0.41800000000E+01 0. -1.
         -5    1    3    3    0  502  0.17292993825E+02  0.63158714603E+01 -0.23422819642E+03  0.23498778323E+03  0.41800000000E+01 0. -1.
        -11    1    4    4    0    0 -0.22756349540E+02  0.40059147167E+02 -0.39187306588E+02  0.60483317649E+02  0.00000000000E+00 0.  1.
         11    1    4    4    0    0  0.22538941360E+02  0.53954780049E+02 -0.25824974030E+03  0.26478680204E+03  0.00000000000E+00 0. -1.
</event>
<event>
 8    1  0.6692409E-009  0.6714691E+02  0.7561462E-02  0.1370073E+00
          3   -1    0    0  501    0  0.00000000000E+00  0.00000000000E+00  0.16805283216E+03  0.16805283216E+03  0.00000000000E+00 0. -1.
         -3   -1    0    0    0  501 -0.00000000000E+00 -0.00000000000E+00 -0.80892630302E+02  0.80892630302E+02  0.00000000000E+00 0.  1.
         25    2    1    2    0    0 -0.42165659054E+02  0.19059820170E+02  0.42379511018E+02  0.13993846865E+03  0.12508210306E+03 0.  0.
         23    2    1    2    0    0  0.42165659054E+02 -0.19059820170E+02  0.44780690845E+02  0.10900699381E+03  0.87954504599E+02 0.  0.
          5    1    3    3  502    0 -0.42296362070E+02 -0.75776869006E-01 -0.38118390665E+02  0.57091786567E+02  0.41800000000E+01 0.  1.
         -5    1    3    3    0  502  0.13070301555E+00  0.19135597039E+02  0.80497901683E+02  0.82846682087E+02  0.41800000000E+01 0.  1.
        -11    1    4    4    0    0  0.55844124747E+02 -0.16979047446E+02 -0.38025844919E+01  0.58491999195E+02  0.00000000000E+00 0.  1.
         11    1    4    4    0    0 -0.13678465693E+02 -0.20807727240E+01  0.48583275337E+02  0.50514994618E+02  0.00000000000E+00 0. -1.
</event>
<event>
 8    1  0.6692409E-009  0.2120719E+03  0.7561462E-02  0.1139936E+00
         -1   -1    0    0    0  501 -0.00000000000E+00  0.00000000000E+00  0.33901781289E+02  0.33901781289E+02  0.00000000000E+00 0.  1.
          1   -1    0    0  501    0  0.00000000000E+00 -0.00000000000E+00 -0.14419041060E+04  0.14419041060E+04  0.00000000000E+00 0. -1.
         25    2    1    2    0    0 -0.14559103448E+03 -0.11408631287E+03 -0.55651518947E+03  0.59964157039E+03  0.12509364780E+03 0.  0.
         23    2    1    2    0    0  0.14559103448E+03  0.11408631287E+03 -0.85148713526E+03  0.87616431692E+03  0.91766729418E+02 0.  0.
          5    1    3    3  502    0 -0.74659984638E+02  0.97739518188E+01 -0.25688187114E+03  0.26772263924E+03  0.41800000000E+01 0.  1.
         -5    1    3    3    0  502 -0.70931049841E+02 -0.12386026469E+03 -0.29963331833E+03  0.33191893115E+03  0.41800000000E+01 0.  1.
        -11    1    4    4    0    0  0.51367184803E+02 -0.77162917180E+01 -0.18830253719E+03  0.19533554297E+03  0.00000000000E+00 0.  1.
         11    1    4    4    0    0  0.94223849676E+02  0.12180260459E+03 -0.66318459807E+03  0.68082877396E+03  0.00000000000E+00 0. -1.
</event>
<event>
 8    1  0.6692409E-009  0.2141015E+03  0.7561462E-02  0.1138359E+00
          1   -1    0    0  501    0  0.00000000000E+00  0.00000000000E+00  0.13371728352E+04  0.13371728352E+04  0.00000000000E+00 0. -1.
         -1   -1    0    0    0  501 -0.00000000000E+00 -0.00000000000E+00 -0.43833224721E+02  0.43833224721E+02  0.00000000000E+00 0.  1.
         25    2    1    2    0    0 -0.11844108481E+03  0.14750936587E+03  0.36879369378E+03  0.43295133382E+03  0.12510301870E+03 0.  0.
         23    2    1    2    0    0  0.11844108481E+03 -0.14750936587E+03  0.92454591673E+03  0.94805472613E+03  0.90748597885E+02 0.  0.
          5    1    3    3  502    0  0.23801653760E+02  0.25344459237E+02  0.31895726108E+02  0.47367394689E+02  0.41800000000E+01 0.  1.
         -5    1    3    3    0  502 -0.14224273857E+03  0.12216490664E+03  0.33689796768E+03  0.38558393913E+03  0.41800000000E+01 0.  1.
        -11    1    4    4    0    0  0.38575799476E+02 -0.11157900565E+03  0.43493597732E+03  0.45067424063E+03  0.00000000000E+00 0.  1.
         11    1    4    4    0    0  0.79865285333E+02 -0.35930360226E+02  0.48960993941E+03  0.49738048550E+03  0.00000000000E+00 0. -1.
</event>
<event>
 8    1  0.6692409E-009  0.1211636E+03  0.7561462E-02  0.1241190E+00
          1   -1    0    0  501    0  0.00000000000E+00  0.00000000000E+00  0.21002525071E+03  0.21002525071E+03  0.00000000000E+00 0. -1.
         -1   -1    0    0    0  501 -0.00000000000E+00 -0.00000000000E+00 -0.88508506253E+02  0.88508506253E+02  0.00000000000E+00 0.  1.
         25    2    1    2    0    0 -0.41245817545E+02 -0.53217620135E+02  0.15746198599E+02  0.14292511522E+03  0.12508522388E+03 0.  0.
         23    2    1    2    0    0  0.41245817545E+02  0.53217620135E+02  0.10577054586E+03  0.15560864174E+03  0.92159147438E+02 0.  0.
          5    1    3    3  502    0  0.23835017469E+02  0.28565786191E+02  0.32164087151E+01  0.37575655463E+02  0.41800000000E+01 0. -1.
         -5    1    3    3    0  502 -0.65080835014E+02 -0.81783406326E+02  0.12529789884E+02  0.10534945976E+03  0.41800000000E+01 0. -1.
        -11    1    4    4    0    0  0.20440363043E+01 -0.18469422053E+02 -0.37615856365E+01  0.18959091800E+02  0.00000000000E+00 0. -1.
         11    1    4    4    0    0  0.39201781240E+02  0.71687042188E+02  0.10953213149E+03  0.13664954994E+03  0.00000000000E+00 0.  1.
</event>
<event>
 8    1  0.6692409E-009  0.2546050E+03  0.7561462E-02  0.1110429E+00
          2   -1    0    0  501    0  0.00000000000E+00  0.00000000000E+00  0.85082768501E+03  0.85082768501E+03  0.00000000000E+00 0. -1.
         -2   -1    0    0    0  501 -0.00000000000E+00 -0.00000000000E+00 -0.10369872635E+03  0.10369872635E+03  0.00000000000E+00 0.  1.
         25    2    1    2    0    0 -0.16844009303E+03 -0.16266614806E+03  0.61662556879E+03  0.67135314476E+03  0.12512238903E+03 0.  0.
         23    2    1    2    0    0  0.16844009303E+03  0.16266614806E+03  0.13050338988E+03  0.28317326659E+03  0.91233894348E+02 0.  0.
          5    1    3    3  502    0  0.50376488352E+01 -0.64456945938E+02  0.12400916477E+03  0.13991362026E+03  0.41800000000E+01 0. -1.
         -5    1    3    3    0  502 -0.17347774187E+03 -0.98209202123E+02  0.49261640401E+03  0.53143952451E+03  0.41800000000E+01 0. -1.
        -11    1    4    4    0    0  0.85375201845E+02  0.34033703006E+02  0.19251237832E+02  0.93903291681E+02  0.00000000000E+00 0.  1.
         11    1    4    4    0    0  0.83064891186E+02  0.12863244505E+03  0.11125215205E+03  0.18926997491E+03  0.00000000000E+00 0. -1.
</event>
<event>
 8    1  0.6692409E-009  0.1275881E+03  0.7561462E-02  0.1231079E+00
          2   -1    0    0  501    0  0.00000000000E+00  0.00000000000E+00  0.10936771859E+04  0.10936771859E+04  0.00000000000E+00 0.  1.
         -2   -1    0    0    0  501 -0.00000000000E+00 -0.00000000000E+00 -0.28943095351E+02  0.28943095351E+02  0.00000000000E+00 0. -1.
         25    2    1    2    0    0  0.28948952919E+02 -0.10520429262E+03  0.83918341227E+03  0.85544239081E+03  0.12508756736E+03 0.  0.
         23    2    1    2    0    0 -0.28948952919E+02  0.10520429262E+03  0.22555067831E+03  0.26717789047E+03  0.92762770603E+02 0.  0.
          5    1    3    3  502    0  0.10733414082E+02 -0.11475021196E+03  0.81624754576E+03  0.82435450243E+03  0.41800000000E+01 0.  1.
         -5    1    3    3    0  502  0.18215538837E+02  0.95459193453E+01  0.22935866513E+02  0.31087888381E+02  0.41800000000E+01 0.  1.
        -11    1    4    4    0    0 -0.40285750397E+02  0.60075401885E+02  0.56337867830E+02  0.91683973236E+02  0.00000000000E+00 0. -1.
         11    1    4    4    0    0  0.11336797478E+02  0.45128890732E+02  0.16921281048E+03  0.17549391723E+03  0.00000000000E+00 0.  1.
</event>
<event>
 8    1  0.6692409E-009  0.1171968E+03  0.7561462E-02  0.1247794E+00
          3   -1    0    0  501    0  0.00000000000E+00  0.00000000000E+00  0.50447014120E+03  0.50447014120E+03  0.00000000000E+00 0. -1.
         -3   -1    0    0    0  501 -0.00000000000E+00 -0.00000000000E+00 -0.40964477649E+02  0.40964477649E+02  0.00000000000E+00 0.  1.
         25    2    1    2    0    0  0.40076707339E+02 -0.64931773319E+02  0.35577495844E+03  0.38476955453E+03  0.12509800711E+03 0.  0.
         23    2    1    2    0    0 -0.40076707339E+02  0.64931773319E+02  0.10773070512E+03  0.16066506433E+03  0.91570084702E+02 0.  0.
          5    1    3    3  502    0 -0.27706086884E+02 -0.15827477128E+02  0.18248659993E+02  0.36994895245E+02  0.41800000000E+01 0.  1.
         -5    1    3    3    0  502  0.67782794223E+02 -0.49104296191E+02  0.33752629845E+03  0.34777465928E+03  0.41800000000E+01 0.  1.
        -11    1    4    4    0    0 -0.68696104611E+02  0.55373610550E+02  0.87976855309E+02  0.12460063645E+03  0.00000000000E+00 0.  1.
         11    1    4    4    0    0  0.28619397271E+02  0.95581627685E+01  0.19753849809E+02  0.36064427875E+02  0.00000000000E+00 0. -1.
</event>
<event>
 8    1  0.6692409E-009  0.2372374E+03  0.7561462E-02  0.1121647E+00
          3   -1    0    0  501    0  0.00000000000E+00  0.00000000000E+00  0.26022638749E+03  0.26022638749E+03  0.00000000000E+00 0. -1.
         -3   -1    0    0    0  501 -0.00000000000E+00 -0.00000000000E+00 -0.24693939405E+03  0.24693939405E+03  0.00000000000E+00 0.  1.
         25    2    1    2    0    0  0.21363509465E+03  0.23163057325E+02  0.86253438761E+02  0.26318056737E+03  0.12509146435E+03 0.  0.
         23    2    1    2    0    0 -0.21363509465E+03 -0.23163057325E+02 -0.72966445322E+02  0.24398521417E+03  0.89600232700E+02 0.  0.
          5    1    3    3  502    0  0.73715309612E+02  0.69266784732E+02  0.37036216274E+02  0.10780068671E+03  0.41800000000E+01 0. -1.
         -5    1    3    3    0  502  0.13991978504E+03 -0.46103727407E+02  0.49217222487E+02  0.15537988066E+03  0.41800000000E+01 0. -1.
        -11    1    4    4    0    0 -0.10841651443E+03  0.23208973794E+02 -0.65463696711E+02  0.12875671886E+03  0.00000000000E+00 0.  1.
         11    1    4    4    0    0 -0.10521858022E+03 -0.46372031119E+02 -0.75027486110E+01  0.11522849531E+03  0.00000000000E+00 0. -1.
</event>
<event>
 8    1  0.6692409E-009  0.1552462E+03  0.7561462E-02  0.1194171E+00
         -1   -1    0    0    0  501 -0.00000000000E+00  0.00000000000E+00  0.36512253256E+02  0.36512253256E+02  0.00000000000E+00 0.  1.
          1   -1    0    0  501    0  0.00000000000E+00 -0.00000000000E+00 -0.79841704315E+03  0.79841704315E+03  0.00000000000E+00 0. -1.
         25    2    1    2    0    0  0.11327651614E+03 -0.57833967091E+02 -0.32226064480E+03  0.36834159632E+03  0.12508905442E+03 0.  0.
         23    2    1    2    0    0 -0.11327651614E+03  0.57833967091E+02 -0.43964414509E+03  0.46658770008E+03  0.90778690751E+02 0.  0.
          5    1    3    3  502    0 -0.80297853483E+01 -0.48449541326E+02 -0.14624245648E+03  0.15432486509E+03  0.41800000000E+01 0. -1.
         -5    1    3    3    0  502  0.12130630149E+03 -0.93844257650E+01 -0.17601818832E+03  0.21401673124E+03  0.41800000000E+01 0. -1.
        -11    1    4    4    0    0 -0.77229019856E+02  0.67030842932E+02 -0.39717506789E+03  0.41012862612E+03  0.00000000000E+00 0. -1.
         11    1    4    4    0    0 -0.36047496289E+02 -0.91968758414E+01 -0.42469077204E+02  0.56459073960E+02  0.00000000000E+00 0.  1.
</event>
<event>
 8    1  0.6692409E-009  0.3594003E+03  0.7561462E-02  0.1058822E+00
          1   -1    0    0  501    0  0.00000000000E+00  0.00000000000E+00  0.45668174567E+03  0.45668174567E+03  0.00000000000E+00 0. -1.
         -1   -1    0    0    0  501 -0.00000000000E+00 -0.00000000000E+00 -0.30271691601E+03  0.30271691601E+03  0.00000000000E+00 0.  1.
         25    2    1    2    0    0  0.35101784202E+03  0.58702904855E+02  0.81727688939E+02  0.38598745887E+03  0.12508935533E+03 0.  0.
         23    2    1    2    0    0 -0.35101784202E+03 -0.58702904855E+02  0.72237140727E+02  0.37341120280E+03  0.86937710034E+02 0.  0.
          5    1    3    3  502    0  0.19488762226E+02  0.48241070575E+01  0.43276041122E+02  0.47889163672E+02  0.41800000000E+01 0. -1.
         -5    1    3    3    0  502  0.33152907979E+03  0.53878797798E+02  0.38451647817E+02  0.33809829520E+03  0.41800000000E+01 0. -1.
        -11    1    4    4    0    0 -0.29899582477E+03 -0.24218876384E+02  0.80150097698E+02  0.31049814068E+03  0.00000000000E+00 0.  1.
         11    1    4    4    0    0 -0.52022017248E+02 -0.34484028471E+02 -0.79129569715E+01  0.62913062127E+02  0.00000000000E+00 0. -1.
</event>
<event>
 8    1  0.6692409E-009  0.1214716E+03  0.7561462E-02  0.1240689E+00
          2   -1    0    0  501    0  0.00000000000E+00  0.00000000000E+00  0.86840962646E+03  0.86840962646E+03  0.00000000000E+00 0. -1.
         -2   -1    0    0    0  501 -0.00000000000E+00 -0.00000000000E+00 -0.20838101780E+02  0.20838101780E+02  0.00000000000E+00 0.  1.
         25    2    1    2    0    0  0.44423694379E+02 -0.52733065089E+02  0.34327663942E+03  0.37180683449E+03  0.12508888931E+03 0.  0.
         23    2    1    2    0    0 -0.44423694379E+02  0.52733065089E+02  0.50429488526E+03  0.51744089375E+03  0.93153134374E+02 0.  0.
          5    1    3    3  502    0 -0.13471276713E+01 -0.76392006064E+02  0.27910681654E+03  0.28940566819E+03  0.41800000000E+01 0. -1.
         -5    1    3    3    0  502  0.45770822051E+02  0.23658940975E+02  0.64169822877E+02  0.82401166298E+02  0.41800000000E+01 0. -1.
        -11    1    4    4    0    0 -0.72877468937E+02  0.43222447592E+02  0.33779078577E+03  0.34825553894E+03  0.00000000000E+00 0.  1.
         11    1    4    4    0    0  0.28453774558E+02  0.95106174977E+01  0.16650409950E+03  0.16918535481E+03  0.00000000000E+00 0. -1.
</event>
<event>
 8    1  0.6692409E-009  0.1375772E+03  0.7561462E-02  0.1216627E+00
         -1   -1    0    0    0  501 -0.00000000000E+00  0.00000000000E+00  0.64834060595E+02  0.64834060595E+02  0.00000000000E+00 0.  1.
          1   -1    0    0  501    0  0.00000000000E+00 -0.00000000000E+00 -0.60055666875E+03  0.60055666875E+03  0.00000000000E+00 0. -1.
         25    2    1    2    0    0 -0.32325778239E+01 -0.11178893681E+03 -0.77111736505E+02  0.18467374405E+03  0.12510378045E+03 0.  0.
         23    2    1    2    0    0  0.32325778239E+01  0.11178893681E+03 -0.45861087165E+03  0.48071698529E+03  0.90871735978E+02 0.  0.
          5    1    3    3  502    0  0.32945597928E+02 -0.60992396993E+02 -0.96807204313E+02  0.11914105976E+03  0.41800000000E+01 0.  1.
         -5    1    3    3    0  502 -0.36178175751E+02 -0.50796539821E+02  0.19695467807E+02  0.65532684293E+02  0.41800000000E+01 0.  1.
        -11    1    4    4    0    0 -0.26965258065E+02  0.10966496169E+03 -0.38194706112E+03  0.39829271455E+03  0.00000000000E+00 0.  1.
         11    1    4    4    0    0  0.30197835889E+02  0.21239751282E+01 -0.76663810531E+02  0.82424270745E+02  0.00000000000E+00 0. -1.
</event>
<event>
 8    1  0.6692409E-009  0.1455213E+03  0.7561462E-02  0.1206087E+00
         -2   -1    0    0    0  501 -0.00000000000E+00  0.00000000000E+00  0.58979091065E+03  0.58979091065E+03  0.00000000000E+00 0. -1.
          2   -1    0    0  501    0  0.00000000000E+00 -0.00000000000E+00 -0.40477784902E+02  0.40477784902E+02  0.00000000000E+00 0.  1.
         25    2    1    2    0    0 -0.75711694819E+02  0.73266557879E+02  0.22758304833E+03  0.28025311517E+03  0.12509002934E+03 0.  0.
         23    2    1    2    0    0  0.75711694819E+02 -0.73266557879E+02  0.32173007742E+03  0.35001558039E+03  0.88884276207E+02 0.  0.
          5    1    3    3  502    0  0.58544504932E+01 -0.25407536423E+02  0.10953812502E+02  0.28588037813E+02  0.41800000000E+01 0.  1.
         -5    1    3    3    0  502 -0.81566145312E+02  0.98674094302E+02  0.21662923582E+03  0.25166507736E+03  0.41800000000E+01 0.  1.
        -11    1    4    4    0    0  0.44815747146E+02  0.11547880369E+02  0.87318000053E+02  0.98824277718E+02  0.00000000000E+00 0.  1.
         11    1    4    4    0    0  0.30895947673E+02 -0.84814438248E+02  0.23441207737E+03  0.25119130267E+03  0.00000000000E+00 0. -1.
</event>
<event>
 8    1  0.6692409E-009  0.1001652E+03  0.7561462E-02  0.1279949E+00
         -1   -1    0    0    0  501 -0.00000000000E+00  0.00000000000E+00  0.13172451136E+03  0.13172451136E+03  0.00000000000E+00 0.  1.
          1   -1    0    0  501    0  0.00000000000E+00 -0.00000000000E+00 -0.16027266421E+03  0.16027266421E+03  0.00000000000E+00 0. -1.
         25    2    1    2    0    0 -0.70384422405E+02 -0.14304536161E+02  0.49826528862E+02  0.15260923224E+03  0.12509319772E+03 0.  0.
         23    2    1    2    0    0  0.70384422405E+02  0.14304536161E+02 -0.78374681713E+02  0.13938794332E+03  0.90154430496E+02 0.  0.
          5    1    3    3  502    0 -0.71356252539E+02 -0.39162632557E+02  0.79367429807E+02  0.11376329759E+03  0.41800000000E+01 0. -1.
         -5    1    3    3    0  502  0.97183013346E+00  0.24858096395E+02 -0.29540900945E+02  0.38845934650E+02  0.41800000000E+01 0. -1.
        -11    1    4    4    0    0  0.81301024900E+02  0.14953323790E+02 -0.27150235877E+02  0.87009159578E+02  0.00000000000E+00 0.  1.
         11    1    4    4    0    0 -0.10916602495E+02 -0.64878762897E+00 -0.51224445836E+02  0.52378783745E+02  0.00000000000E+00 0. -1.
</event>
<event>
 8    1  0.6692409E-009  0.1949383E+03  0.7561462E-02  0.1154081E+00
          2   -1    0    0  501    0  0.00000000000E+00  0.00000000000E+00  0.75514276284E+03  0.75514276284E+03  0.00000000000E+00 0. -1.
         -2   -1    0    0    0  501 -0.00000000000E+00 -0.00000000000E+00 -0.82574878749E+02  0.82574878749E+02  0.00000000000E+00 0.  1.
         25    2    1    2    0    0 -0.18146841752E+03  0.31830268509E+01  0.12533355169E+03  0.25356086561E+03  0.12507475835E+03 0.  0.
         23    2    1    2    0    0  0.18146841752E+03 -0.31830268509E+01  0.54723433241E+03  0.58415677598E+03  0.93983009843E+02 0.  0.
          5    1    3    3  502    0 -0.17060071360E+03 -0.18758949979E+02  0.57067907894E+02  0.18091633479E+03  0.41800000000E+01 0.  1.
         -5    1    3    3    0  502 -0.10867703919E+02  0.21941976830E+02  0.68265643792E+02  0.72644530819E+02  0.41800000000E+01 0.  1.
        -11    1    4    4    0    0  0.53225718632E+02 -0.31742547343E+02  0.96681839510E+02  0.11483877623E+03  0.00000000000E+00 0.  1.
         11    1    4    4    0    0  0.12824269888E+03  0.28559520492E+02  0.45055249290E+03  0.46931799974E+03  0.00000000000E+00 0. -1.
</event>
<event>
 8    1  0.6692409E-009  0.1166757E+03  0.7561462E-02  0.1248684E+00
          1   -1    0    0  501    0  0.00000000000E+00  0.00000000000E+00  0.31637631190E+03  0.31637631190E+03  0.00000000000E+00 0. -1.
         -1   -1    0    0    0  501 -0.00000000000E+00 -0.00000000000E+00 -0.63096600774E+02  0.63096600774E+02  0.00000000000E+00 0.  1.
         25    2    1    2    0    0 -0.44210401161E+02 -0.25346120966E+01  0.24202806948E+03  0.27601515624E+03  0.12508315726E+03 0.  0.
         23    2    1    2    0    0  0.44210401161E+02  0.25346120966E+01  0.11251641644E+02  0.10345775643E+03  0.92822002224E+02 0.  0.
          5    1    3    3  502    0 -0.21470728434E+02  0.60249314863E+02  0.14042067550E+03  0.15435805981E+03  0.41800000000E+01 0.  1.
         -5    1    3    3    0  502 -0.22739672727E+02 -0.62783926959E+02  0.10160739398E+03  0.12165709643E+03  0.41800000000E+01 0.  1.
        -11    1    4    4    0    0  0.41297418231E+02  0.44252480043E+02  0.11632248051E+02  0.61636579538E+02  0.00000000000E+00 0.  1.
         11    1    4    4    0    0  0.29129829308E+01 -0.41717867946E+02 -0.38060640687E+00  0.41821176893E+02  0.00000000000E+00 0. -1.
</event>
<event>
 8    1  0.6692409E-009  0.1010716E+03  0.7561462E-02  0.1278059E+00
         -3   -1    0    0    0  501 -0.00000000000E+00  0.00000000000E+00  0.18863265250E+03  0.18863265250E+03  0.00000000000E+00 0.  1.
          3   -1    0    0  501    0  0.00000000000E+00 -0.00000000000E+00 -0.70443685596E+02  0.70443685596E+02  0.00000000000E+00 0. -1.
         25    2    1    2    0    0 -0.70527269982E+01 -0.18990050339E+02  0.10722806792E+03  0.16599917994E+03  0.12508999248E+03 0.  0.
         23    2    1    2    0    0  0.70527269982E+01  0.18990050339E+02  0.10960898981E+02  0.93077158159E+02  0.90182332496E+02 0.  0.
          5    1    3    3  502    0 -0.17883713670E+02  0.45167504901E+02  0.11365806056E+02  0.50065803308E+02  0.41800000000E+01 0.  1.
         -5    1    3    3    0  502  0.10830986671E+02 -0.64157555239E+02  0.95862261869E+02  0.11593337663E+03  0.41800000000E+01 0.  1.
        -11    1    4    4    0    0  0.43745869879E+02  0.25912711059E+02  0.20035722204E+02  0.54649793138E+02  0.00000000000E+00 0. -1.
         11    1    4    4    0    0 -0.36693142880E+02 -0.69226607199E+01 -0.90748232230E+01  0.38427365020E+02  0.00000000000E+00 0.  1.
</event>
<event>
 8    1  0.6692409E-009  0.1430048E+03  0.7561462E-02  0.1209342E+00
          2   -1    0    0  501    0  0.00000000000E+00  0.00000000000E+00  0.32138051430E+03  0.32138051430E+03  0.00000000000E+00 0. -1.
         -2   -1    0    0    0  501 -0.00000000000E+00 -0.00000000000E+00 -0.40878258697E+03  0.40878258697E+03  0.00000000000E+00 0.  1.
         25    2    1    2    0    0 -0.76368081761E+02  0.10337404368E+03 -0.36859769792E+03  0.40991425267E+03  0.12508858786E+03 0.  0.
         23    2    1    2    0    0  0.76368081761E+02 -0.10337404368E+03  0.28119562525E+03  0.32024884860E+03  0.83486936410E+02 0.  0.
          5    1    3    3  502    0 -0.46264594113E+02  0.25024147962E+02 -0.29278859958E+02  0.60343555498E+02  0.41800000000E+01 0. -1.
         -5    1    3    3    0  502 -0.30103487648E+02  0.78349895715E+02 -0.33931883796E+03  0.34957069718E+03  0.41800000000E+01 0. -1.
        -11    1    4    4    0    0 -0.43004220688E+01 -0.54954729442E+02  0.14117574388E+03  0.15155562206E+03  0.00000000000E+00 0. -1.
         11    1    4    4    0    0  0.80668503830E+02 -0.48419314235E+02  0.14001988137E+03  0.16869322654E+03  0.00000000000E+00 0.  1.
</event>
<event>
 8    1  0.6692409E-009  0.2862361E+03  0.7561462E-02  0.1092331E+00
         -1   -1    0    0    0  501 -0.00000000000E+00  0.00000000000E+00  0.18212031630E+03  0.18212031630E+03  0.00000000000E+00 0.  1.
          1   -1    0    0  501    0  0.00000000000E+00 -0.00000000000E+00 -0.48455550917E+03  0.48455550917E+03  0.00000000000E+00 0. -1.
         25    2    1    2    0    0 -0.26258522077E+03 -0.81517206859E+02 -0.18416124781E+03  0.35377328068E+03  0.12507643959E+03 0.  0.
         23    2    1    2    0    0  0.26258522077E+03  0.81517206859E+02 -0.11827394506E+03  0.31290254480E+03  0.91231701053E+02 0.  0.
          5    1    3    3  502    0 -0.46271937764E+02  0.12966665422E+02  0.85916009664E+01  0.48995047135E+02  0.41800000000E+01 0. -1.
         -5    1    3    3    0  502 -0.21631328301E+03 -0.94483872282E+02 -0.19275284878E+03  0.30477823354E+03  0.41800000000E+01 0. -1.
        -11    1    4    4    0    0  0.24067445030E+03  0.43939891695E+02 -0.11156442761E+03  0.26888943195E+03  0.00000000000E+00 0. -1.
         11    1    4    4    0    0  0.21910770475E+02  0.37577315164E+02 -0.67095174557E+01  0.44013112844E+02  0.00000000000E+00 0.  1.
</event>
<event>
 8    1  0.6692409E-009  0.1457470E+03  0.7561462E-02  0.1205799E+00
          1   -1    0    0  501    0  0.00000000000E+00  0.00000000000E+00  0.63435870706E+03  0.63435870706E+03  0.00000000000E+00 0. -1.
         -1   -1    0    0    0  501 -0.00000000000E+00 -0.00000000000E+00 -0.73233887869E+02  0.73233887869E+02  0.00000000000E+00 0.  1.
         25    2    1    2    0    0  0.10333774511E+03 -0.50575501821E+02  0.49783716917E+02  0.17709242497E+03  0.12508692004E+03 0.  0.
         23    2    1    2    0    0 -0.10333774511E+03  0.50575501821E+02  0.51134110227E+03  0.53050016996E+03  0.82000832312E+02 0.  0.
          5    1    3    3  502    0 -0.41253195982E+01 -0.51512832346E+02 -0.11782936662E+02  0.53168601208E+02  0.41800000000E+01 0. -1.
         -5    1    3    3    0  502  0.10746306470E+03  0.93733052435E+00  0.61566653579E+02  0.12392382377E+03  0.41800000000E+01 0. -1.
        -11    1    4    4    0    0 -0.35862957187E+02  0.53674521499E+02  0.15655761179E+03  0.16934400422E+03  0.00000000000E+00 0. -1.
         11    1    4    4    0    0 -0.67474787918E+02 -0.30990196775E+01  0.35478349049E+03  0.36115616574E+03  0.00000000000E+00 0.  1.
</event>
<event>
 8    1  0.6692409E-009  0.9858694E+02  0.7561462E-02  0.1283296E+00
         -2   -1    0    0    0  501 -0.00000000000E+00  0.00000000000E+00  0.17567117762E+02  0.17567117762E+02  0.00000000000E+00 0.  1.
          2   -1    0    0  501    0  0.00000000000E+00 -0.00000000000E+00 -0.93660142641E+03  0.93660142641E+03  0.00000000000E+00 0. -1.
         25    2    1    2    0    0 -0.40117208113E+02 -0.46998891840E+02 -0.62144704259E+03  0.63691252784E+03  0.12507140025E+03 0.  0.
         23    2    1    2    0    0  0.40117208113E+02  0.46998891840E+02 -0.29758726606E+03  0.31725601633E+03  0.90966547448E+02 0.  0.
          5    1    3    3  502    0  0.43967286613E+01 -0.44843094105E+02 -0.68135382003E+02  0.81793257623E+02  0.41800000000E+01 0.  1.
         -5    1    3    3    0  502 -0.44513936774E+02 -0.21557977355E+01 -0.55331166058E+03  0.55511927022E+03  0.41800000000E+01 0.  1.
        -11    1    4    4    0    0 -0.15556578965E+01  0.62632444910E+02 -0.20784780797E+03  0.21708513193E+03  0.00000000000E+00 0. -1.
         11    1    4    4    0    0  0.41672866009E+02 -0.15633553070E+02 -0.89739458094E+02  0.10017088440E+03  0.00000000000E+00 0.  1.
</event>
<event>
 8    1  0.6692409E-009  0.1730983E+03  0.7561462E-02  0.1174655E+00
          1   -1    0    0  501    0  0.00000000000E+00  0.00000000000E+00  0.18714891795E+03  0.18714891795E+03  0.00000000000E+00 0. -1.
         -1   -1    0    0    0  501 -0.00000000000E+00 -0.00000000000E+00 -0.16377700323E+03  0.16377700323E+03  0.00000000000E+00 0.  1.
         25    2    1    2    0    0  0.13694265406E+03 -0.89208252956E+01  0.24004177921E+02  0.18722503756E+03  0.12507654659E+03 0.  0.
         23    2    1    2    0    0 -0.13694265406E+03  0.89208252956E+01 -0.63226320793E+00  0.16370088362E+03  0.89245212289E+02 0.  0.
          5    1    3    3  502    0  0.13383273650E+03 -0.48746279610E+02  0.32539747057E+02  0.14616329455E+03  0.41800000000E+01 0. -1.
         -5    1    3    3    0  502  0.31099175547E+01  0.39825454315E+02 -0.85355691361E+01  0.41061743010E+02  0.41800000000E+01 0. -1.
        -11    1    4    4    0    0 -0.10040190774E+03 -0.35068559831E+02 -0.38949722121E+01  0.10642141596E+03  0.00000000000E+00 0. -1.
         11    1    4    4    0    0 -0.36540746318E+02  0.43989385126E+02  0.32627090041E+01  0.57279467659E+02  0.00000000000E+00 0.  1.
</event>
<event>
 8    1  0.6692409E-009  0.2860245E+03  0.7561462E-02  0.1092443E+00
          2   -1    0    0  501    0  0.00000000000E+00  0.00000000000E+00  0.93560767575E+03  0.93560767575E+03  0.00000000000E+00 0. -1.
         -2   -1    0    0    0  501 -0.00000000000E+00 -0.00000000000E+00 -0.93275162102E+02  0.93275162102E+02  0.00000000000E+00 0.  1.
         25    2    1    2    0    0  0.24213680750E+03 -0.12448897584E+03  0.49367000702E+03  0.57748189902E+03  0.12509008437E+03 0.  0.
         23    2    1    2    0    0 -0.24213680750E+03  0.12448897584E+03  0.34866250663E+03  0.45140093884E+03  0.89830537134E+02 0.  0.
          5    1    3    3  502    0  0.93629522189E+02  0.95581766539E+01  0.21179706113E+03  0.23180447292E+03  0.41800000000E+01 0.  1.
         -5    1    3    3    0  502  0.14850728531E+03 -0.13404715250E+03  0.28187294589E+03  0.34567742609E+03  0.41800000000E+01 0.  1.
        -11    1    4    4    0    0 -0.82271263123E+02  0.72427294193E+02  0.19467154726E+03  0.22340833689E+03  0.00000000000E+00 0. -1.
         11    1    4    4    0    0 -0.15986554438E+03  0.52061681650E+02  0.15399095937E+03  0.22799260195E+03  0.00000000000E+00 0.  1.
</event>
<event>
 8    1  0.6692409E-009  0.1100583E+03  0.7561462E-02  0.1260462E+00
         -1   -1    0    0    0  501 -0.00000000000E+00  0.00000000000E+00  0.21033736332E+03  0.21033736332E+03  0.00000000000E+00 0.  1.
          1   -1    0    0  501    0  0.00000000000E+00 -0.00000000000E+00 -0.91720883118E+02  0.91720883118E+02  0.00000000000E+00 0. -1.
         25    2    1    2    0    0  0.80307669825E+02  0.28870846836E+02  0.88923945724E+02  0.17560648700E+03  0.12508925823E+03 0.  0.
         23    2    1    2    0    0 -0.80307669825E+02 -0.28870846836E+02  0.29692534478E+02  0.12645175944E+03  0.88462157055E+02 0.  0.
          5    1    3    3  502    0  0.24978232634E+02  0.63553778758E+02  0.86288021936E+02  0.11011852719E+03  0.41800000000E+01 0.  1.
         -5    1    3    3    0  502  0.55329437192E+02 -0.34682931922E+02  0.26359237877E+01  0.65487959816E+02  0.41800000000E+01 0.  1.
        -11    1    4    4    0    0 -0.33674519526E+02 -0.18773277956E+02  0.58982375600E+02  0.70465096764E+02  0.00000000000E+00 0.  1.
         11    1    4    4    0    0 -0.46633150299E+02 -0.10097568880E+02 -0.29289841122E+02  0.55986662671E+02  0.00000000000E+00 0. -1.
</event>
<event>
 8    1  0.6692409E-009  0.1629552E+03  0.7561462E-02  0.1185400E+00
         -2   -1    0    0    0  501 -0.00000000000E+00  0.00000000000E+00  0.30619797505E+03  0.30619797505E+03  0.00000000000E+00 0.  1.
          2   -1    0    0  501    0  0.00000000000E+00 -0.00000000000E+00 -0.94854000498E+02  0.94854000498E+02  0.00000000000E+00 0. -1.
         25    2    1    2    0    0 -0.12150736253E+03  0.33090511720E+02  0.15744919458E+03  0.23726940625E+03  0.12508997224E+03 0.  0.
         23    2    1    2    0    0  0.12150736253E+03 -0.33090511720E+02  0.53894779972E+02  0.16378256930E+03  0.89783414844E+02 0.  0.
          5    1    3    3  502    0 -0.13893532638E+03  0.47038081247E+01  0.14639322190E+03  0.20192473485E+03  0.41800000000E+01 0. -1.
         -5    1    3    3    0  502  0.17427963843E+02  0.28386703596E+02  0.11055972682E+02  0.35344671405E+02  0.41800000000E+01 0. -1.
        -11    1    4    4    0    0  0.89710576355E+02  0.19500603918E+02  0.42965258312E+02  0.10136209590E+03  0.00000000000E+00 0.  1.
         11    1    4    4    0    0  0.31796786177E+02 -0.52591115638E+02  0.10929521661E+02  0.62420473396E+02  0.00000000000E+00 0. -1.
</event>
<event>
 8    1  0.6692409E-009  0.1190959E+03  0.7561462E-02  0.1244596E+00
          1   -1    0    0  501    0  0.00000000000E+00  0.00000000000E+00  0.11534611325E+03  0.11534611325E+03  0.00000000000E+00 0. -1.
         -1   -1    0    0    0  501 -0.00000000000E+00 -0.00000000000E+00 -0.17035133250E+03  0.17035133250E+03  0.00000000000E+00 0.  1.
         25    2    1    2    0    0 -0.77292796653E+02  0.37021964484E+02 -0.25448629409E+02  0.15375022152E+03  0.12508675234E+03 0.  0.
         23    2    1    2    0    0  0.77292796653E+02 -0.37021964484E+02 -0.29556589840E+02  0.13194722423E+03  0.95873227283E+02 0.  0.
          5    1    3    3  502    0  0.32343534213E+02  0.15752702569E+02 -0.21081206740E+02  0.41906342255E+02  0.41800000000E+01 0.  1.
         -5    1    3    3    0  502 -0.10963633087E+03  0.21269261915E+02 -0.43674226693E+01  0.11184387926E+03  0.41800000000E+01 0.  1.
        -11    1    4    4    0    0  0.50726439435E+02 -0.88493913374E+01  0.30973829190E+02  0.60090444161E+02  0.00000000000E+00 0. -1.
         11    1    4    4    0    0  0.26566357218E+02 -0.28172573147E+02 -0.60530419030E+02  0.71856780066E+02  0.00000000000E+00 0.  1.
</event>
<event>
 8    1  0.6692409E-009  0.7412201E+02  0.7561462E-02  0.1346612E+00
         -2   -1    0    0    0  501 -0.00000000000E+00  0.00000000000E+00  0.82468583815E+02  0.82468583815E+02  0.00000000000E+00 0.  1.
          2   -1    0    0  501    0  0.00000000000E+00 -0.00000000000E+00 -0.19610532836E+03  0.19610532836E+03  0.00000000000E+00 0. -1.
         25    2    1    2    0    0  0.18870430783E+02 -0.51356766910E+02 -0.22305756944E+02  0.13833514371E+03  0.12508179134E+03 0.  0.
         23    2    1    2    0    0 -0.18870430783E+02  0.51356766910E+02 -0.91330987603E+02  0.14023876847E+03  0.91279527936E+02 0.  0.
          5    1    3    3  502    0  0.15788646418E+02 -0.59479319652E+02 -0.67899838268E+02  0.91732934428E+02  0.41800000000E+01 0.  1.
         -5    1    3    3    0  502  0.30817843657E+01  0.81225527418E+01  0.45594081324E+02  0.46602209279E+02  0.41800000000E+01 0.  1.
        -11    1    4    4    0    0 -0.29138586652E+02  0.51523732351E+01 -0.87941017715E+02  0.92785919076E+02  0.00000000000E+00 0. -1.
         11    1    4    4    0    0  0.10268155869E+02  0.46204393675E+02 -0.33899698877E+01  0.47452849394E+02  0.00000000000E+00 0.  1.
</event>
<event>
 8    1  0.6692409E-009  0.8314407E+02  0.7561462E-02  0.1320359E+00
         -1   -1    0    0    0  501 -0.00000000000E+00  0.00000000000E+00  0.23574181809E+03  0.23574181809E+03  0.00000000000E+00 0.  1.
          1   -1    0    0  501    0  0.00000000000E+00 -0.00000000000E+00 -0.75904299317E+02  0.75904299317E+02  0.00000000000E+00 0. -1.
         25    2    1    2    0    0  0.53769258523E+02  0.30810207749E+02  0.14661472359E+03  0.20243676824E+03  0.12507743961E+03 0.  0.
         23    2    1    2    0    0 -0.53769258523E+02 -0.30810207749E+02  0.13222795185E+02  0.10920934917E+03  0.88946262254E+02 0.  0.
          5    1    3    3  502    0  0.61029893700E+02  0.51845692608E+02  0.33208541660E+02  0.86792300385E+02  0.41800000000E+01 0. -1.
         -5    1    3    3    0  502 -0.72606351765E+01 -0.21035484859E+02  0.11340618193E+03  0.11564446786E+03  0.41800000000E+01 0. -1.
        -11    1    4    4    0    0 -0.19300784543E+02 -0.38099494947E+01  0.48913218616E+02  0.52721333011E+02  0.00000000000E+00 0.  1.
         11    1    4    4    0    0 -0.34468473980E+02 -0.27000258255E+02 -0.35690423431E+02  0.56488016154E+02  0.00000000000E+00 0. -1.
</event>
<event>
 8    1  0.6692409E-009  0.1491161E+03  0.7561462E-02  0.1201563E+00
         -1   -1    0    0    0  501 -0.00000000000E+00  0.00000000000E+00  0.86159166331E+02  0.86159166331E+02  0.00000000000E+00 0.  1.
          1   -1    0    0  501    0  0.00000000000E+00 -0.00000000000E+00 -0.26704383275E+03  0.26704383275E+03  0.00000000000E+00 0. -1.
         25    2    1    2    0    0  0.10431487204E+03  0.84592704173E+01 -0.11406786219E+03  0.19902791191E+03  0.12508989068E+03 0.  0.
         23    2    1    2    0    0 -0.10431487204E+03 -0.84592704173E+01 -0.66816804221E+02  0.15417508717E+03  0.91391030153E+02 0.  0.
          5    1    3    3  502    0  0.12967952389E+03  0.21262109543E+02 -0.10683953013E+03  0.16941373562E+03  0.41800000000E+01 0. -1.
         -5    1    3    3    0  502 -0.25364651849E+02 -0.12802839126E+02 -0.72283320663E+01  0.29614176294E+02  0.41800000000E+01 0. -1.
        -11    1    4    4    0    0  0.16721005371E+02 -0.26162106210E+00 -0.26327023345E+01  0.16929016149E+02  0.00000000000E+00 0.  1.
         11    1    4    4    0    0 -0.12103587741E+03 -0.81976493552E+01 -0.64184101886E+02  0.13724607102E+03  0.00000000000E+00 0. -1.
</event>
<event>
 8    1  0.6692409E-009  0.1686008E+03  0.7561462E-02  0.1179315E+00
         -1   -1    0    0    0  501 -0.00000000000E+00  0.00000000000E+00  0.89971994769E+02  0.89971994769E+02  0.00000000000E+00 0.  1.
          1   -1    0    0  501    0  0.00000000000E+00 -0.00000000000E+00 -0.32060960456E+03  0.32060960456E+03  0.00000000000E+00 0. -1.
         25    2    1    2    0    0 -0.11497482350E+03  0.59560733586E+02 -0.14099316368E+03  0.22867634845E+03  0.12508840519E+03 0.  0.
         23    2    1    2    0    0  0.11497482350E+03 -0.59560733586E+02 -0.89644446118E+02  0.18190525088E+03  0.91031327316E+02 0.  0.
          5    1    3    3  502    0  0.18809331711E+02  0.39005648039E+02 -0.23806632560E+02  0.49592939943E+02  0.41800000000E+01 0.  1.
         -5    1    3    3    0  502 -0.13378415521E+03  0.20555085547E+02 -0.11718653112E+03  0.17908340851E+03  0.41800000000E+01 0.  1.
        -11    1    4    4    0    0  0.50929944813E+02 -0.76617519410E+02 -0.52803428443E+02  0.10607688539E+03  0.00000000000E+00 0. -1.
         11    1    4    4    0    0  0.64044878691E+02  0.17056785825E+02 -0.36841017675E+02  0.75828365487E+02  0.00000000000E+00 0.  1.
</event>
<event>
 8    1  0.6692409E-009  0.1142678E+03  0.7561462E-02  0.1252865E+00
          1   -1    0    0  501    0  0.00000000000E+00  0.00000000000E+00  0.81293372200E+02  0.81293372200E+02  0.00000000000E+00 0. -1.
         -1   -1    0    0    0  501 -0.00000000000E+00 -0.00000000000E+00 -0.19388220508E+03  0.19388220508E+03  0.00000000000E+00 0.  1.
         25    2    1    2    0    0 -0.32572602292E+02  0.51797237387E+02 -0.47810983528E+02  0.14723397584E+03  0.12509206720E+03 0.  0.
         23    2    1    2    0    0  0.32572602292E+02 -0.51797237387E+02 -0.64777849350E+02  0.12794160143E+03  0.91809342607E+02 0.  0.
          5    1    3    3  502    0 -0.50140222843E+02 -0.24257386749E+02 -0.39945795576E+02  0.68670239135E+02  0.41800000000E+01 0.  1.
         -5    1    3    3    0  502  0.17567620551E+02  0.76054624136E+02 -0.78651879521E+01  0.78563736710E+02  0.41800000000E+01 0.  1.
        -11    1    4    4    0    0 -0.22960572655E+02 -0.20410363939E+02 -0.55562871170E+02  0.63490184324E+02  0.00000000000E+00 0.  1.
         11    1    4    4    0    0  0.55533174947E+02 -0.31386873447E+02 -0.92149781800E+01  0.64451417109E+02  0.00000000000E+00 0. -1.
</event>
<event>
 8    1  0.6692409E-009  0.1276830E+03  0.7561462E-02  0.1230935E+00
         -3   -1    0    0    0  501 -0.00000000000E+00  0.00000000000E+00  0.66904187338E+03  0.66904187338E+03  0.00000000000E+00 0.  1.
          3   -1    0    0  501    0  0.00000000000E+00 -0.00000000000E+00 -0.40348962747E+02  0.40348962747E+02  0.00000000000E+00 0. -1.
         25    2    1    2    0    0  0.62075558772E+02 -0.35309233991E+02  0.55376879750E+03  0.57219679914E+03  0.12509667804E+03 0.  0.
         23    2    1    2    0    0 -0.62075558772E+02  0.35309233991E+02  0.74924113130E+02  0.13719403699E+03  0.90047010246E+02 0.  0.
          5    1    3    3  502    0  0.61745237648E+02  0.34281107147E+02  0.21540708143E+03  0.22672748358E+03  0.41800000000E+01 0.  1.
         -5    1    3    3    0  502  0.33032112398E+00 -0.69590341139E+02  0.33836171607E+03  0.34546931556E+03  0.41800000000E+01 0.  1.
        -11    1    4    4    0    0 -0.59259896558E+02 -0.17677879640E+02  0.38860892645E+02  0.73037057346E+02  0.00000000000E+00 0.  1.
         11    1    4    4    0    0 -0.28156622142E+01  0.52987113632E+02  0.36063220485E+02  0.64156979640E+02  0.00000000000E+00 0. -1.
</event>
<event>
 8    1  0.6692409E-009  0.3753015E+03  0.7561462E-02  0.1052684E+00
          2   -1    0    0  501    0  0.00000000000E+00  0.00000000000E+00  0.21675228350E+04  0.21675228350E+04  0.00000000000E+00 0. -1.
         -2   -1    0    0    0  501 -0.00000000000E+00 -0.00000000000E+00 -0.67352124618E+02  0.67352124618E+02  0.00000000000E+00 0.  1.
         25    2    1    2    0    0 -0.30068589185E+03  0.20370459938E+03  0.92870477651E+03  0.10050111887E+04  0.12508940079E+03 0.  0.
         23    2    1    2    0    0  0.30068589185E+03 -0.20370459938E+03  0.11714659339E+04  0.12298637709E+04  0.91240842588E+02 0.  0.
          5    1    3    3  502    0 -0.58402437909E+02 -0.16282206488E+01  0.23272279962E+03  0.23998097783E+03  0.41800000000E+01 0. -1.
         -5    1    3    3    0  502 -0.24228345394E+03  0.20533282003E+03  0.69598197689E+03  0.76503021090E+03  0.41800000000E+01 0. -1.
        -11    1    4    4    0    0  0.12635902463E+03 -0.33388131592E+02  0.41985530571E+03  0.43972701551E+03  0.00000000000E+00 0. -1.
         11    1    4    4    0    0  0.17432686722E+03 -0.17031646779E+03  0.75161062816E+03  0.79013675537E+03  0.00000000000E+00 0.  1.
</event>
<event>
 8    1  0.6692409E-009  0.9217605E+02  0.7561462E-02  0.1297666E+00
          1   -1    0    0  501    0  0.00000000000E+00  0.00000000000E+00  0.32686325644E+03  0.32686325644E+03  0.00000000000E+00 0. -1.
         -1   -1    0    0    0  501 -0.00000000000E+00 -0.00000000000E+00 -0.37580599213E+02  0.37580599213E+02  0.00000000000E+00 0.  1.
         25    2    1    2    0    0 -0.16614631510E+02 -0.24783406035E+02  0.16341356480E+03  0.20794511726E+03  0.12508763102E+03 0.  0.
         23    2    1    2    0    0  0.16614631510E+02  0.24783406035E+02  0.12586909242E+03  0.15649873840E+03  0.88082708273E+02 0.  0.
          5    1    3    3  502    0  0.19152904167E+02  0.38142949332E+02  0.20156598297E+02  0.47386487279E+02  0.41800000000E+01 0. -1.
         -5    1    3    3    0  502 -0.35767535677E+02 -0.62926355366E+02  0.14325696650E+03  0.16055862998E+03  0.41800000000E+01 0. -1.
        -11    1    4    4    0    0 -0.16119375886E+02 -0.11723042412E+02  0.98190410785E+02  0.10019291778E+03  0.00000000000E+00 0. -1.
         11    1    4    4    0    0  0.32734007396E+02  0.36506448446E+02  0.27678681639E+02  0.56305820619E+02  0.00000000000E+00 0.  1.
</event>
<event>
 8    1  0.6692409E-009  0.2202431E+03  0.7561462E-02  0.1133702E+00
          2   -1    0    0  501    0  0.00000000000E+00  0.00000000000E+00  0.26180952117E+03  0.26180952117E+03  0.00000000000E+00 0. -1.
         -2   -1    0    0    0  501 -0.00000000000E+00 -0.00000000000E+00 -0.29129349328E+03  0.29129349328E+03  0.00000000000E+00 0.  1.
         25    2    1    2    0    0 -0.20509216227E+03 -0.33122242753E+02  0.13128629994E+03  0.27576126236E+03  0.12509317838E+03 0.  0.
         23    2    1    2    0    0  0.20509216227E+03  0.33122242753E+02 -0.16077027205E+03  0.27734175210E+03  0.88946551890E+02 0.  0.
          5    1    3    3  502    0 -0.19176846879E+03 -0.44282181344E+02  0.15177239693E+03  0.24857270581E+03  0.41800000000E+01 0.  1.
         -5    1    3    3    0  502 -0.13323693480E+02  0.11159938591E+02 -0.20486096987E+02  0.27188556546E+02  0.41800000000E+01 0.  1.
        -11    1    4    4    0    0  0.20937029085E+03  0.44104528623E+02 -0.14938001641E+03  0.26095117827E+03  0.00000000000E+00 0.  1.
         11    1    4    4    0    0 -0.42781285796E+01 -0.10982285871E+02 -0.11390255636E+02  0.16390573832E+02  0.00000000000E+00 0. -1.
</event>
<event>
 8    1  0.6692409E-009  0.9411025E+02  0.7561462E-02  0.1293193E+00
         -1   -1    0    0    0  501 -0.00000000000E+00  0.00000000000E+00  0.20105092614E+03  0.20105092614E+03  0.00000000000E+00 0.  1.
          1   -1    0    0  501    0  0.00000000000E+00 -0.00000000000E+00 -0.69550895011E+02  0.69550895011E+02  0.00000000000E+00 0. -1.
         25    2    1    2    0    0 -0.21043704827E+02  0.90184285429E+01  0.29041475066E+02  0.13049915165E+03  0.12514971730E+03 0.  0.
         23    2    1    2    0    0  0.21043704827E+02 -0.90184285429E+01  0.10245855606E+03  0.14010266950E+03  0.92773017222E+02 0.  0.
          5    1    3    3  502    0 -0.37893677072E+02 -0.39358022788E+02  0.50768083761E+02  0.74698430028E+02  0.41800000000E+01 0.  1.
         -5    1    3    3    0  502  0.16849972245E+02  0.48376451331E+02 -0.21726608696E+02  0.55800721622E+02  0.41800000000E+01 0.  1.
        -11    1    4    4    0    0  0.38982364467E+02  0.23047567670E+02  0.90948373994E+02  0.10159932011E+03  0.00000000000E+00 0. -1.
         11    1    4    4    0    0 -0.17938659640E+02 -0.32065996213E+02  0.11510182066E+02  0.38503349387E+02  0.00000000000E+00 0.  1.
</event>
<event>
 8    1  0.6692409E-009  0.7750227E+02  0.7561462E-02  0.1336293E+00
         -3   -1    0    0    0  501 -0.00000000000E+00  0.00000000000E+00  0.70945030708E+03  0.70945030708E+03  0.00000000000E+00 0.  1.
          3   -1    0    0  501    0  0.00000000000E+00 -0.00000000000E+00 -0.18983608729E+02  0.18983608729E+02  0.00000000000E+00 0. -1.
         25    2    1    2    0    0 -0.11794049173E+02 -0.35140515888E+01  0.57708510372E+03  0.59061513955E+03  0.12509027929E+03 0.  0.
         23    2    1    2    0    0  0.11794049173E+02  0.35140515888E+01  0.11338159463E+03  0.13781877626E+03  0.77376875967E+02 0.  0.
          5    1    3    3  502    0 -0.12762436432E+02 -0.42554332281E+02  0.51643155740E+03  0.51835584000E+03  0.41800000000E+01 0. -1.
         -5    1    3    3    0  502  0.96838725973E+00  0.39040280693E+02  0.60653546315E+02  0.72259299547E+02  0.41800000000E+01 0. -1.
        -11    1    4    4    0    0 -0.10232805678E+02  0.32858152792E+02  0.84121497136E+02  0.90888914601E+02  0.00000000000E+00 0.  1.
         11    1    4    4    0    0  0.22026854850E+02 -0.29344101203E+02  0.29260097497E+02  0.46929861661E+02  0.00000000000E+00 0. -1.
</event>
<event>
 8    1  0.6692409E-009  0.1384483E+03  0.7561462E-02  0.1215432E+00
         -1   -1    0    0    0  501 -0.00000000000E+00  0.00000000000E+00  0.51709869942E+03  0.51709869942E+03  0.00000000000E+00 0.  1.
          1   -1    0    0  501    0  0.00000000000E+00 -0.00000000000E+00 -0.13629803120E+03  0.13629803120E+03  0.00000000000E+00 0. -1.
         25    2    1    2    0    0  0.21880548492E+02 -0.87924900361E+02  0.47105907112E+03  0.49573304098E+03  0.12508018601E+03 0.  0.
         23    2    1    2    0    0 -0.21880548492E+02  0.87924900361E+02 -0.90258402897E+02  0.15766368963E+03  0.92204735393E+02 0.  0.
          5    1    3    3  502    0  0.74037700070E+01 -0.11771841559E+03  0.40297595004E+03  0.41990419133E+03  0.41800000000E+01 0. -1.
         -5    1    3    3    0  502  0.14476778485E+02  0.29793515227E+02  0.68083121079E+02  0.75828849660E+02  0.41800000000E+01 0. -1.
        -11    1    4    4    0    0  0.24792528530E+02 -0.12603781992E+01 -0.34771669787E+02  0.42723846314E+02  0.00000000000E+00 0.  1.
         11    1    4    4    0    0 -0.46673077022E+02  0.89185278560E+02 -0.55486733109E+02  0.11493984332E+03  0.00000000000E+00 0. -1.
</event>
<event>
 8    1  0.6692409E-009  0.9252953E+02  0.7561462E-02  0.1296839E+00
          2   -1    0    0  501    0  0.00000000000E+00  0.00000000000E+00  0.15334507942E+03  0.15334507942E+03  0.00000000000E+00 0. -1.
         -2   -1    0    0    0  501 -0.00000000000E+00 -0.00000000000E+00 -0.11564458482E+03  0.11564458482E+03  0.00000000000E+00 0.  1.
         25    2    1    2    0    0 -0.25811985161E+02 -0.63841913002E+02  0.58297466569E+02  0.15423509599E+03  0.12509125386E+03 0.  0.
         23    2    1    2    0    0  0.25811985161E+02  0.63841913002E+02 -0.20596971965E+02  0.11475456826E+03  0.89455727865E+02 0.  0.
          5    1    3    3  502    0  0.33894337422E+02 -0.12456784165E+02 -0.21331007619E+02  0.42148331724E+02  0.41800000000E+01 0.  1.
         -5    1    3    3    0  502 -0.59706322583E+02 -0.51385128837E+02  0.79628474188E+02  0.11208676427E+03  0.41800000000E+01 0.  1.
        -11    1    4    4    0    0  0.16097899321E+02  0.24620618476E+02 -0.54550621113E+02  0.61976507488E+02  0.00000000000E+00 0. -1.
         11    1    4    4    0    0  0.97140858403E+01  0.39221294526E+02  0.33953649148E+02  0.52778060768E+02  0.00000000000E+00 0.  1.
</event>
<event>
 8    1  0.6692409E-009  0.2109926E+03  0.7561462E-02  0.1140782E+00
         -1   -1    0    0    0  501 -0.00000000000E+00  0.00000000000E+00  0.28673167316E+03  0.28673167316E+03  0.00000000000E+00 0.  1.
          1   -1    0    0  501    0  0.00000000000E+00 -0.00000000000E+00 -0.20114969565E+03  0.20114969565E+03  0.00000000000E+00 0. -1.
         25    2    1    2    0    0  0.93246707387E+01  0.20224398414E+03 -0.26220248459E+02  0.23942425479E+03  0.12508754433E+03 0.  0.
         23    2    1    2    0    0 -0.93246707387E+01 -0.20224398414E+03  0.11180222597E+03  0.24845711402E+03  0.90783374989E+02 0.  0.
          5    1    3    3  502    0  0.34004500819E+02  0.13345053933E+03 -0.69569612657E+02  0.15434622097E+03  0.41800000000E+01 0.  1.
         -5    1    3    3    0  502 -0.24679830080E+02  0.68793444805E+02  0.43349364198E+02  0.85078033812E+02  0.41800000000E+01 0.  1.
        -11    1    4    4    0    0 -0.34129705429E+02 -0.95579145139E+02  0.92378073260E+02  0.13723672321E+03  0.00000000000E+00 0.  1.
         11    1    4    4    0    0  0.24805034690E+02 -0.10666483900E+03  0.19424152705E+02  0.11122039081E+03  0.00000000000E+00 0. -1.
</event>
<event>
 8    1  0.6692409E-009  0.1146444E+03  0.7561462E-02  0.1252203E+00
         -1   -1    0    0    0  501 -0.00000000000E+00  0.00000000000E+00  0.75785797676E+03  0.75785797676E+03  0.00000000000E+00 0.  1.
          1   -1    0    0  501    0  0.00000000000E+00 -0.00000000000E+00 -0.22126704460E+02  0.22126704460E+02  0.00000000000E+00 0. -1.
         25    2    1    2    0    0  0.17431586880E+02 -0.60604624474E+02  0.56549997758E+03  0.58259282400E+03  0.12508954074E+03 0.  0.
         23    2    1    2    0    0 -0.17431586880E+02  0.60604624474E+02  0.17023129472E+03  0.19739185723E+03  0.77511746635E+02 0.  0.
          5    1    3    3  502    0  0.18858041540E+02  0.34636006096E+02  0.24580133965E+03  0.24898001852E+03  0.41800000000E+01 0. -1.
         -5    1    3    3    0  502 -0.14264546593E+01 -0.95240630570E+02  0.31969863793E+03  0.33361280548E+03  0.41800000000E+01 0. -1.
        -11    1    4    4    0    0 -0.54087760444E+01  0.75190963532E+02  0.15747109182E+03  0.17458545361E+03  0.00000000000E+00 0.  1.
         11    1    4    4    0    0 -0.12022810836E+02 -0.14586339058E+02  0.12760202909E+02  0.22806403614E+02  0.00000000000E+00 0. -1.
</event>
<event>
 8    1  0.6692409E-009  0.1341884E+03  0.7561462E-02  0.1221370E+00
         -2   -1    0    0    0  501 -0.00000000000E+00  0.00000000000E+00  0.73429920254E+02  0.73429920254E+02  0.00000000000E+00 0.  1.
          2   -1    0    0  501    0  0.00000000000E+00 -0.00000000000E+00 -0.33188645393E+03  0.33188645393E+03  0.00000000000E+00 0. -1.
         25    2    1    2    0    0 -0.50338878012E+02  0.94126061240E+02 -0.21108929084E+03  0.26758237118E+03  0.12509164087E+03 0.  0.
         23    2    1    2    0    0  0.50338878012E+02 -0.94126061240E+02 -0.47367242837E+02  0.13773400300E+03  0.73029321814E+02 0.  0.
          5    1    3    3  502    0 -0.31795144067E+02  0.12252739116E+03 -0.18665963608E+03  0.22557301459E+03  0.41800000000E+01 0.  1.
         -5    1    3    3    0  502 -0.18543733944E+02 -0.28401329916E+02 -0.24429654757E+02  0.42009356590E+02  0.41800000000E+01 0.  1.
        -11    1    4    4    0    0  0.40702056322E+02 -0.63363111549E+02 -0.66311046518E+02  0.10034289304E+03  0.00000000000E+00 0.  1.
         11    1    4    4    0    0  0.96368216893E+01 -0.30762949691E+02  0.18943803681E+02  0.37391109957E+02  0.00000000000E+00 0. -1.
</event>
<event>
 8    1  0.6692409E-009  0.5814481E+02  0.7561462E-02  0.1405786E+00
          2   -1    0    0  501    0  0.00000000000E+00  0.00000000000E+00  0.12942008419E+03  0.12942008419E+03  0.00000000000E+00 0. -1.
         -2   -1    0    0    0  501 -0.00000000000E+00 -0.00000000000E+00 -0.10197344310E+03  0.10197344310E+03  0.00000000000E+00 0.  1.
         25    2    1    2    0    0 -0.25272744971E+02 -0.14088315723E+02 -0.10369984654E+02  0.12880986999E+03  0.12508898331E+03 0.  0.
         23    2    1    2    0    0  0.25272744971E+02  0.14088315723E+02  0.37816625746E+02  0.10258365730E+03  0.90863178928E+02 0.  0.
          5    1    3    3  502    0 -0.62567977654E+01  0.23414123119E+02  0.49650135914E+02  0.55407373841E+02  0.41800000000E+01 0. -1.
         -5    1    3    3    0  502 -0.19015947206E+02 -0.37502438842E+02 -0.60020120568E+02  0.73402496145E+02  0.41800000000E+01 0. -1.
        -11    1    4    4    0    0  0.19417219990E+02 -0.11918239853E+02  0.62333185556E+02  0.66366398840E+02  0.00000000000E+00 0. -1.
         11    1    4    4    0    0  0.58555249813E+01  0.26006555576E+02 -0.24516559811E+02  0.36217258464E+02  0.00000000000E+00 0.  1.
</event>
<event>
 8    1  0.6692409E-009  0.2348264E+03  0.7561462E-02  0.1123288E+00
          1   -1    0    0  501    0  0.00000000000E+00  0.00000000000E+00  0.91166874634E+02  0.91166874634E+02  0.00000000000E+00 0. -1.
         -1   -1    0    0    0  501 -0.00000000000E+00 -0.00000000000E+00 -0.68681400428E+03  0.68681400428E+03  0.00000000000E+00 0.  1.
         25    2    1    2    0    0  0.19046782767E+02 -0.21181809794E+03 -0.19149829803E+03  0.31233068960E+03  0.12509666250E+03 0.  0.
         23    2    1    2    0    0 -0.19046782767E+02  0.21181809794E+03 -0.40414883161E+03  0.46565018931E+03  0.90907283323E+02 0.  0.
          5    1    3    3  502    0  0.71894875342E+02 -0.12524514816E+03 -0.10040656743E+03  0.17593797606E+03  0.41800000000E+01 0. -1.
         -5    1    3    3    0  502 -0.52848092575E+02 -0.86572949786E+02 -0.91091730600E+02  0.13639271354E+03  0.41800000000E+01 0. -1.
        -11    1    4    4    0    0  0.25554849148E+02  0.55372852095E+02 -0.62908854577E+02  0.87616933570E+02  0.00000000000E+00 0. -1.
         11    1    4    4    0    0 -0.44601631916E+02  0.15644524585E+03 -0.34123997703E+03  0.37803325574E+03  0.00000000000E+00 0.  1.
</event>
<event>
 8    1  0.6692409E-009  0.1045259E+03  0.7561462E-02  0.1271057E+00
         -2   -1    0    0    0  501 -0.00000000000E+00  0.00000000000E+00  0.11380655927E+03  0.11380655927E+03  0.00000000000E+00 0.  1.
          2   -1    0    0  501    0  0.00000000000E+00 -0.00000000000E+00 -0.15499488527E+03  0.15499488527E+03  0.00000000000E+00 0. -1.
         25    2    1    2    0    0  0.89048380621E+01  0.76033183362E+02 -0.96923688219E+01  0.14697768382E+03  0.12509259137E+03 0.  0.
         23    2    1    2    0    0 -0.89048380621E+01 -0.76033183362E+02 -0.31495957183E+02  0.12182376072E+03  0.89379484467E+02 0.  0.
          5    1    3    3  502    0 -0.42846005513E+02  0.67055095008E+02 -0.36745000440E+02  0.87748694647E+02  0.41800000000E+01 0. -1.
         -5    1    3    3    0  502  0.51750843575E+02  0.89780883544E+01  0.27052631618E+02  0.59228989175E+02  0.41800000000E+01 0. -1.
        -11    1    4    4    0    0 -0.44775952761E+01 -0.55062763945E+02  0.25563061232E+02  0.60872218066E+02  0.00000000000E+00 0.  1.
         11    1    4    4    0    0 -0.44272427860E+01 -0.20970419417E+02 -0.57059018415E+02  0.60951542652E+02  0.00000000000E+00 0. -1.
</event>
<event>
 8    1  0.6692409E-009  0.8808333E+02  0.7561462E-02  0.1307561E+00
          1   -1    0    0  501    0  0.00000000000E+00  0.00000000000E+00  0.29527583813E+03  0.29527583813E+03  0.00000000000E+00 0. -1.
         -1   -1    0    0    0  501 -0.00000000000E+00 -0.00000000000E+00 -0.42366976345E+02  0.42366976345E+02  0.00000000000E+00 0.  1.
         25    2    1    2    0    0  0.32297647516E+02  0.19757258776E+02  0.18274374464E+03  0.22466894508E+03  0.12508945346E+03 0.  0.
         23    2    1    2    0    0 -0.32297647516E+02 -0.19757258776E+02  0.70165117148E+02  0.11297386940E+03  0.80040391014E+02 0.  0.
          5    1    3    3  502    0  0.53741175542E+02  0.57867245593E+02  0.77957946761E+02  0.11104794426E+03  0.41800000000E+01 0.  1.
         -5    1    3    3    0  502 -0.21443528026E+02 -0.38109986817E+02  0.10478579788E+03  0.11362100082E+03  0.41800000000E+01 0.  1.
        -11    1    4    4    0    0 -0.39231119472E+02 -0.88279894802E+01 -0.14110658043E+01  0.40236864192E+02  0.00000000000E+00 0.  1.
         11    1    4    4    0    0  0.69334719565E+01 -0.10929269296E+02  0.71576182952E+02  0.72737005209E+02  0.00000000000E+00 0. -1.
</event>
<event>
 8    1  0.6692409E-009  0.1184652E+03  0.7561462E-02  0.1245651E+00
          1   -1    0    0  501    0  0.00000000000E+00  0.00000000000E+00  0.30879377095E+03  0.30879377095E+03  0.00000000000E+00 0. -1.
         -1   -1    0    0    0  501 -0.00000000000E+00 -0.00000000000E+00 -0.75788366226E+02  0.75788366226E+02  0.00000000000E+00 0.  1.
         25    2    1    2    0    0 -0.84000989879E+02  0.21434071710E+02  0.45116773790E+02  0.15873127910E+03  0.12507801548E+03 0.  0.
         23    2    1    2    0    0  0.84000989879E+02 -0.21434071710E+02  0.18788863093E+03  0.22585085807E+03  0.90503517773E+02 0.  0.
          5    1    3    3  502    0 -0.49231496083E+02  0.72733699969E+02  0.39410477368E+02  0.96356574472E+02  0.41800000000E+01 0.  1.
         -5    1    3    3    0  502 -0.34769493796E+02 -0.51299628259E+02  0.57062964221E+01  0.62374704626E+02  0.41800000000E+01 0.  1.
        -11    1    4    4    0    0  0.57299630734E+02 -0.11796148255E+02  0.30599664470E+02  0.66020726000E+02  0.00000000000E+00 0.  1.
         11    1    4    4    0    0  0.26701359145E+02 -0.96379234550E+01  0.15728896646E+03  0.15983013207E+03  0.00000000000E+00 0. -1.
</event>
<event>
 8    1  0.6692409E-009  0.8313684E+02  0.7561462E-02  0.1320378E+00
         -1   -1    0    0    0  501 -0.00000000000E+00  0.00000000000E+00  0.40339519725E+02  0.40339519725E+02  0.00000000000E+00 0.  1.
          1   -1    0    0  501    0  0.00000000000E+00 -0.00000000000E+00 -0.16710326447E+04  0.16710326447E+04  0.00000000000E+00 0. -1.
         25    2    1    2    0    0  0.43632589756E+02 -0.21847917153E+02 -0.15786479412E+04  0.15843476223E+04  0.12508769630E+03 0.  0.
         23    2    1    2    0    0 -0.43632589756E+02  0.21847917153E+02 -0.52045183840E+02  0.12702454216E+03  0.10509709214E+03 0.  0.
          5    1    3    3  502    0 -0.44834556850E+01 -0.37865110192E+02 -0.15108821925E+03  0.15588133416E+03  0.41800000000E+01 0. -1.
         -5    1    3    3    0  502  0.48116045441E+02  0.16017193039E+02 -0.14275597219E+04  0.14284662881E+04  0.41800000000E+01 0. -1.
        -11    1    4    4    0    0 -0.12224622110E+02 -0.20764115061E+02  0.24235493801E+02  0.34175269125E+02  0.00000000000E+00 0.  1.
         11    1    4    4    0    0 -0.31407967646E+02  0.42612032214E+02 -0.76280677641E+02  0.92849273031E+02  0.00000000000E+00 0. -1.
</event>
<event>
 8    1  0.6692409E-009  0.1419254E+03  0.7561462E-02  0.1210761E+00
          2   -1    0    0  501    0  0.00000000000E+00  0.00000000000E+00  0.10418496342E+04  0.10418496342E+04  0.00000000000E+00 0. -1.
         -2   -1    0    0    0  501 -0.00000000000E+00 -0.00000000000E+00 -0.33534961356E+02  0.33534961356E+02  0.00000000000E+00 0.  1.
         25    2    1    2    0    0 -0.82128779325E+02  0.83744678241E+02  0.80364532936E+03  0.82173685254E+03  0.12508929570E+03 0.  0.
         23    2    1    2    0    0  0.82128779325E+02 -0.83744678241E+02  0.20466934354E+03  0.25364774306E+03  0.93216574978E+02 0.  0.
          5    1    3    3  502    0  0.27067335617E+00 -0.14850616079E+02  0.34689861726E+03  0.34724161202E+03  0.41800000000E+01 0. -1.
         -5    1    3    3    0  502 -0.82399452681E+02  0.98595294321E+02  0.45674671210E+03  0.47449524052E+03  0.41800000000E+01 0. -1.
        -11    1    4    4    0    0  0.59682615503E+02 -0.72292093956E+01  0.13491611465E+03  0.14770454987E+03  0.00000000000E+00 0.  1.
         11    1    4    4    0    0  0.22446163822E+02 -0.76515468846E+02  0.69753228890E+02  0.10594319319E+03  0.00000000000E+00 0. -1.
</event>
<event>
 8    1  0.6692409E-009  0.1213508E+03  0.7561462E-02  0.1240885E+00
         -2   -1    0    0    0  501 -0.00000000000E+00  0.00000000000E+00  0.13151069035E+02  0.13151069035E+02  0.00000000000E+00 0.  1.
          2   -1    0    0  501    0  0.00000000000E+00 -0.00000000000E+00 -0.20892560859E+04  0.20892560859E+04  0.00000000000E+00 0. -1.
         25    2    1    2    0    0 -0.59215943408E+02 -0.17767070209E+02 -0.18094363943E+04  0.18148084125E+04  0.12508921754E+03 0.  0.
         23    2    1    2    0    0  0.59215943408E+02  0.17767070209E+02 -0.26666862257E+03  0.28759874244E+03  0.88196857365E+02 0.  0.
          5    1    3    3  502    0  0.22406807976E+02 -0.43755800618E+02 -0.89511483310E+03  0.89647346417E+03  0.41800000000E+01 0.  1.
         -5    1    3    3    0  502 -0.81622751384E+02  0.25988730409E+02 -0.91432156117E+03  0.91833494830E+03  0.41800000000E+01 0.  1.
        -11    1    4    4    0    0 -0.12658993005E+02  0.31928032136E+02 -0.79301569512E+02  0.86419837232E+02  0.00000000000E+00 0.  1.
         11    1    4    4    0    0  0.71874936413E+02 -0.14160961928E+02 -0.18736705306E+03  0.20117890520E+03  0.00000000000E+00 0. -1.
</event>
<event>
 8    1  0.6692409E-009  0.2466069E+03  0.7561462E-02  0.1115468E+00
          1   -1    0    0  501    0  0.00000000000E+00  0.00000000000E+00  0.47457048201E+03  0.47457048201E+03  0.00000000000E+00 0. -1.
         -1   -1    0    0    0  501 -0.00000000000E+00 -0.00000000000E+00 -0.24269265417E+03  0.24269265417E+03  0.00000000000E+00 0.  1.
         25    2    1    2    0    0 -0.17415156718E+03  0.14671642561E+03  0.35740371812E+03  0.44185993163E+03  0.12509317951E+03 0.  0.
         23    2    1    2    0    0  0.17415156718E+03 -0.14671642561E+03 -0.12552589028E+03  0.27540320455E+03  0.90750746837E+02 0.  0.
          5    1    3    3  502    0 -0.55901397713E+02 -0.10490489539E+02  0.44952185644E+02  0.72616720053E+02  0.41800000000E+01 0.  1.
         -5    1    3    3    0  502 -0.11825016946E+03  0.15720691514E+03  0.31245153248E+03  0.36924321157E+03  0.41800000000E+01 0.  1.
        -11    1    4    4    0    0  0.10074593430E+03 -0.36815882673E+02 -0.27141416141E+02  0.11064270859E+03  0.00000000000E+00 0. -1.
         11    1    4    4    0    0  0.73405632878E+02 -0.10990054293E+03 -0.98384474139E+02  0.16476049595E+03  0.00000000000E+00 0.  1.
</event>
<event>
 8    1  0.6692409E-009  0.1116643E+03  0.7561462E-02  0.1257518E+00
          1   -1    0    0  501    0  0.00000000000E+00  0.00000000000E+00  0.61073679223E+02  0.61073679223E+02  0.00000000000E+00 0. -1.
         -1   -1    0    0    0  501 -0.00000000000E+00 -0.00000000000E+00 -0.38951789733E+03  0.38951789733E+03  0.00000000000E+00 0.  1.
         25    2    1    2    0    0  0.26716634024E+02 -0.90263535177E+02 -0.95615801335E+02  0.18344982785E+03  0.12510065370E+03 0.  0.
         23    2    1    2    0    0 -0.26716634024E+02  0.90263535177E+02 -0.23282841678E+03  0.26714174871E+03  0.91073365642E+02 0.  0.
          5    1    3    3  502    0  0.20828482732E+02 -0.74623828077E+02  0.83772532116E+01  0.78039683374E+02  0.41800000000E+01 0. -1.
         -5    1    3    3    0  502  0.58881512918E+01 -0.15639707100E+02 -0.10399305455E+03  0.10541014447E+03  0.41800000000E+01 0. -1.
        -11    1    4    4    0    0 -0.58640641682E+02  0.49517673275E+02 -0.16352823312E+03  0.18064387023E+03  0.00000000000E+00 0.  1.
         11    1    4    4    0    0  0.31924007659E+02  0.40745861902E+02 -0.69300183651E+02  0.86497878478E+02  0.00000000000E+00 0. -1.
</event>
<event>
 8    1  0.6692409E-009  0.1064566E+03  0.7561462E-02  0.1267276E+00
         -1   -1    0    0    0  501 -0.00000000000E+00  0.00000000000E+00  0.18741520211E+02  0.18741520211E+02  0.00000000000E+00 0.  1.
          1   -1    0    0  501    0  0.00000000000E+00 -0.00000000000E+00 -0.64815151795E+03  0.64815151795E+03  0.00000000000E+00 0. -1.
         25    2    1    2    0    0 -0.53008884796E+01  0.83622581675E+01 -0.42387099209E+03  0.44205574089E+03  0.12509449761E+03 0.  0.
         23    2    1    2    0    0  0.53008884796E+01 -0.83622581675E+01 -0.20553900564E+03  0.22483729727E+03  0.90595257181E+02 0.  0.
          5    1    3    3  502    0  0.21183089641E+02 -0.53336515232E+02 -0.17281414929E+03  0.18214200433E+03  0.41800000000E+01 0. -1.
         -5    1    3    3    0  502 -0.26483978121E+02  0.61698773400E+02 -0.25105684280E+03  0.25991373656E+03  0.41800000000E+01 0. -1.
        -11    1    4    4    0    0  0.43157662616E+02  0.12425484140E+02 -0.75880674542E+02  0.88175128395E+02  0.00000000000E+00 0.  1.
         11    1    4    4    0    0 -0.37856774136E+02 -0.20787742307E+02 -0.12965833110E+03  0.13666216888E+03  0.00000000000E+00 0. -1.
</event>
<event>
 7    1  0.6692409E-009  0.2317779E+03  0.7561462E-02  0.1125395E+00
         -1   -1    0    0    0  501 -0.00000000000E+00  0.00000000000E+00  0.12031003204E+04  0.12031003204E+04  0.00000000000E+00 0.  1.
          1   -1    0    0  501    0  0.00000000000E+00 -0.00000000000E+00 -0.10996297884E+03  0.10996297884E+03  0.00000000000E+00 0. -1.
         25    2    1    2    0    0 -0.22708707418E+03  0.34023503474E+02  0.80737228135E+02  0.27366936749E+03  0.12510109770E+03 0.  0.
          5    1    3    3  502    0 -0.11709159057E+03  0.21419355692E+02  0.10665832924E+03  0.15988339806E+03  0.41800000000E+01 0. -1.
         -5    1    3    3    0  502 -0.10999548361E+03  0.12604147782E+02 -0.25921101100E+02  0.11378596942E+03  0.41800000000E+01 0. -1.
        -11    1    1    2    0    0  0.94557184580E+02  0.72790673178E+01  0.47332296696E+03  0.48273043930E+03  0.00000000000E+00 0. -1.
         11    1    1    2    0    0  0.13252988960E+03 -0.41302570791E+02  0.53907714643E+03  0.55666349242E+03  0.00000000000E+00 0.  1.
</event>
<event>
 8    1  0.6692409E-009  0.1834350E+03  0.7561462E-02  0.1164519E+00
         -1   -1    0    0    0  501 -0.00000000000E+00  0.00000000000E+00  0.40658084405E+02  0.40658084405E+02  0.00000000000E+00 0.  1.
          1   -1    0    0  501    0  0.00000000000E+00 -0.00000000000E+00 -0.89869585155E+03  0.89869585155E+03  0.00000000000E+00 0. -1.
         25    2    1    2    0    0 -0.59934011815E+02  0.14031196923E+03 -0.54644834245E+03  0.58097548964E+03  0.12508874496E+03 0.  0.
         23    2    1    2    0    0  0.59934011815E+02 -0.14031196923E+03 -0.31158942469E+03  0.35837844631E+03  0.89819857031E+02 0.  0.
          5    1    3    3  502    0  0.89851652908E+01  0.11654072615E+03 -0.25542263919E+03  0.28092823114E+03  0.41800000000E+01 0.  1.
         -5    1    3    3    0  502 -0.68919177105E+02  0.23771243088E+02 -0.29102570327E+03  0.30004725850E+03  0.41800000000E+01 0.  1.
        -11    1    4    4    0    0  0.68825448758E+02 -0.47445810428E+02 -0.13952788551E+03  0.16265324516E+03  0.00000000000E+00 0.  1.
         11    1    4    4    0    0 -0.88914369432E+01 -0.92866158805E+02 -0.17206153918E+03  0.19572520115E+03  0.00000000000E+00 0. -1.
</event>
<event>
 8    1  0.6692409E-009  0.1371565E+03  0.7561462E-02  0.1217207E+00
         -2   -1    0    0    0  501 -0.00000000000E+00  0.00000000000E+00  0.20281039653E+03  0.20281039653E+03  0.00000000000E+00 0.  1.
          2   -1    0    0  501    0  0.00000000000E+00 -0.00000000000E+00 -0.13889634168E+03  0.13889634168E+03  0.00000000000E+00 0. -1.
         25    2    1    2    0    0 -0.73603042940E+02 -0.89816993203E+02  0.79263202129E+02  0.18818633645E+03  0.12508773648E+03 0.  0.
         23    2    1    2    0    0  0.73603042940E+02  0.89816993203E+02 -0.15349147283E+02  0.15352040175E+03  0.99239192024E+02 0.  0.
          5    1    3    3  502    0  0.10375587750E+02  0.41872930736E+01  0.59304310623E+02  0.60495122968E+02  0.41800000000E+01 0. -1.
         -5    1    3    3    0  502 -0.83978630690E+02 -0.94004286277E+02  0.19958891506E+02  0.12769121348E+03  0.41800000000E+01 0. -1.
        -11    1    4    4    0    0  0.87010442759E+02  0.85925381429E+02 -0.36997614450E+02  0.12776076001E+03  0.00000000000E+00 0. -1.
         11    1    4    4    0    0 -0.13407399819E+02  0.38916117740E+01  0.21648467167E+02  0.25759641744E+02  0.00000000000E+00 0.  1.
</event>
<event>
 8    1  0.6692409E-009  0.1907669E+03  0.7561462E-02  0.1157771E+00
         -2   -1    0    0    0  501 -0.00000000000E+00  0.00000000000E+00  0.31972145801E+02  0.31972145801E+02  0.00000000000E+00 0.  1.
          2   -1    0    0  501    0  0.00000000000E+00 -0.00000000000E+00 -0.15137499129E+04  0.15137499129E+04  0.00000000000E+00 0. -1.
         25    2    1    2    0    0 -0.16172960243E+03  0.15123005930E+02 -0.11224263804E+04  0.11409968522E+04  0.12509063841E+03 0.  0.
         23    2    1    2    0    0  0.16172960243E+03 -0.15123005930E+02 -0.35935138669E+03  0.40472520644E+03  0.91015954653E+02 0.  0.
          5    1    3    3  502    0 -0.11094599560E+02 -0.35833894691E+02 -0.11361501687E+03  0.11972051874E+03  0.41800000000E+01 0. -1.
         -5    1    3    3    0  502 -0.15063500287E+03  0.50956900621E+02 -0.10088113635E+04  0.10212763335E+04  0.41800000000E+01 0. -1.
        -11    1    4    4    0    0  0.73590375588E+02  0.36945579991E+02 -0.13516951177E+03  0.15827607580E+03  0.00000000000E+00 0.  1.
         11    1    4    4    0    0  0.88139226842E+02 -0.52068585921E+02 -0.22418187492E+03  0.24644913064E+03  0.00000000000E+00 0. -1.
</event>
<event>
 8    1  0.6692409E-009  0.1083557E+03  0.7561462E-02  0.1263646E+00
         -1   -1    0    0    0  501 -0.00000000000E+00  0.00000000000E+00  0.74781400553E+02  0.74781400553E+02  0.00000000000E+00 0.  1.
          1   -1    0    0  501    0  0.00000000000E+00 -0.00000000000E+00 -0.21680539173E+03  0.21680539173E+03  0.00000000000E+00 0. -1.
         25    2    1    2    0    0  0.42300667994E+02 -0.32718225703E+02 -0.30225437904E+02  0.13936163392E+03  0.12509300183E+03 0.  0.
         23    2    1    2    0    0 -0.42300667994E+02  0.32718225703E+02 -0.11179855327E+03  0.15222515836E+03  0.88395438337E+02 0.  0.
          5    1    3    3  502    0  0.81590143038E+02 -0.44068612943E+02 -0.94607173202E+01  0.93305796497E+02  0.41800000000E+01 0.  1.
         -5    1    3    3    0  502 -0.39289475044E+02  0.11350387241E+02 -0.20764720584E+02  0.46055837423E+02  0.41800000000E+01 0.  1.
        -11    1    4    4    0    0  0.81427553881E+01  0.31270204694E+02 -0.31960695048E+01  0.32470679500E+02  0.00000000000E+00 0.  1.
         11    1    4    4    0    0 -0.50443423382E+02  0.14480210090E+01 -0.10860248376E+03  0.11975447886E+03  0.00000000000E+00 0. -1.
</event>
<event>
 8    1  0.6692409E-009  0.1364669E+03  0.7561462E-02  0.1218164E+00
          1   -1    0    0  501    0  0.00000000000E+00  0.00000000000E+00  0.53727541363E+03  0.53727541363E+03  0.00000000000E+00 0. -1.
         -1   -1    0    0    0  501 -0.00000000000E+00 -0.00000000000E+00 -0.41902186182E+02  0.41902186182E+02  0.00000000000E+00 0.  1.
         25    2    1    2    0    0 -0.66006009745E+02  0.75336835488E+02  0.30154459921E+03  0.34148033277E+03  0.12508892939E+03 0.  0.
         23    2    1    2    0    0  0.66006009745E+02 -0.75336835488E+02  0.19382862824E+03  0.23769726704E+03  0.94329324863E+02 0.  0.
          5    1    3    3  502    0  0.23494852275E+02  0.28598309401E+02  0.19847262281E+02  0.42204947625E+02  0.41800000000E+01 0. -1.
         -5    1    3    3    0  502 -0.89500862020E+02  0.46738526088E+02  0.28169733693E+03  0.29927538515E+03  0.41800000000E+01 0. -1.
        -11    1    4    4    0    0  0.65708700897E+02 -0.94700678541E+02  0.18058653633E+03  0.21423666584E+03  0.00000000000E+00 0. -1.
         11    1    4    4    0    0  0.29730884843E+00  0.19363843052E+02  0.13242091919E+02  0.23460601201E+02  0.00000000000E+00 0.  1.
</event>
<event>
 8    1  0.6692409E-009  0.2100846E+03  0.7561462E-02  0.1141499E+00
         -1   -1    0    0    0  501 -0.00000000000E+00  0.00000000000E+00  0.35425083174E+03  0.35425083174E+03  0.00000000000E+00 0.  1.
          1   -1    0    0  501    0  0.00000000000E+00 -0.00000000000E+00 -0.14210686972E+03  0.14210686972E+03  0.00000000000E+00 0. -1.
         25    2    1    2    0    0  0.15886106891E+03 -0.11374356526E+03  0.97097169334E+02  0.25149626582E+03  0.12509226027E+03 0.  0.
         23    2    1    2    0    0 -0.15886106891E+03  0.11374356526E+03  0.11504679269E+03  0.24486143564E+03  0.92449555444E+02 0.  0.
          5    1    3    3  502    0  0.12966635033E+03 -0.12226450931E+03  0.34216323706E+02  0.18152190461E+03  0.41800000000E+01 0. -1.
         -5    1    3    3    0  502  0.29194718580E+02  0.85209440542E+01  0.62880845628E+02  0.69974361215E+02  0.41800000000E+01 0. -1.
        -11    1    4    4    0    0 -0.10986812184E+03  0.29518299100E+02  0.87742061761E+02  0.14366977268E+03  0.00000000000E+00 0.  1.
         11    1    4    4    0    0 -0.48992947065E+02  0.84225266160E+02  0.27304730931E+02  0.10119166296E+03  0.00000000000E+00 0. -1.
</event>
<event>
 8    1  0.6692409E-009  0.1689620E+03  0.7561462E-02  0.1178935E+00
         -3   -1    0    0    0  501 -0.00000000000E+00  0.00000000000E+00  0.13345982680E+03  0.13345982680E+03  0.00000000000E+00 0.  1.
          3   -1    0    0  501    0  0.00000000000E+00 -0.00000000000E+00 -0.30837613490E+03  0.30837613490E+03  0.00000000000E+00 0. -1.
         25    2    1    2    0    0  0.94197924222E+02  0.12178787269E+03 -0.95762486026E+01  0.19860781182E+03  0.12509126076E+03 0.  0.
         23    2    1    2    0    0 -0.94197924222E+02 -0.12178787269E+03 -0.16534005950E+03  0.24322814988E+03  0.90094743225E+02 0.  0.
          5    1    3    3  502    0  0.69960389732E+01 -0.29495721001E+01  0.38092982180E+02  0.39066510315E+02  0.41800000000E+01 0.  1.
         -5    1    3    3    0  502  0.87201885248E+02  0.12473744479E+03 -0.47669230782E+02  0.15954130151E+03  0.41800000000E+01 0.  1.
        -11    1    4    4    0    0 -0.24932183908E+02 -0.10194829648E+03 -0.11266549260E+03  0.15397591426E+03  0.00000000000E+00 0. -1.
         11    1    4    4    0    0 -0.69265740313E+02 -0.19839576214E+02 -0.52674566900E+02  0.89252235622E+02  0.00000000000E+00 0.  1.
</event>
<event>
 8    1  0.6692409E-009  0.1710305E+03  0.7561462E-02  0.1176777E+00
          1   -1    0    0  501    0  0.00000000000E+00  0.00000000000E+00  0.42629445249E+03  0.42629445249E+03  0.00000000000E+00 0. -1.
         -1   -1    0    0    0  501 -0.00000000000E+00 -0.00000000000E+00 -0.81925828947E+02  0.81925828947E+02  0.00000000000E+00 0.  1.
         25    2    1    2    0    0 -0.14884474861E+03  0.18348096133E+02  0.21337303156E+03  0.28925283932E+03  0.12509093747E+03 0.  0.
         23    2    1    2    0    0  0.14884474861E+03 -0.18348096133E+02  0.13099559199E+03  0.21896744212E+03  0.91079546368E+02 0.  0.
          5    1    3    3  502    0  0.85786752397E+01  0.32456339125E+02  0.19376103285E+02  0.38986066700E+02  0.41800000000E+01 0. -1.
         -5    1    3    3    0  502 -0.15742342385E+03 -0.14108242992E+02  0.19399692827E+03  0.25026677262E+03  0.41800000000E+01 0. -1.
        -11    1    4    4    0    0  0.95171078974E+02 -0.14970534404E+02  0.24106530956E+02  0.99311509948E+02  0.00000000000E+00 0. -1.
         11    1    4    4    0    0  0.53673669640E+02 -0.33775617294E+01  0.10688906103E+03  0.11965593217E+03  0.00000000000E+00 0.  1.
</event>
<event>
 8    1  0.6692409E-009  0.2819441E+03  0.7561462E-02  0.1094632E+00
         -2   -1    0    0    0  501 -0.00000000000E+00  0.00000000000E+00  0.21272145157E+04  0.21272145157E+04  0.00000000000E+00 0. -1.
          2   -1    0    0  501    0  0.00000000000E+00 -0.00000000000E+00 -0.73045243893E+02  0.73045243893E+02  0.00000000000E+00 0.  1.
         25    2    1    2    0    0 -0.16535873668E+03 -0.21307241995E+03  0.17857509268E+04  0.18103306950E+04  0.12508990704E+03 0.  0.
         23    2    1    2    0    0  0.16535873668E+03  0.21307241995E+03  0.26841834506E+03  0.38992906462E+03  0.85163956774E+02 0.  0.
          5    1    3    3  502    0 -0.14971588307E+03 -0.22743080991E+03  0.17100581006E+04  0.17316049777E+04  0.41800000000E+01 0.  1.
         -5    1    3    3    0  502 -0.15642853614E+02  0.14358389964E+02  0.75692826208E+02  0.78725717341E+02  0.41800000000E+01 0.  1.
        -11    1    4    4    0    0  0.70242473986E+02  0.81818417116E+02  0.52494312977E+02  0.11993294554E+03  0.00000000000E+00 0.  1.
         11    1    4    4    0    0  0.95116262694E+02  0.13125400283E+03  0.21592403208E+03  0.26999611908E+03  0.00000000000E+00 0. -1.
</event>
<event>
 8    1  0.6692409E-009  0.1334265E+03  0.7561462E-02  0.1222458E+00
          2   -1    0    0  501    0  0.00000000000E+00  0.00000000000E+00  0.58607138830E+03  0.58607138830E+03  0.00000000000E+00 0.  1.
         -2   -1    0    0    0  501 -0.00000000000E+00 -0.00000000000E+00 -0.55376091795E+02  0.55376091795E+02  0.00000000000E+00 0. -1.
         25    2    1    2    0    0  0.72586139825E+02  0.35980170763E+02  0.49092682791E+03  0.51304934619E+03  0.12508861214E+03 0.  0.
         23    2    1    2    0    0 -0.72586139825E+02 -0.35980170763E+02  0.39768468603E+02  0.12839813391E+03  0.91330330742E+02 0.  0.
          5    1    3    3  502    0  0.68350273283E+00 -0.41013472459E+02  0.18253083623E+03  0.18712976961E+03  0.41800000000E+01 0. -1.
         -5    1    3    3    0  502  0.71902637092E+02  0.76993643222E+02  0.30839599168E+03  0.32591957658E+03  0.41800000000E+01 0. -1.
        -11    1    4    4    0    0 -0.43839220685E+02 -0.65609699557E+02  0.15204337650E+02  0.80359702772E+02  0.00000000000E+00 0.  1.
         11    1    4    4    0    0 -0.28746919140E+02  0.29629528794E+02  0.24564130953E+02  0.48038431137E+02  0.00000000000E+00 0. -1.
</event>
<event>
 8    1  0.6692409E-009  0.1300494E+03  0.7561462E-02  0.1227382E+00
          2   -1    0    0  501    0  0.00000000000E+00  0.00000000000E+00  0.40039568206E+03  0.40039568206E+03  0.00000000000E+00 0. -1.
         -2   -1    0    0    0  501 -0.00000000000E+00 -0.00000000000E+00 -0.56453988748E+02  0.56453988748E+02  0.00000000000E+00 0.  1.
         25    2    1    2    0    0 -0.68767677570E+02  0.46997730716E+02  0.91439596993E+02  0.17593168712E+03  0.12511186381E+03 0.  0.
         23    2    1    2    0    0  0.68767677570E+02 -0.46997730716E+02  0.25250209632E+03  0.28091798369E+03  0.90663249118E+02 0.  0.
          5    1    3    3  502    0 -0.98915052447E+02  0.39465111615E+02  0.96972607591E+02  0.14409317006E+03  0.41800000000E+01 0. -1.
         -5    1    3    3    0  502  0.30147374877E+02  0.75326191004E+01 -0.55330105985E+01  0.31838517063E+02  0.41800000000E+01 0. -1.
        -11    1    4    4    0    0  0.70932149413E+02  0.40729162313E+01  0.16372541415E+03  0.17847680439E+03  0.00000000000E+00 0.  1.
         11    1    4    4    0    0 -0.21644718433E+01 -0.51070646947E+02  0.88776682173E+02  0.10244117930E+03  0.00000000000E+00 0. -1.
</event>
<event>
 8    1  0.6692409E-009  0.1306503E+03  0.7561462E-02  0.1226494E+00
          1   -1    0    0  501    0  0.00000000000E+00  0.00000000000E+00  0.14643298743E+03  0.14643298743E+03  0.00000000000E+00 0. -1.
         -1   -1    0    0    0  501 -0.00000000000E+00 -0.00000000000E+00 -0.12927943485E+03  0.12927943485E+03  0.00000000000E+00 0.  1.
         25    2    1    2    0    0 -0.75493799730E+02  0.29710206812E+02 -0.33432573738E+01  0.14913144641E+03  0.12508797206E+03 0.  0.
         23    2    1    2    0    0  0.75493799730E+02 -0.29710206812E+02  0.20496809953E+02  0.12658097587E+03  0.94976913237E+02 0.  0.
          5    1    3    3  502    0 -0.66975882877E+02  0.70676755024E+02 -0.26670756058E+02  0.10104342738E+03  0.41800000000E+01 0. -1.
         -5    1    3    3    0  502 -0.85179168529E+01 -0.40966548212E+02  0.23327498684E+02  0.48088019035E+02  0.41800000000E+01 0. -1.
        -11    1    4    4    0    0 -0.17907242738E+02 -0.21570094470E+02  0.16946810427E+02  0.32758704211E+02  0.00000000000E+00 0.  1.
         11    1    4    4    0    0  0.93401042468E+02 -0.81401123421E+01  0.35499995254E+01  0.93822271661E+02  0.00000000000E+00 0. -1.
</event>
<event>
 8    1  0.6692409E-009  0.9327741E+02  0.7561462E-02  0.1295104E+00
         -2   -1    0    0    0  501 -0.00000000000E+00  0.00000000000E+00  0.18120122722E+03  0.18120122722E+03  0.00000000000E+00 0.  1.
          2   -1    0    0  501    0  0.00000000000E+00 -0.00000000000E+00 -0.92763056101E+02  0.92763056101E+02  0.00000000000E+00 0. -1.
         25    2    1    2    0    0 -0.72718839038E+02 -0.13726788492E+02  0.45036288229E+02  0.15215710185E+03  0.12508821732E+03 0.  0.
         23    2    1    2    0    0  0.72718839038E+02  0.13726788492E+02  0.43401882894E+02  0.12180718147E+03  0.86468559294E+02 0.  0.
          5    1    3    3  502    0 -0.16907573325E+02 -0.27855357089E+01 -0.43446028153E+02  0.46889817735E+02  0.41800000000E+01 0.  1.
         -5    1    3    3    0  502 -0.55811265713E+02 -0.10941252783E+02  0.88482316382E+02  0.10526728412E+03  0.41800000000E+01 0.  1.
        -11    1    4    4    0    0  0.28858473140E+02 -0.35636514857E+02  0.69480106241E+01  0.46379386744E+02  0.00000000000E+00 0. -1.
         11    1    4    4    0    0  0.43860365898E+02  0.49363303349E+02  0.36453872270E+02  0.75427794729E+02  0.00000000000E+00 0.  1.
</event>
<event>
 8    1  0.6692409E-009  0.1954306E+03  0.7561462E-02  0.1153652E+00
          2   -1    0    0  501    0  0.00000000000E+00  0.00000000000E+00  0.19713365946E+04  0.19713365946E+04  0.00000000000E+00 0. -1.
         -2   -1    0    0    0  501 -0.00000000000E+00 -0.00000000000E+00 -0.24243071240E+02  0.24243071240E+02  0.00000000000E+00 0.  1.
         25    2    1    2    0    0 -0.17315432118E+03 -0.73073253117E+02  0.11154646683E+04  0.11380834697E+04  0.12510171351E+03 0.  0.
         23    2    1    2    0    0  0.17315432118E+03  0.73073253117E+02  0.83162885508E+03  0.85749619607E+03  0.91493466461E+02 0.  0.
          5    1    3    3  502    0 -0.70494743415E+02 -0.60985678419E+02  0.81465798116E+03  0.81998406112E+03  0.41800000000E+01 0. -1.
         -5    1    3    3    0  502 -0.10265957776E+03 -0.12087574698E+02  0.30080668709E+03  0.31809940862E+03  0.41800000000E+01 0. -1.
        -11    1    4    4    0    0  0.12290336370E+02 -0.72800147429E+01  0.12879976211E+02  0.19233948371E+02  0.00000000000E+00 0.  1.
         11    1    4    4    0    0  0.16086398481E+03  0.80353267860E+02  0.81874887887E+03  0.83826224770E+03  0.00000000000E+00 0. -1.
</event>
<event>
 8    1  0.6692409E-009  0.1083387E+03  0.7561462E-02  0.1263678E+00
          2   -1    0    0  501    0  0.00000000000E+00  0.00000000000E+00  0.11370507954E+04  0.11370507954E+04  0.00000000000E+00 0. -1.
         -2   -1    0    0    0  501 -0.00000000000E+00 -0.00000000000E+00 -0.10676203928E+02  0.10676203928E+02  0.00000000000E+00 0.  1.
         25    2    1    2    0    0 -0.22120268276E+02  0.17948337793E+02  0.70877607501E+03  0.72029302732E+03  0.12508825524E+03 0.  0.
         23    2    1    2    0    0  0.22120268276E+02 -0.17948337793E+02  0.41759851646E+03  0.42743397201E+03  0.86601561056E+02 0.  0.
          5    1    3    3  502    0  0.44473822861E+02  0.36027808565E+02  0.26300392798E+03  0.26919224068E+03  0.41800000000E+01 0.  1.
         -5    1    3    3    0  502 -0.66594091137E+02 -0.18079470772E+02  0.44577214703E+03  0.45110078664E+03  0.41800000000E+01 0.  1.
        -11    1    4    4    0    0 -0.24522734896E+02  0.18700512419E+02  0.17440162166E+03  0.17710731020E+03  0.00000000000E+00 0. -1.
         11    1    4    4    0    0  0.46643003172E+02 -0.36648850211E+02  0.24319689481E+03  0.25032666181E+03  0.00000000000E+00 0.  1.
</event>
<event>
 8    1  0.6692409E-009  0.6808294E+02  0.7561462E-02  0.1366736E+00
         -1   -1    0    0    0  501 -0.00000000000E+00  0.00000000000E+00  0.13375388358E+03  0.13375388358E+03  0.00000000000E+00 0.  1.
          1   -1    0    0  501    0  0.00000000000E+00 -0.00000000000E+00 -0.10928642193E+03  0.10928642193E+03  0.00000000000E+00 0. -1.
         25    2    1    2    0    0  0.21401107233E+02 -0.38693515210E+02  0.53119222726E+02  0.14291458143E+03  0.12509088797E+03 0.  0.
         23    2    1    2    0    0 -0.21401107233E+02  0.38693515210E+02 -0.28651761071E+02  0.10012572408E+03  0.85141304316E+02 0.  0.
          5    1    3    3  502    0 -0.30622946067E+01  0.19032566550E+02 -0.31712324526E+02  0.37346487982E+02  0.41800000000E+01 0.  1.
         -5    1    3    3    0  502  0.24463401839E+02 -0.57726081761E+02  0.84831547252E+02  0.10556809345E+03  0.41800000000E+01 0.  1.
        -11    1    4    4    0    0 -0.21704836180E+02  0.83422492766E+01  0.27671647115E+02  0.36144336910E+02  0.00000000000E+00 0.  1.
         11    1    4    4    0    0  0.30372894714E+00  0.30351265934E+02 -0.56323408186E+02  0.63981387174E+02  0.00000000000E+00 0. -1.
</event>
<event>
 8    1  0.6692409E-009  0.1275211E+03  0.7561462E-02  0.1231181E+00
         -4   -1    0    0    0  501 -0.00000000000E+00  0.00000000000E+00  0.73065947868E+02  0.73065947868E+02  0.00000000000E+00 0.  1.
          4   -1    0    0  501    0  0.00000000000E+00 -0.00000000000E+00 -0.27224819884E+03  0.27224819884E+03  0.00000000000E+00 0. -1.
         25    2    1    2    0    0 -0.49281556614E+02  0.58288554303E+02 -0.16854825344E+03  0.22334527896E+03  0.12509345510E+03 0.  0.
         23    2    1    2    0    0  0.49281556614E+02 -0.58288554303E+02 -0.30633997525E+02  0.12196886775E+03  0.90065173682E+02 0.  0.
          5    1    3    3  502    0  0.34559932562E+02  0.48773956635E+02 -0.89084843595E+02  0.10736325974E+03  0.41800000000E+01 0.  1.
         -5    1    3    3    0  502 -0.83841489176E+02  0.95145976684E+01 -0.79463409849E+02  0.11598201921E+03  0.41800000000E+01 0.  1.
        -11    1    4    4    0    0  0.31367275613E+02  0.15299000820E+02 -0.30321395978E+02  0.46231509380E+02  0.00000000000E+00 0.  1.
         11    1    4    4    0    0  0.17914281001E+02 -0.73587555123E+02 -0.31260154693E+00  0.75737358368E+02  0.00000000000E+00 0. -1.
</event>
<event>
 8    1  0.6692409E-009  0.1320905E+03  0.7561462E-02  0.1224386E+00
         -3   -1    0    0    0  501 -0.00000000000E+00  0.00000000000E+00  0.46253414024E+02  0.46253414024E+02  0.00000000000E+00 0.  1.
          3   -1    0    0  501    0  0.00000000000E+00 -0.00000000000E+00 -0.46479598077E+03  0.46479598077E+03  0.00000000000E+00 0. -1.
         25    2    1    2    0    0  0.55111724930E+02 -0.94540674960E+02 -0.28377758235E+03  0.32886528156E+03  0.12508963076E+03 0.  0.
         23    2    1    2    0    0 -0.55111724930E+02  0.94540674960E+02 -0.13476498439E+03  0.18218411323E+03  0.55264895263E+02 0.  0.
          5    1    3    3  502    0 -0.32155709379E+02 -0.13998632319E+02 -0.22611148954E+02  0.41936711954E+02  0.41800000000E+01 0.  1.
         -5    1    3    3    0  502  0.87267434308E+02 -0.80542042641E+02 -0.26116643340E+03  0.28692856961E+03  0.41800000000E+01 0.  1.
        -11    1    4    4    0    0 -0.23937723673E+02  0.52467479028E+02 -0.29873022057E+02  0.64948043981E+02  0.00000000000E+00 0.  1.
         11    1    4    4    0    0 -0.31174001256E+02  0.42073195932E+02 -0.10489196233E+03  0.11723606925E+03  0.00000000000E+00 0. -1.
</event>
<event>
 8    1  0.6692409E-009  0.1063046E+03  0.7561462E-02  0.1267570E+00
          1   -1    0    0  501    0  0.00000000000E+00  0.00000000000E+00  0.53073906042E+02  0.53073906042E+02  0.00000000000E+00 0. -1.
         -1   -1    0    0    0  501 -0.00000000000E+00 -0.00000000000E+00 -0.25084540348E+03  0.25084540348E+03  0.00000000000E+00 0.  1.
         25    2    1    2    0    0  0.30471644465E+02 -0.14401514093E+02 -0.13651628108E+03  0.18820575727E+03  0.12509511319E+03 0.  0.
         23    2    1    2    0    0 -0.30471644465E+02  0.14401514093E+02 -0.61255216351E+02  0.11571355225E+03  0.92203578667E+02 0.  0.
          5    1    3    3  502    0  0.58175693603E+02  0.36927235214E+02 -0.90332391083E+02  0.11369012844E+03  0.41800000000E+01 0. -1.
         -5    1    3    3    0  502 -0.27704049139E+02 -0.51328749307E+02 -0.46183889999E+02  0.74515628827E+02  0.41800000000E+01 0. -1.
        -11    1    4    4    0    0 -0.11988817453E+02 -0.32524768573E+02  0.21084901576E+01  0.34728058474E+02  0.00000000000E+00 0. -1.
         11    1    4    4    0    0 -0.18482827012E+02  0.46926282666E+02 -0.63363706509E+02  0.80985493774E+02  0.00000000000E+00 0.  1.
</event>
<event>
 8    1  0.6692409E-009  0.2938691E+03  0.7561462E-02  0.1088346E+00
         -2   -1    0    0    0  501 -0.00000000000E+00  0.00000000000E+00  0.12525757608E+03  0.12525757608E+03  0.00000000000E+00 0.  1.
          2   -1    0    0  501    0  0.00000000000E+00 -0.00000000000E+00 -0.10025733702E+04  0.10025733702E+04  0.00000000000E+00 0. -1.
         25    2    1    2    0    0 -0.90742104467E+02  0.27661066367E+03 -0.71348457782E+03  0.78067591274E+03  0.12508816560E+03 0.  0.
         23    2    1    2    0    0  0.90742104467E+02 -0.27661066367E+03 -0.16383121626E+03  0.34715503349E+03  0.94490005189E+02 0.  0.
          5    1    3    3  502    0 -0.61818447765E+02  0.12187439852E+03 -0.47969647730E+03  0.49879963135E+03  0.41800000000E+01 0. -1.
         -5    1    3    3    0  502 -0.28923656702E+02  0.15473626514E+03 -0.23378810051E+03  0.28187628139E+03  0.41800000000E+01 0. -1.
        -11    1    4    4    0    0  0.19192127999E+02 -0.11791552574E+03 -0.19549756896E+02  0.12105619349E+03  0.00000000000E+00 0.  1.
         11    1    4    4    0    0  0.71549976468E+02 -0.15869513793E+03 -0.14428145936E+03  0.22609884000E+03  0.00000000000E+00 0. -1.
</event>
<event>
 8    1  0.6692409E-009  0.1987021E+03  0.7561462E-02  0.1150839E+00
          1   -1    0    0  501    0  0.00000000000E+00  0.00000000000E+00  0.29512439276E+03  0.29512439276E+03  0.00000000000E+00 0. -1.
         -1   -1    0    0    0  501 -0.00000000000E+00 -0.00000000000E+00 -0.14127440637E+03  0.14127440637E+03  0.00000000000E+00 0.  1.
         25    2    1    2    0    0 -0.16805064606E+03 -0.32113704724E+02  0.52182718591E+02  0.21827423295E+03  0.12509314521E+03 0.  0.
         23    2    1    2    0    0  0.16805064606E+03  0.32113704724E+02  0.10166726780E+03  0.21812456619E+03  0.89273643139E+02 0.  0.
          5    1    3    3  502    0  0.14609076498E+02 -0.17144112394E+02 -0.95777688632E+01  0.24830460372E+02  0.41800000000E+01 0. -1.
         -5    1    3    3    0  502 -0.18265972255E+03 -0.14969592331E+02  0.61760487454E+02  0.19344377258E+03  0.41800000000E+01 0. -1.
        -11    1    4    4    0    0  0.56435530290E+02  0.53232527665E+02  0.56061868243E+02  0.95716269002E+02  0.00000000000E+00 0.  1.
         11    1    4    4    0    0  0.11161511577E+03 -0.21118822941E+02  0.45605399561E+02  0.12240829718E+03  0.00000000000E+00 0. -1.
</event>
<event>
 8    1  0.6692409E-009  0.9994223E+02  0.7561462E-02  0.1280417E+00
          1   -1    0    0  501    0  0.00000000000E+00  0.00000000000E+00  0.49828069643E+03  0.49828069643E+03  0.00000000000E+00 0. -1.
         -1   -1    0    0    0  501 -0.00000000000E+00 -0.00000000000E+00 -0.74018530487E+02  0.74018530487E+02  0.00000000000E+00 0.  1.
         25    2    1    2    0    0  0.17569857208E+02 -0.51651824623E+02  0.44986130152E+03  0.47010517619E+03  0.12508826968E+03 0.  0.
         23    2    1    2    0    0 -0.17569857208E+02  0.51651824623E+02 -0.25599135580E+02  0.10219405072E+03  0.82533007885E+02 0.  0.
          5    1    3    3  502    0  0.50120812698E+02 -0.59723470111E+02  0.41208779239E+03  0.41941961063E+03  0.41800000000E+01 0.  1.
         -5    1    3    3    0  502 -0.32550955490E+02  0.80716454879E+01  0.37773509128E+02  0.50685565559E+02  0.41800000000E+01 0.  1.
        -11    1    4    4    0    0  0.51163788100E+01  0.62606829455E+02  0.44601313698E+01  0.62973686555E+02  0.00000000000E+00 0. -1.
         11    1    4    4    0    0 -0.22686236018E+02 -0.10955004832E+02 -0.30059266950E+02  0.39220364163E+02  0.00000000000E+00 0.  1.
</event>
<event>
 8    1  0.6692409E-009  0.1368239E+03  0.7561462E-02  0.1217668E+00
          3   -1    0    0  501    0  0.00000000000E+00  0.00000000000E+00  0.35035476812E+03  0.35035476812E+03  0.00000000000E+00 0. -1.
         -3   -1    0    0    0  501 -0.00000000000E+00 -0.00000000000E+00 -0.69183070133E+02  0.69183070133E+02  0.00000000000E+00 0.  1.
         25    2    1    2    0    0 -0.10704786523E+03 -0.51998026526E+01  0.11002025669E+03  0.19808714393E+03  0.12509107207E+03 0.  0.
         23    2    1    2    0    0  0.10704786523E+03  0.51998026526E+01  0.17115144130E+03  0.22145069432E+03  0.90891752978E+02 0.  0.
          5    1    3    3  502    0 -0.12584021466E+03 -0.25979890715E+02  0.11084293983E+03  0.16974788380E+03  0.41800000000E+01 0.  1.
         -5    1    3    3    0  502  0.18792349429E+02  0.20780088063E+02 -0.82268313980E+00  0.28339260126E+02  0.41800000000E+01 0.  1.
        -11    1    4    4    0    0  0.85947050599E+02  0.23199761032E+02  0.17203237693E+03  0.19370147942E+03  0.00000000000E+00 0. -1.
         11    1    4    4    0    0  0.21100814628E+02 -0.17999958379E+02 -0.88093563609E+00  0.27749214894E+02  0.00000000000E+00 0.  1.
</event>
<event>
 8    1  0.6692409E-009  0.1155579E+03  0.7561462E-02  0.1250610E+00
         -2   -1    0    0    0  501 -0.00000000000E+00  0.00000000000E+00  0.23015755193E+02  0.23015755193E+02  0.00000000000E+00 0.  1.
          2   -1    0    0  501    0  0.00000000000E+00 -0.00000000000E+00 -0.71945878255E+03  0.71945878255E+03  0.00000000000E+00 0. -1.
         25    2    1    2    0    0  0.26513847307E+02  0.31313836943E+02 -0.53888331192E+03  0.55473025291E+03  0.12508752594E+03 0.  0.
         23    2    1    2    0    0 -0.26513847307E+02 -0.31313836943E+02 -0.15755971543E+03  0.18774428483E+03  0.93484287852E+02 0.  0.
          5    1    3    3  502    0  0.65627855406E+02  0.54844853437E+02 -0.36451085749E+03  0.37443372041E+03  0.41800000000E+01 0.  1.
         -5    1    3    3    0  502 -0.39114008099E+02 -0.23531016494E+02 -0.17437245443E+03  0.18029653250E+03  0.41800000000E+01 0.  1.
        -11    1    4    4    0    0  0.11209296990E+02 -0.54319222996E+02 -0.66983149006E+02  0.86965329739E+02  0.00000000000E+00 0.  1.
         11    1    4    4    0    0 -0.37723144297E+02  0.23005386053E+02 -0.90576566428E+02  0.10077895509E+03  0.00000000000E+00 0. -1.
</event>
<event>
 8    1  0.6692409E-009  0.9728473E+02  0.7561462E-02  0.1286112E+00
          2   -1    0    0  501    0  0.00000000000E+00  0.00000000000E+00  0.14546305346E+03  0.14546305346E+03  0.00000000000E+00 0. -1.
         -2   -1    0    0    0  501 -0.00000000000E+00 -0.00000000000E+00 -0.14503899317E+03  0.14503899317E+03  0.00000000000E+00 0.  1.
         25    2    1    2    0    0 -0.44724162360E+02  0.60902244980E+02  0.61254660219E+02  0.15845671993E+03  0.12508822706E+03 0.  0.
         23    2    1    2    0    0  0.44724162360E+02 -0.60902244980E+02 -0.60830599928E+02  0.13204532670E+03  0.89589465187E+02 0.  0.
          5    1    3    3  502    0 -0.40052919400E+02  0.18317202223E+02  0.94319131059E+02  0.10417930281E+03  0.41800000000E+01 0.  1.
         -5    1    3    3    0  502 -0.46712429599E+01  0.42585042757E+02 -0.33064470840E+02  0.54277417121E+02  0.41800000000E+01 0.  1.
        -11    1    4    4    0    0  0.48053310378E+02 -0.17979008149E+01 -0.54231834557E+02  0.72480652349E+02  0.00000000000E+00 0.  1.
         11    1    4    4    0    0 -0.33291480172E+01 -0.59104344165E+02 -0.65987653713E+01  0.59564674348E+02  0.00000000000E+00 0. -1.
</event>
<event>
 8    1  0.6692409E-009  0.9915685E+02  0.7561462E-02  0.1282079E+00
         -1   -1    0    0    0  501 -0.00000000000E+00  0.00000000000E+00  0.30103180897E+02  0.30103180897E+02  0.00000000000E+00 0. -1.
          1   -1    0    0  501    0  0.00000000000E+00 -0.00000000000E+00 -0.61457174884E+03  0.61457174884E+03  0.00000000000E+00 0.  1.
         25    2    1    2    0    0  0.57981894289E+02 -0.34744096741E+02 -0.43150279401E+03  0.45432107634E+03  0.12507568448E+03 0.  0.
         23    2    1    2    0    0 -0.57981894289E+02  0.34744096741E+02 -0.15296577394E+03  0.19035385340E+03  0.90923094883E+02 0.  0.
          5    1    3    3  502    0  0.29359342011E+02 -0.49436043206E+02 -0.67043329095E+02  0.88420437158E+02  0.41800000000E+01 0.  1.
         -5    1    3    3    0  502  0.28622552279E+02  0.14691946465E+02 -0.36445946491E+03  0.36590063918E+03  0.41800000000E+01 0.  1.
        -11    1    4    4    0    0 -0.20316105681E+02 -0.28267374430E+02 -0.25111366142E+02  0.42922829785E+02  0.00000000000E+00 0. -1.
         11    1    4    4    0    0 -0.37665788608E+02  0.63011471171E+02 -0.12785440779E+03  0.14743102361E+03  0.00000000000E+00 0.  1.
</event>
<event>
 8    1  0.6692409E-009  0.1275277E+03  0.7561462E-02  0.1231171E+00
          1   -1    0    0  501    0  0.00000000000E+00  0.00000000000E+00  0.72177032377E+02  0.72177032377E+02  0.00000000000E+00 0. -1.
         -1   -1    0    0    0  501 -0.00000000000E+00 -0.00000000000E+00 -0.29708669037E+03  0.29708669037E+03  0.00000000000E+00 0.  1.
         25    2    1    2    0    0  0.78491003299E+02 -0.40844283051E+02 -0.17345910411E+03  0.23143840681E+03  0.12508629938E+03 0.  0.
         23    2    1    2    0    0 -0.78491003299E+02  0.40844283051E+02 -0.51450553884E+02  0.13782531593E+03  0.92301490563E+02 0.  0.
          5    1    3    3  502    0 -0.25642166422E+02 -0.21172167019E+02 -0.72750047591E+01  0.34295472724E+02  0.41800000000E+01 0. -1.
         -5    1    3    3    0  502  0.10413316972E+03 -0.19672116031E+02 -0.16618409935E+03  0.19714293409E+03  0.41800000000E+01 0. -1.
        -11    1    4    4    0    0 -0.88694067254E+02  0.18053837422E+02 -0.63034298830E+02  0.11029914524E+03  0.00000000000E+00 0.  1.
         11    1    4    4    0    0  0.10203063955E+02  0.22790445628E+02  0.11583744946E+02  0.27526170692E+02  0.00000000000E+00 0. -1.
</event>
<event>
 8    1  0.6692409E-009  0.1248553E+03  0.7561462E-02  0.1235296E+00
          2   -1    0    0  501    0  0.00000000000E+00  0.00000000000E+00  0.13086850819E+04  0.13086850819E+04  0.00000000000E+00 0. -1.
         -2   -1    0    0    0  501 -0.00000000000E+00 -0.00000000000E+00 -0.26080084329E+02  0.26080084329E+02  0.00000000000E+00 0.  1.
         25    2    1    2    0    0 -0.50255567845E+02 -0.87519425432E+02  0.10707860389E+04  0.10827814027E+04  0.12509018014E+03 0.  0.
         23    2    1    2    0    0  0.50255567845E+02  0.87519425432E+02  0.21181895868E+03  0.25198376346E+03  0.91887288915E+02 0.  0.
          5    1    3    3  502    0  0.11187911828E+02 -0.42835537691E+02  0.80743949799E+03  0.80866313628E+03  0.41800000000E+01 0. -1.
         -5    1    3    3    0  502 -0.61443479673E+02 -0.44683887741E+02  0.26334654086E+03  0.27411826645E+03  0.41800000000E+01 0. -1.
        -11    1    4    4    0    0  0.60591866066E+01  0.84646843043E+02  0.17460286083E+03  0.19413387337E+03  0.00000000000E+00 0. -1.
         11    1    4    4    0    0  0.44196381238E+02  0.28725823882E+01  0.37216097843E+02  0.57849890084E+02  0.00000000000E+00 0.  1.
</event>
<event>
 8    1  0.6692409E-009  0.1131087E+03  0.7561462E-02  0.1254919E+00
          1   -1    0    0  501    0  0.00000000000E+00  0.00000000000E+00  0.86720471412E+03  0.86720471412E+03  0.00000000000E+00 0. -1.
         -1   -1    0    0    0  501 -0.00000000000E+00 -0.00000000000E+00 -0.15982233049E+02  0.15982233049E+02  0.00000000000E+00 0.  1.
         25    2    1    2    0    0 -0.31785597073E+02 -0.31954241959E+02  0.43942923386E+03  0.45910441302E+03  0.12508961879E+03 0.  0.
         23    2    1    2    0    0  0.31785597073E+02  0.31954241959E+02  0.41179324721E+03  0.42408253414E+03  0.90779510664E+02 0.  0.
          5    1    3    3  502    0 -0.37330360436E+02  0.39478270256E+02  0.26393920995E+03  0.26950597133E+03  0.41800000000E+01 0.  1.
         -5    1    3    3    0  502  0.55447633630E+01 -0.71432512215E+02  0.17549002390E+03  0.18959844169E+03  0.41800000000E+01 0.  1.
        -11    1    4    4    0    0  0.60960146803E+02  0.35534946477E+02  0.32044453422E+03  0.32812127549E+03  0.00000000000E+00 0. -1.
         11    1    4    4    0    0 -0.29174549729E+02 -0.35807045181E+01  0.91348712990E+02  0.95961258650E+02  0.00000000000E+00 0.  1.
</event>
<event>
 8    1  0.6692409E-009  0.1298785E+03  0.7561462E-02  0.1227636E+00
         -2   -1    0    0    0  501 -0.00000000000E+00  0.00000000000E+00  0.10783140622E+02  0.10783140622E+02  0.00000000000E+00 0.  1.
          2   -1    0    0  501    0  0.00000000000E+00 -0.00000000000E+00 -0.17991801514E+04  0.17991801514E+04  0.00000000000E+00 0. -1.
         25    2    1    2    0    0 -0.99344867336E+01 -0.81732704386E+02 -0.11332094089E+04  0.11430615629E+04  0.12508894129E+03 0.  0.
         23    2    1    2    0    0  0.99344867336E+01  0.81732704386E+02 -0.65518760192E+03  0.66690172914E+03  0.93317702618E+02 0.  0.
          5    1    3    3  502    0  0.45806170548E+02 -0.15173711455E+02 -0.19866458367E+03  0.20448358366E+03  0.41800000000E+01 0. -1.
         -5    1    3    3    0  502 -0.55740657281E+02 -0.66558992931E+02 -0.93454482521E+03  0.93857797925E+03  0.41800000000E+01 0. -1.
        -11    1    4    4    0    0 -0.41698038055E+02  0.42667128498E+02 -0.32288476495E+03  0.32835009010E+03  0.00000000000E+00 0.  1.
         11    1    4    4    0    0  0.51632524789E+02  0.39065575889E+02 -0.33230283698E+03  0.33855163904E+03  0.00000000000E+00 0. -1.
</event>
<event>
 8    1  0.6692409E-009  0.9710739E+02  0.7561462E-02  0.1286499E+00
          1   -1    0    0  501    0  0.00000000000E+00  0.00000000000E+00  0.33534647117E+03  0.33534647117E+03  0.00000000000E+00 0. -1.
         -1   -1    0    0    0  501 -0.00000000000E+00 -0.00000000000E+00 -0.49880319028E+02  0.49880319028E+02  0.00000000000E+00 0.  1.
         25    2    1    2    0    0  0.54189372762E+01  0.47151342363E+02  0.23732046338E+03  0.27243566855E+03  0.12509027618E+03 0.  0.
         23    2    1    2    0    0 -0.54189372762E+01 -0.47151342363E+02  0.48145688762E+02  0.11279112164E+03  0.90284083909E+02 0.  0.
          5    1    3    3  502    0 -0.36527742911E+02 -0.27808954459E+02  0.63102480620E+02  0.78147357030E+02  0.41800000000E+01 0.  1.
         -5    1    3    3    0  502  0.41946680187E+02  0.74960296822E+02  0.17421798276E+03  0.19428831152E+03  0.41800000000E+01 0.  1.
        -11    1    4    4    0    0 -0.18076663512E+02 -0.45978011849E+02  0.71083936094E+02  0.86565982394E+02  0.00000000000E+00 0. -1.
         11    1    4    4    0    0  0.12657726235E+02 -0.11733305138E+01 -0.22938247332E+02  0.26225139249E+02  0.00000000000E+00 0.  1.
</event>
<event>
 8    1  0.6692409E-009  0.5225773E+02  0.7561462E-02  0.1433531E+00
         -1   -1    0    0    0  501 -0.00000000000E+00  0.00000000000E+00  0.95137181210E+02  0.95137181210E+02  0.00000000000E+00 0.  1.
          1   -1    0    0  501    0  0.00000000000E+00 -0.00000000000E+00 -0.25126248442E+03  0.25126248442E+03  0.00000000000E+00 0. -1.
         25    2    1    2    0    0 -0.28673657417E+02 -0.26391618571E+02 -0.19800056250E+03  0.23742468093E+03  0.12509020827E+03 0.  0.
         23    2    1    2    0    0  0.28673657417E+02  0.26391618571E+02  0.41875259292E+02  0.10897498470E+03  0.92754049984E+02 0.  0.
          5    1    3    3  502    0 -0.38531661643E+01 -0.11240680009E+02  0.16591224336E+02  0.20831248199E+02  0.41800000000E+01 0. -1.
         -5    1    3    3    0  502 -0.24820491253E+02 -0.15150938562E+02 -0.21459178684E+03  0.21659343273E+03  0.41800000000E+01 0. -1.
        -11    1    4    4    0    0  0.18808400478E+02 -0.12390922628E+02  0.60705004852E+02  0.64748656404E+02  0.00000000000E+00 0.  1.
         11    1    4    4    0    0  0.98652569392E+01  0.38782541199E+02 -0.18829745560E+02  0.44226328292E+02  0.00000000000E+00 0. -1.
</event>
<event>
 8    1  0.6692409E-009  0.6424570E+02  0.7561462E-02  0.1380832E+00
         -2   -1    0    0    0  501 -0.00000000000E+00  0.00000000000E+00  0.46952674776E+02  0.46952674776E+02  0.00000000000E+00 0.  1.
          2   -1    0    0  501    0  0.00000000000E+00 -0.00000000000E+00 -0.27406132613E+03  0.27406132613E+03  0.00000000000E+00 0. -1.
         25    2    1    2    0    0  0.38455218178E+02 -0.24033256723E+01 -0.16742661426E+03  0.21251889554E+03  0.12509208617E+03 0.  0.
         23    2    1    2    0    0 -0.38455218178E+02  0.24033256723E+01 -0.59682037095E+02  0.10849510536E+03  0.82004039879E+02 0.  0.
          5    1    3    3  502    0  0.98119084701E+01  0.15268587149E+01 -0.18028160082E+03  0.18060324703E+03  0.41800000000E+01 0. -1.
         -5    1    3    3    0  502  0.28643309708E+02 -0.39301843872E+01  0.12854986560E+02  0.31915648509E+02  0.41800000000E+01 0. -1.
        -11    1    4    4    0    0 -0.29293628259E+02 -0.37487683751E+02 -0.43558790919E+02  0.64504351449E+02  0.00000000000E+00 0. -1.
         11    1    4    4    0    0 -0.91615899189E+01  0.39891009423E+02 -0.16123246176E+02  0.43990753914E+02  0.00000000000E+00 0.  1.
</event>
<event>
 8    1  0.6692409E-009  0.1989004E+03  0.7561462E-02  0.1150670E+00
         -1   -1    0    0    0  501 -0.00000000000E+00  0.00000000000E+00  0.48562132540E+03  0.48562132540E+03  0.00000000000E+00 0.  1.
          1   -1    0    0  501    0  0.00000000000E+00 -0.00000000000E+00 -0.10823775705E+03  0.10823775705E+03  0.00000000000E+00 0. -1.
         25    2    1    2    0    0  0.10849327976E+02  0.16655584483E+03  0.48965207963E+02  0.21425182379E+03  0.12509074722E+03 0.  0.
         23    2    1    2    0    0 -0.10849327976E+02 -0.16655584483E+03  0.32841836039E+03  0.37960725866E+03  0.91566882802E+02 0.  0.
          5    1    3    3  502    0  0.52283666681E+02  0.15605942514E+03  0.30202791679E+02  0.16738520544E+03  0.41800000000E+01 0.  1.
         -5    1    3    3    0  502 -0.41434338704E+02  0.10496419695E+02  0.18762416284E+02  0.46866618345E+02  0.41800000000E+01 0.  1.
        -11    1    4    4    0    0 -0.25750512933E+02 -0.29341492911E+01  0.50293103121E+02  0.56578214623E+02  0.00000000000E+00 0.  1.
         11    1    4    4    0    0  0.14901184957E+02 -0.16362169554E+03  0.27812525727E+03  0.32302904404E+03  0.00000000000E+00 0. -1.
</event>
<event>
 8    1  0.6692409E-009  0.9775862E+02  0.7561462E-02  0.1285081E+00
          2   -1    0    0  501    0  0.00000000000E+00  0.00000000000E+00  0.27144413468E+03  0.27144413468E+03  0.00000000000E+00 0. -1.
         -2   -1    0    0    0  501 -0.00000000000E+00 -0.00000000000E+00 -0.61076445179E+02  0.61076445179E+02  0.00000000000E+00 0.  1.
         25    2    1    2    0    0 -0.64572574865E+02  0.23465948835E+02  0.11065123300E+03  0.18058505520E+03  0.12508796352E+03 0.  0.
         23    2    1    2    0    0  0.64572574865E+02 -0.23465948835E+02  0.99716456501E+02  0.15193552466E+03  0.91764719680E+02 0.  0.
          5    1    3    3  502    0  0.35894989833E+01 -0.13322535068E+02  0.10145353282E+03  0.10247275816E+03  0.41800000000E+01 0. -1.
         -5    1    3    3    0  502 -0.68162073849E+02  0.36788483903E+02  0.91977001781E+01  0.78112297033E+02  0.41800000000E+01 0. -1.
        -11    1    4    4    0    0  0.81029056842E+02 -0.29162178726E+02  0.50735972660E+02  0.99951386396E+02  0.00000000000E+00 0.  1.
         11    1    4    4    0    0 -0.16456481977E+02  0.56962298905E+01  0.48980483841E+02  0.51984138267E+02  0.00000000000E+00 0. -1.
</event>
<event>
 8    1  0.6692409E-009  0.1029842E+03  0.7561462E-02  0.1274143E+00
          2   -1    0    0  501    0  0.00000000000E+00  0.00000000000E+00  0.29869247554E+03  0.29869247554E+03  0.00000000000E+00 0. -1.
         -2   -1    0    0    0  501 -0.00000000000E+00 -0.00000000000E+00 -0.44027922547E+02  0.44027922547E+02  0.00000000000E+00 0.  1.
         25    2    1    2    0    0 -0.30360990458E+02  0.19577070066E+01  0.17839909848E+03  0.21999465809E+03  0.12508312793E+03 0.  0.
         23    2    1    2    0    0  0.30360990458E+02 -0.19577070066E+01  0.76265454519E+02  0.12272574000E+03  0.91211651376E+02 0.  0.
          5    1    3    3  502    0 -0.61296124860E+02  0.44335564978E+02  0.11294131259E+03  0.13600025637E+03  0.41800000000E+01 0. -1.
         -5    1    3    3    0  502  0.30935134401E+02 -0.42377857971E+02  0.65457785892E+02  0.83994401721E+02  0.41800000000E+01 0. -1.
        -11    1    4    4    0    0  0.45692939000E+02  0.20739320270E+02  0.10197341192E+02  0.51204978733E+02  0.00000000000E+00 0.  1.
         11    1    4    4    0    0 -0.15331948541E+02 -0.22697027276E+02  0.66068113327E+02  0.71520761264E+02  0.00000000000E+00 0. -1.
</event>
<event>
 8    1  0.6692409E-009  0.1578118E+03  0.7561462E-02  0.1191190E+00
         -1   -1    0    0    0  501 -0.00000000000E+00  0.00000000000E+00  0.37474502780E+02  0.37474502780E+02  0.00000000000E+00 0.  1.
          1   -1    0    0  501    0  0.00000000000E+00 -0.00000000000E+00 -0.81785307272E+03  0.81785307272E+03  0.00000000000E+00 0. -1.
         25    2    1    2    0    0  0.60061575398E+02 -0.11995561490E+03 -0.48384209267E+03  0.51744349832E+03  0.12509141031E+03 0.  0.
         23    2    1    2    0    0 -0.60061575398E+02  0.11995561490E+03 -0.29653647727E+03  0.33788407718E+03  0.90747037826E+02 0.  0.
          5    1    3    3  502    0  0.92716102156E+02 -0.10341130957E+03 -0.30965289433E+03  0.33940029746E+03  0.41800000000E+01 0. -1.
         -5    1    3    3    0  502 -0.32654526758E+02 -0.16544305323E+02 -0.17418919834E+03  0.17804320087E+03  0.41800000000E+01 0. -1.
        -11    1    4    4    0    0 -0.54348806756E+02  0.65673834809E+02 -0.88791289494E+02  0.12308833602E+03  0.00000000000E+00 0.  1.
         11    1    4    4    0    0 -0.57127686413E+01  0.54281780088E+02 -0.20774518778E+03  0.21479574116E+03  0.00000000000E+00 0. -1.
</event>
<event>
 8    1  0.6692409E-009  0.1189701E+03  0.7561462E-02  0.1244806E+00
          3   -1    0    0  501    0  0.00000000000E+00  0.00000000000E+00  0.84074801182E+02  0.84074801182E+02  0.00000000000E+00 0. -1.
         -3   -1    0    0    0  501 -0.00000000000E+00 -0.00000000000E+00 -0.20596176122E+03  0.20596176122E+03  0.00000000000E+00 0.  1.
         25    2    1    2    0    0  0.31311543929E+02 -0.67087977170E+02 -0.80961427050E+02  0.16638506360E+03  0.12509207511E+03 0.  0.
         23    2    1    2    0    0 -0.31311543929E+02  0.67087977170E+02 -0.40925532987E+02  0.12365149880E+03  0.90186387229E+02 0.  0.
          5    1    3    3  502    0  0.17687427208E+02 -0.93551539092E+02 -0.18516228672E+02  0.97082741371E+02  0.41800000000E+01 0.  1.
         -5    1    3    3    0  502  0.13624116722E+02  0.26463561922E+02 -0.62445198378E+02  0.69302322230E+02  0.41800000000E+01 0.  1.
        -11    1    4    4    0    0 -0.48565223713E+02  0.57975035090E+01 -0.18506923429E+01  0.48945041255E+02  0.00000000000E+00 0. -1.
         11    1    4    4    0    0  0.17253679784E+02  0.61290473661E+02 -0.39074840644E+02  0.74706457546E+02  0.00000000000E+00 0.  1.
</event>
<event>
 8    1  0.6692409E-009  0.9867393E+02  0.7561462E-02  0.1283109E+00
          3   -1    0    0  501    0  0.00000000000E+00  0.00000000000E+00  0.23862834446E+03  0.23862834446E+03  0.00000000000E+00 0. -1.
         -3   -1    0    0    0  501 -0.00000000000E+00 -0.00000000000E+00 -0.65592022720E+02  0.65592022720E+02  0.00000000000E+00 0.  1.
         25    2    1    2    0    0  0.49577154346E+02 -0.44376736094E+01  0.14190354100E+03  0.19560600455E+03  0.12508999516E+03 0.  0.
         23    2    1    2    0    0 -0.49577154346E+02  0.44376736094E+01  0.31132780738E+02  0.10861436263E+03  0.91379661589E+02 0.  0.
          5    1    3    3  502    0  0.29707977609E+01  0.34291760777E+02 -0.64779542125E+01  0.35273032012E+02  0.41800000000E+01 0.  1.
         -5    1    3    3    0  502  0.46606356585E+02 -0.38729434386E+02  0.14838149521E+03  0.16033297254E+03  0.41800000000E+01 0.  1.
        -11    1    4    4    0    0 -0.51338094550E+02  0.40770136454E+02  0.30321589508E+02  0.72230206762E+02  0.00000000000E+00 0. -1.
         11    1    4    4    0    0  0.17609402043E+01 -0.36332462845E+02  0.81119123023E+00  0.36384155865E+02  0.00000000000E+00 0.  1.
</event>
<event>
 8    1  0.6692409E-009  0.1299998E+03  0.7561462E-02  0.1227456E+00
          1   -1    0    0  501    0  0.00000000000E+00  0.00000000000E+00  0.52871426980E+03  0.52871426980E+03  0.00000000000E+00 0. -1.
         -1   -1    0    0    0  501 -0.00000000000E+00 -0.00000000000E+00 -0.35417047515E+02  0.35417047515E+02  0.00000000000E+00 0.  1.
         25    2    1    2    0    0 -0.69720978538E+02  0.41441914085E+02  0.23935957633E+03  0.28199134367E+03  0.12509062329E+03 0.  0.
         23    2    1    2    0    0  0.69720978538E+02 -0.41441914085E+02  0.25393764596E+03  0.28213997364E+03  0.92413146263E+02 0.  0.
          5    1    3    3  502    0  0.29201361915E+02 -0.11927530908E+02  0.27202164873E+02  0.41861864567E+02  0.41800000000E+01 0.  1.
         -5    1    3    3    0  502 -0.98922340453E+02  0.53369444992E+02  0.21215741146E+03  0.24012947910E+03  0.41800000000E+01 0.  1.
        -11    1    4    4    0    0  0.86447666836E+02 -0.46587357605E+02  0.24140621661E+03  0.26061569870E+03  0.00000000000E+00 0. -1.
         11    1    4    4    0    0 -0.16726688299E+02  0.51454435205E+01  0.12531429348E+02  0.21524274946E+02  0.00000000000E+00 0.  1.
</event>
<event>
 8    1  0.6692409E-009  0.1108721E+03  0.7561462E-02  0.1258963E+00
          1   -1    0    0  501    0  0.00000000000E+00  0.00000000000E+00  0.35478195188E+02  0.35478195188E+02  0.00000000000E+00 0. -1.
         -1   -1    0    0    0  501 -0.00000000000E+00 -0.00000000000E+00 -0.55819823520E+03  0.55819823520E+03  0.00000000000E+00 0.  1.
         25    2    1    2    0    0  0.59399952615E+02  0.90837190352E+01 -0.37492591509E+03  0.39978564213E+03  0.12509296354E+03 0.  0.
         23    2    1    2    0    0 -0.59399952615E+02 -0.90837190352E+01 -0.14779412492E+03  0.19389078826E+03  0.11018015288E+03 0.  0.
          5    1    3    3  502    0 -0.30447154594E+02 -0.27625489073E+02 -0.12437407258E+03  0.13105944910E+03  0.41800000000E+01 0. -1.
         -5    1    3    3    0  502  0.89847107208E+02  0.36709208108E+02 -0.25055184251E+03  0.26872619303E+03  0.41800000000E+01 0. -1.
        -11    1    4    4    0    0 -0.22280814957E+02 -0.32486129129E+02  0.33996550721E+00  0.39394147757E+02  0.00000000000E+00 0. -1.
         11    1    4    4    0    0 -0.37119137657E+02  0.23402410094E+02 -0.14813409043E+03  0.15449664050E+03  0.00000000000E+00 0.  1.
</event>
<event>
 8    1  0.6692409E-009  0.1925576E+03  0.7561462E-02  0.1156175E+00
          2   -1    0    0  501    0  0.00000000000E+00  0.00000000000E+00  0.14281590733E+04  0.14281590733E+04  0.00000000000E+00 0. -1.
         -2   -1    0    0    0  501 -0.00000000000E+00 -0.00000000000E+00 -0.26990823402E+02  0.26990823402E+02  0.00000000000E+00 0.  1.
         25    2    1    2    0    0  0.13845975662E+03 -0.83371951803E+02  0.86320980532E+03  0.88707407998E+03  0.12508904351E+03 0.  0.
         23    2    1    2    0    0 -0.13845975662E+03  0.83371951803E+02  0.53795844453E+03  0.56807581668E+03  0.84787138793E+02 0.  0.
          5    1    3    3  502    0  0.12912810787E+02  0.31210647270E+02  0.16325388723E+03  0.16676375290E+03  0.41800000000E+01 0. -1.
         -5    1    3    3    0  502  0.12554694584E+03 -0.11458259907E+03  0.69995591809E+03  0.72031032708E+03  0.41800000000E+01 0. -1.
        -11    1    4    4    0    0 -0.23712750578E+02  0.59224706146E+02  0.15656828141E+03  0.16906651680E+03  0.00000000000E+00 0. -1.
         11    1    4    4    0    0 -0.11474700605E+03  0.24147245657E+02  0.38139016312E+03  0.39900929988E+03  0.00000000000E+00 0.  1.
</event>
<event>
 7    1  0.6692409E-009  0.9005766E+02  0.7561462E-02  0.1302712E+00
          1   -1    0    0  501    0  0.00000000000E+00  0.00000000000E+00  0.87402894758E+02  0.87402894758E+02  0.00000000000E+00 0. -1.
         -1   -1    0    0    0  501 -0.00000000000E+00 -0.00000000000E+00 -0.20261147604E+03  0.20261147604E+03  0.00000000000E+00 0.  1.
         23    2    1    2    0    0  0.28168657226E+02 -0.40044577699E+02  0.11057080399E+02  0.10559045673E+03  0.92898030511E+02 0.  0.
          5    1    1    2  502    0 -0.60329049314E+02 -0.14349357416E+02 -0.29550906255E+02  0.68820249272E+02  0.41800000000E+01 0.  1.
         -5    1    1    2    0  502  0.32160392088E+02  0.54393935115E+02 -0.96714755427E+02  0.11560366479E+03  0.41800000000E+01 0.  1.
        -11    1    3    3    0    0  0.29336014700E+02 -0.22295440885E+02  0.50388727532E+02  0.62423651808E+02  0.00000000000E+00 0. -1.
         11    1    3    3    0    0 -0.11673574737E+01 -0.17749136814E+02 -0.39331647133E+02  0.43166804924E+02  0.00000000000E+00 0.  1.
</event>
<event>
 8    1  0.6692409E-009  0.1058396E+03  0.7561462E-02  0.1268474E+00
         -1   -1    0    0    0  501 -0.00000000000E+00  0.00000000000E+00  0.60003624320E+02  0.60003624320E+02  0.00000000000E+00 0.  1.
          1   -1    0    0  501    0  0.00000000000E+00 -0.00000000000E+00 -0.27954295533E+03  0.27954295533E+03  0.00000000000E+00 0. -1.
         25    2    1    2    0    0 -0.18107797783E+00  0.62535345910E+02 -0.15877902059E+03  0.21158541757E+03  0.12508760638E+03 0.  0.
         23    2    1    2    0    0  0.18107797783E+00 -0.62535345910E+02 -0.60760310421E+02  0.12796116209E+03  0.93656507531E+02 0.  0.
          5    1    3    3  502    0  0.58019423196E+02  0.45001922423E+02 -0.11520797225E+03  0.13668129265E+03  0.41800000000E+01 0. -1.
         -5    1    3    3    0  502 -0.58200501174E+02  0.17533423487E+02 -0.43571048338E+02  0.74904124915E+02  0.41800000000E+01 0. -1.
        -11    1    4    4    0    0 -0.22205050618E+02 -0.24445075722E+02  0.18032222321E+02  0.37626945688E+02  0.00000000000E+00 0.  1.
         11    1    4    4    0    0  0.22386128595E+02 -0.38090270188E+02 -0.78792532743E+02  0.90334216400E+02  0.00000000000E+00 0. -1.
</event>
<event>
 8    1  0.6692409E-009  0.8351485E+02  0.7561462E-02  0.1319363E+00
          2   -1    0    0  501    0  0.00000000000E+00  0.00000000000E+00  0.36537172673E+03  0.36537172673E+03  0.00000000000E+00 0. -1.
         -2   -1    0    0    0  501 -0.00000000000E+00 -0.00000000000E+00 -0.39492341792E+02  0.39492341792E+02  0.00000000000E+00 0.  1.
         25    2    1    2    0    0 -0.44546730072E+02 -0.95213364178E+01  0.21914175027E+03  0.25640879641E+03  0.12508915684E+03 0.  0.
         23    2    1    2    0    0  0.44546730072E+02  0.95213364178E+01  0.10673763466E+03  0.14845527211E+03  0.92579577422E+02 0.  0.
          5    1    3    3  502    0  0.18898200836E+01  0.22398343916E+02 -0.65246113067E+01  0.23776042203E+02  0.41800000000E+01 0.  1.
         -5    1    3    3    0  502 -0.46436550156E+02 -0.31919680333E+02  0.22566636158E+03  0.23263275421E+03  0.41800000000E+01 0.  1.
        -11    1    4    4    0    0  0.47805614749E+02 -0.24339630592E+02  0.23560635310E+02  0.58590937483E+02  0.00000000000E+00 0.  1.
         11    1    4    4    0    0 -0.32588846771E+01  0.33860967009E+02  0.83176999351E+02  0.89864334623E+02  0.00000000000E+00 0. -1.
</event>
<event>
 8    1  0.6692409E-009  0.1418497E+03  0.7561462E-02  0.1210862E+00
          1   -1    0    0  501    0  0.00000000000E+00  0.00000000000E+00  0.64973520378E+02  0.64973520378E+02  0.00000000000E+00 0. -1.
         -1   -1    0    0    0  501 -0.00000000000E+00 -0.00000000000E+00 -0.58414529120E+03  0.58414529120E+03  0.00000000000E+00 0.  1.
         25    2    1    2    0    0  0.90180313053E+02 -0.87272137801E+02 -0.10407504713E+03  0.20549306741E+03  0.12508745110E+03 0.  0.
         23    2    1    2    0    0 -0.90180313053E+02  0.87272137801E+02 -0.41509672370E+03  0.44362574417E+03  0.93539274989E+02 0.  0.
          5    1    3    3  502    0  0.10053916740E+03 -0.99063890349E+02 -0.51236914970E+02  0.15021475429E+03  0.41800000000E+01 0.  1.
         -5    1    3    3    0  502 -0.10358854344E+02  0.11791752547E+02 -0.52838132158E+02  0.55278313120E+02  0.41800000000E+01 0.  1.
        -11    1    4    4    0    0 -0.38465094620E+02  0.27929384508E+02 -0.45716546952E+02  0.65951623849E+02  0.00000000000E+00 0. -1.
         11    1    4    4    0    0 -0.51715218433E+02  0.59342753293E+02 -0.36938017675E+03  0.37767412032E+03  0.00000000000E+00 0.  1.
</event>
<event>
 8    1  0.6692409E-009  0.1333788E+03  0.7561462E-02  0.1222527E+00
          1   -1    0    0  501    0  0.00000000000E+00  0.00000000000E+00  0.43633608462E+02  0.43633608462E+02  0.00000000000E+00 0. -1.
         -1   -1    0    0    0  501 -0.00000000000E+00 -0.00000000000E+00 -0.45236272054E+03  0.45236272054E+03  0.00000000000E+00 0.  1.
         25    2    1    2    0    0  0.65220599874E+02 -0.47448617910E+02 -0.15925970583E+03  0.21798400888E+03  0.12509307029E+03 0.  0.
         23    2    1    2    0    0 -0.65220599874E+02  0.47448617910E+02 -0.24946940624E+03  0.27801232012E+03  0.92470360113E+02 0.  0.
          5    1    3    3  502    0  0.91255354947E+02  0.35107155583E+01 -0.10043089348E+03  0.13580759071E+03  0.41800000000E+01 0.  1.
         -5    1    3    3    0  502 -0.26034755073E+02 -0.50959333468E+02 -0.58828812353E+02  0.82176418163E+02  0.41800000000E+01 0.  1.
        -11    1    4    4    0    0 -0.70271479011E+02  0.67406960168E+02 -0.16993221346E+03  0.19585386443E+03  0.00000000000E+00 0. -1.
         11    1    4    4    0    0  0.50508791369E+01 -0.19958342258E+02 -0.79537192784E+02  0.82158455692E+02  0.00000000000E+00 0.  1.
</event>
<event>
 7    1  0.6692409E-009  0.2543245E+03  0.7561462E-02  0.1110602E+00
          2   -1    0    0  501    0  0.00000000000E+00  0.00000000000E+00  0.53590103856E+03  0.53590103856E+03  0.00000000000E+00 0. -1.
         -2   -1    0    0    0  501 -0.00000000000E+00 -0.00000000000E+00 -0.14885670857E+03  0.14885670857E+03  0.00000000000E+00 0.  1.
         23    2    1    2    0    0 -0.88600400580E+02 -0.22407275000E+03  0.30925738677E+03  0.40241012168E+03  0.90747707889E+02 0.  0.
          5    1    1    2  502    0 -0.57309604554E+00  0.15346618120E+03  0.20379128253E+02  0.15487084451E+03  0.41800000000E+01 0. -1.
         -5    1    1    2    0  502  0.89173496625E+02  0.70606568799E+02  0.57407814972E+02  0.12747678094E+03  0.41800000000E+01 0. -1.
        -11    1    3    3    0    0 -0.66065902256E+02 -0.15056102795E+03  0.13789499574E+03  0.21458880779E+03  0.00000000000E+00 0. -1.
         11    1    3    3    0    0 -0.22534498324E+02 -0.73511722045E+02  0.17136239103E+03  0.18782131389E+03  0.00000000000E+00 0.  1.
</event>
<event>
 8    1  0.6692409E-009  0.1538112E+03  0.7561462E-02  0.1195867E+00
          1   -1    0    0  501    0  0.00000000000E+00  0.00000000000E+00  0.18055798025E+03  0.18055798025E+03  0.00000000000E+00 0. -1.
         -1   -1    0    0    0  501 -0.00000000000E+00 -0.00000000000E+00 -0.17669930080E+03  0.17669930080E+03  0.00000000000E+00 0.  1.
         25    2    1    2    0    0  0.35526543669E+02 -0.12691077795E+03  0.53533015283E+02  0.18942101658E+03  0.12508419936E+03 0.  0.
         23    2    1    2    0    0 -0.35526543669E+02  0.12691077795E+03 -0.49674335836E+02  0.16783626448E+03  0.91285218774E+02 0.  0.
          5    1    3    3  502    0  0.67214031081E+02 -0.10668253544E+03  0.28666757320E+01  0.12619262883E+03  0.41800000000E+01 0. -1.
         -5    1    3    3    0  502 -0.31687487413E+02 -0.20228242519E+02  0.50666339551E+02  0.63228387750E+02  0.41800000000E+01 0. -1.
        -11    1    4    4    0    0  0.15423998015E+02  0.20471476995E+02  0.18447244208E+02  0.31579770487E+02  0.00000000000E+00 0. -1.
         11    1    4    4    0    0 -0.50950541683E+02  0.10643930096E+03 -0.68121580044E+02  0.13625649399E+03  0.00000000000E+00 0.  1.
</event>
<event>
 8    1  0.6692409E-009  0.1119229E+03  0.7561462E-02  0.1257050E+00
         -3   -1    0    0    0  501 -0.00000000000E+00  0.00000000000E+00  0.53630293378E+03  0.53630293378E+03  0.00000000000E+00 0.  1.
          3   -1    0    0  501    0  0.00000000000E+00 -0.00000000000E+00 -0.30762269137E+02  0.30762269137E+02  0.00000000000E+00 0. -1.
         25    2    1    2    0    0 -0.60551727580E+02  0.32955206921E+02  0.28443104232E+03  0.31827878005E+03  0.12509119321E+03 0.  0.
         23    2    1    2    0    0  0.60551727580E+02 -0.32955206921E+02  0.22110962232E+03  0.24878642287E+03  0.90844161856E+02 0.  0.
          5    1    3    3  502    0  0.29026277035E+01 -0.31931271838E+02  0.18491177676E+02  0.37248186810E+02  0.41800000000E+01 0.  1.
         -5    1    3    3    0  502 -0.63454355283E+02  0.64886478759E+02  0.26593986465E+03  0.28103059324E+03  0.41800000000E+01 0.  1.
        -11    1    4    4    0    0  0.54970267653E+02 -0.55094128207E+02  0.20883206462E+03  0.22286301735E+03  0.00000000000E+00 0.  1.
         11    1    4    4    0    0  0.55814599272E+01  0.22138921286E+02  0.12277557707E+02  0.25923405522E+02  0.00000000000E+00 0. -1.
</event>
<event>
 8    1  0.6692409E-009  0.9804056E+02  0.7561462E-02  0.1284471E+00
         -2   -1    0    0    0  501 -0.00000000000E+00  0.00000000000E+00  0.40269408605E+03  0.40269408605E+03  0.00000000000E+00 0.  1.
          2   -1    0    0  501    0  0.00000000000E+00 -0.00000000000E+00 -0.58849885294E+02  0.58849885294E+02  0.00000000000E+00 0. -1.
         25    2    1    2    0    0 -0.22409268499E+02  0.77964678281E+02  0.74765245967E+02  0.16678981090E+03  0.12509329575E+03 0.  0.
         23    2    1    2    0    0  0.22409268499E+02 -0.77964678281E+02  0.26907895479E+03  0.29475416045E+03  0.88858678906E+02 0.  0.
          5    1    3    3  502    0 -0.45173443612E+02  0.44522093994E+02  0.10031645334E+03  0.11875908416E+03  0.41800000000E+01 0.  1.
         -5    1    3    3    0  502  0.22764175113E+02  0.33442584287E+02 -0.25551207371E+02  0.48030726733E+02  0.41800000000E+01 0.  1.
        -11    1    4    4    0    0 -0.11720414399E+02 -0.35395184638E+02  0.21400623587E+03  0.21722996156E+03  0.00000000000E+00 0.  1.
         11    1    4    4    0    0  0.34129682897E+02 -0.42569493643E+02  0.55072718920E+02  0.77524198886E+02  0.00000000000E+00 0. -1.
</event>
<event>
 8    1  0.6692409E-009  0.1285961E+03  0.7561462E-02  0.1229554E+00
          2   -1    0    0  501    0  0.00000000000E+00  0.00000000000E+00  0.82694632114E+03  0.82694632114E+03  0.00000000000E+00 0. -1.
         -2   -1    0    0    0  501 -0.00000000000E+00 -0.00000000000E+00 -0.27278757404E+02  0.27278757404E+02  0.00000000000E+00 0.  1.
         25    2    1    2    0    0  0.73443675744E+02  0.14859376832E+02  0.62895363206E+03  0.64563470288E+03  0.12508686461E+03 0.  0.
         23    2    1    2    0    0 -0.73443675744E+02 -0.14859376832E+02  0.17071393168E+03  0.20859037567E+03  0.93551717057E+02 0.  0.
          5    1    3    3  502    0 -0.34485294612E+02  0.37253605589E+01  0.20737262708E+03  0.21029501354E+03  0.41800000000E+01 0.  1.
         -5    1    3    3    0  502  0.10792897036E+03  0.11134016274E+02  0.42158100497E+03  0.43533968934E+03  0.41800000000E+01 0.  1.
        -11    1    4    4    0    0 -0.56533937911E+02  0.31225220812E+02  0.12862230998E+03  0.14392636720E+03  0.00000000000E+00 0.  1.
         11    1    4    4    0    0 -0.16909737834E+02 -0.46084597644E+02  0.42091621696E+02  0.64664008464E+02  0.00000000000E+00 0. -1.
</event>
<event>
 8    1  0.6692409E-009  0.2221019E+03  0.7561462E-02  0.1132326E+00
          1   -1    0    0  501    0  0.00000000000E+00  0.00000000000E+00  0.86026858819E+02  0.86026858819E+02  0.00000000000E+00 0. -1.
         -1   -1    0    0    0  501 -0.00000000000E+00 -0.00000000000E+00 -0.59191862860E+03  0.59191862860E+03  0.00000000000E+00 0.  1.
         25    2    1    2    0    0  0.41890577440E+01 -0.19621658218E+03 -0.29025301313E+03  0.37203785788E+03  0.12508741238E+03 0.  0.
         23    2    1    2    0    0 -0.41890577440E+01  0.19621658218E+03 -0.21563875665E+03  0.30590762954E+03  0.92525180961E+02 0.  0.
          5    1    3    3  502    0 -0.10560721287E+02 -0.21043902093E+03 -0.25261036734E+03  0.32897656520E+03  0.41800000000E+01 0.  1.
         -5    1    3    3    0  502  0.14749779031E+02  0.14222438742E+02 -0.37642645785E+02  0.43061292676E+02  0.41800000000E+01 0.  1.
        -11    1    4    4    0    0 -0.37114389271E+02  0.47774794089E+02 -0.35372600718E+02  0.70079452928E+02  0.00000000000E+00 0. -1.
         11    1    4    4    0    0  0.32925331527E+02  0.14844178809E+03 -0.18026615593E+03  0.23582817661E+03  0.00000000000E+00 0.  1.
</event>
<event>
 8    1  0.6692409E-009  0.1341045E+03  0.7561462E-02  0.1221489E+00
          4   -1    0    0  501    0  0.00000000000E+00  0.00000000000E+00  0.50550878765E+02  0.50550878765E+02  0.00000000000E+00 0. -1.
         -4   -1    0    0    0  501 -0.00000000000E+00 -0.00000000000E+00 -0.45163212825E+03  0.45163212825E+03  0.00000000000E+00 0.  1.
         25    2    1    2    0    0 -0.47830731519E+02  0.76590670153E+02 -0.13044546186E+03  0.20203543033E+03  0.12509351285E+03 0.  0.
         23    2    1    2    0    0  0.47830731519E+02 -0.76590670153E+02 -0.27063578763E+03  0.30014757669E+03  0.93225150121E+02 0.  0.
          5    1    3    3  502    0  0.37340156945E+02  0.17391716081E+02 -0.91840994674E+01  0.42409659182E+02  0.41800000000E+01 0. -1.
         -5    1    3    3    0  502 -0.85170888464E+02  0.59198954071E+02 -0.12126136239E+03  0.15962577115E+03  0.41800000000E+01 0. -1.
        -11    1    4    4    0    0  0.41724714080E+01 -0.79154444770E+02 -0.12435014330E+03  0.14746455094E+03  0.00000000000E+00 0. -1.
         11    1    4    4    0    0  0.43658260111E+02  0.25637746169E+01 -0.14628564433E+03  0.15268302575E+03  0.00000000000E+00 0.  1.
</event>
<event>
 8    1  0.6692409E-009  0.1129292E+03  0.7561462E-02  0.1255240E+00
         -2   -1    0    0    0  501 -0.00000000000E+00  0.00000000000E+00  0.36497847728E+02  0.36497847728E+02  0.00000000000E+00 0.  1.
          2   -1    0    0  501    0  0.00000000000E+00 -0.00000000000E+00 -0.38497265906E+03  0.38497265906E+03  0.00000000000E+00 0. -1.
         25    2    1    2    0    0  0.22150611388E+02  0.12624812417E+02 -0.25821583081E+03  0.28805025426E+03  0.12508996051E+03 0.  0.
         23    2    1    2    0    0 -0.22150611388E+02 -0.12624812417E+02 -0.90258980522E+02  0.13342025254E+03  0.94890698958E+02 0.  0.
          5    1    3    3  502    0  0.72906265630E+02  0.21084443708E+02 -0.15670137294E+03  0.17416276874E+03  0.41800000000E+01 0. -1.
         -5    1    3    3    0  502 -0.50755654242E+02 -0.84596312910E+01 -0.10151445787E+03  0.11388748551E+03  0.41800000000E+01 0. -1.
        -11    1    4    4    0    0 -0.40177678171E+02 -0.45518873967E+02 -0.57440049356E+02  0.83579740251E+02  0.00000000000E+00 0. -1.
         11    1    4    4    0    0  0.18027066783E+02  0.32894061550E+02 -0.32818931166E+02  0.49840512286E+02  0.00000000000E+00 0.  1.
</event>
<event>
 8    1  0.6692409E-009  0.1444465E+03  0.7561462E-02  0.1207468E+00
         -2   -1    0    0    0  501 -0.00000000000E+00  0.00000000000E+00  0.84775412753E+02  0.84775412753E+02  0.00000000000E+00 0. -1.
          2   -1    0    0  501    0  0.00000000000E+00 -0.00000000000E+00 -0.27594934067E+03  0.27594934067E+03  0.00000000000E+00 0.  1.
         25    2    1    2    0    0  0.26781053220E+02 -0.93665795063E+02 -0.50043318691E+02  0.16626160607E+03  0.12509229365E+03 0.  0.
         23    2    1    2    0    0 -0.26781053220E+02  0.93665795063E+02 -0.14113060923E+03  0.19446314736E+03  0.91692752405E+02 0.  0.
          5    1    3    3  502    0 -0.33269768040E+02  0.12835477521E+02 -0.15774838192E+02  0.39216640200E+02  0.41800000000E+01 0.  1.
         -5    1    3    3    0  502  0.60050821261E+02 -0.10650127258E+03 -0.34268480499E+02  0.12704496587E+03  0.41800000000E+01 0.  1.
        -11    1    4    4    0    0 -0.54429202522E+02  0.86316963145E+02 -0.90914445159E+02  0.13666964752E+03  0.00000000000E+00 0.  1.
         11    1    4    4    0    0  0.27648149301E+02  0.73488319174E+01 -0.50216164067E+02  0.57793499842E+02  0.00000000000E+00 0. -1.
</event>
<event>
 8    1  0.6692409E-009  0.1547635E+03  0.7561462E-02  0.1194739E+00
          1   -1    0    0  501    0  0.00000000000E+00  0.00000000000E+00  0.73051922767E+03  0.73051922767E+03  0.00000000000E+00 0. -1.
         -1   -1    0    0    0  501 -0.00000000000E+00 -0.00000000000E+00 -0.41463350304E+02  0.41463350304E+02  0.00000000000E+00 0.  1.
         25    2    1    2    0    0 -0.96825461035E+02 -0.79591326594E+02  0.48824989927E+03  0.51936591246E+03  0.12507213003E+03 0.  0.
         23    2    1    2    0    0  0.96825461035E+02  0.79591326594E+02  0.20080597809E+03  0.25261666552E+03  0.88216719984E+02 0.  0.
          5    1    3    3  502    0  0.25150218365E+02 -0.86860838472E+01  0.32238943400E+02  0.42009563292E+02  0.41800000000E+01 0. -1.
         -5    1    3    3    0  502 -0.12197567940E+03 -0.70905242747E+02  0.45601095588E+03  0.47735634917E+03  0.41800000000E+01 0. -1.
        -11    1    4    4    0    0  0.51775613302E+02  0.21113968711E+01  0.12469990446E+03  0.13503791431E+03  0.00000000000E+00 0.  1.
         11    1    4    4    0    0  0.45049847733E+02  0.77479929723E+02  0.76106073633E+02  0.11757875120E+03  0.00000000000E+00 0. -1.
</event>
<event>
 8    1  0.6692409E-009  0.1785264E+03  0.7561462E-02  0.1169237E+00
          2   -1    0    0  501    0  0.00000000000E+00  0.00000000000E+00  0.39854801785E+03  0.39854801785E+03  0.00000000000E+00 0. -1.
         -2   -1    0    0    0  501 -0.00000000000E+00 -0.00000000000E+00 -0.12479748419E+03  0.12479748419E+03  0.00000000000E+00 0.  1.
         25    2    1    2    0    0  0.59228694715E+02 -0.14475325456E+03  0.82224766242E+01  0.20044088726E+03  0.12508955665E+03 0.  0.
         23    2    1    2    0    0 -0.59228694715E+02  0.14475325456E+03  0.26552805703E+03  0.32290461478E+03  0.96440127506E+02 0.  0.
          5    1    3    3  502    0  0.39196280607E+02  0.12506991469E+02  0.63779922293E+01  0.41844048966E+02  0.41800000000E+01 0.  1.
         -5    1    3    3    0  502  0.20032414108E+02 -0.15726024603E+03  0.18444843949E+01  0.15859683830E+03  0.41800000000E+01 0.  1.
        -11    1    4    4    0    0 -0.38156038594E+02  0.73589351937E+02  0.54496834451E+02  0.99202726600E+02  0.00000000000E+00 0.  1.
         11    1    4    4    0    0 -0.21072656121E+02  0.71163902619E+02  0.21103122258E+03  0.22370188818E+03  0.00000000000E+00 0. -1.
</event>
<event>
 8    1  0.6692409E-009  0.1162863E+03  0.7561462E-02  0.1249352E+00
          2   -1    0    0  501    0  0.00000000000E+00  0.00000000000E+00  0.14412175154E+04  0.14412175154E+04  0.00000000000E+00 0. -1.
         -2   -1    0    0    0  501 -0.00000000000E+00 -0.00000000000E+00 -0.12444080775E+02  0.12444080775E+02  0.00000000000E+00 0.  1.
         25    2    1    2    0    0 -0.25672012176E+02 -0.75534846391E+02  0.95206942673E+03  0.96356015340E+03  0.12508961053E+03 0.  0.
         23    2    1    2    0    0  0.25672012176E+02  0.75534846391E+02  0.47670400784E+03  0.49010144273E+03  0.81167406295E+02 0.  0.
          5    1    3    3  502    0 -0.25302265992E+02 -0.95711053014E+02  0.92076610691E+03  0.92608234319E+03  0.41800000000E+01 0. -1.
         -5    1    3    3    0  502 -0.36974618365E+00  0.20176206623E+02  0.31303319825E+02  0.37477810208E+02  0.41800000000E+01 0. -1.
        -11    1    4    4    0    0 -0.24990164829E+02  0.41354966826E+01  0.13533413374E+03  0.13768419817E+03  0.00000000000E+00 0.  1.
         11    1    4    4    0    0  0.50662177004E+02  0.71399349709E+02  0.34136987411E+03  0.35241724457E+03  0.00000000000E+00 0. -1.
</event>
<event>
 8    1  0.6692409E-009  0.1881059E+03  0.7561462E-02  0.1160181E+00
         -2   -1    0    0    0  501 -0.00000000000E+00  0.00000000000E+00  0.42166459008E+02  0.42166459008E+02  0.00000000000E+00 0.  1.
          2   -1    0    0  501    0  0.00000000000E+00 -0.00000000000E+00 -0.10508224010E+04  0.10508224010E+04  0.00000000000E+00 0. -1.
         25    2    1    2    0    0 -0.15929620444E+03  0.84230422664E+02 -0.50254243149E+03  0.54833013286E+03  0.12508794626E+03 0.  0.
         23    2    1    2    0    0  0.15929620444E+03 -0.84230422664E+02 -0.50611351047E+03  0.54465872712E+03  0.89622534519E+02 0.  0.
          5    1    3    3  502    0 -0.12346916785E+03  0.87783895889E+02 -0.24382817300E+03  0.28708935566E+03  0.41800000000E+01 0. -1.
         -5    1    3    3    0  502 -0.35827036599E+02 -0.35534732245E+01 -0.25871425849E+03  0.26124077720E+03  0.41800000000E+01 0. -1.
        -11    1    4    4    0    0  0.67229311818E+02 -0.66681875472E+02 -0.34989734293E+03  0.36248365959E+03  0.00000000000E+00 0.  1.
         11    1    4    4    0    0  0.92066892627E+02 -0.17548547192E+02 -0.15621616754E+03  0.18217506753E+03  0.00000000000E+00 0. -1.
</event>
<event>
 8    1  0.6692409E-009  0.1343354E+03  0.7561462E-02  0.1221161E+00
          2   -1    0    0  501    0  0.00000000000E+00  0.00000000000E+00  0.15029781655E+03  0.15029781655E+03  0.00000000000E+00 0. -1.
         -2   -1    0    0    0  501 -0.00000000000E+00 -0.00000000000E+00 -0.14645072579E+03  0.14645072579E+03  0.00000000000E+00 0.  1.
         25    2    1    2    0    0  0.63513813644E+02  0.74186060669E+02 -0.26251023321E+02  0.16085499421E+03  0.12509051449E+03 0.  0.
         23    2    1    2    0    0 -0.63513813644E+02 -0.74186060669E+02  0.30098114082E+02  0.13589354813E+03  0.89574459697E+02 0.  0.
          5    1    3    3  502    0  0.84765921488E+02  0.22230214296E+02  0.17625369661E+02  0.89485026284E+02  0.41800000000E+01 0.  1.
         -5    1    3    3    0  502 -0.21252107844E+02  0.51955846373E+02 -0.43876392982E+02  0.71369967922E+02  0.41800000000E+01 0.  1.
        -11    1    4    4    0    0 -0.25669298954E+02  0.13602550972E+02  0.27887274415E+02  0.40269621007E+02  0.00000000000E+00 0. -1.
         11    1    4    4    0    0 -0.37844514691E+02 -0.87788611640E+02  0.22108396664E+01  0.95623927120E+02  0.00000000000E+00 0.  1.
</event>
<event>
 8    1  0.6692409E-009  0.2093508E+03  0.7561462E-02  0.1142081E+00
          1   -1    0    0  501    0  0.00000000000E+00  0.00000000000E+00  0.17427813067E+03  0.17427813067E+03  0.00000000000E+00 0. -1.
         -1   -1    0    0    0  501 -0.00000000000E+00 -0.00000000000E+00 -0.33067934439E+03  0.33067934439E+03  0.00000000000E+00 0.  1.
         25    2    1    2    0    0  0.78521238411E+02  0.18182711422E+03 -0.16783606062E+03  0.28817284953E+03  0.12509182074E+03 0.  0.
         23    2    1    2    0    0 -0.78521238411E+02 -0.18182711422E+03  0.11434846904E+02  0.21678462553E+03  0.87396417524E+02 0.  0.
          5    1    3    3  502    0  0.55573221357E+02  0.16656226337E+03 -0.74539947507E+02  0.19080106573E+03  0.41800000000E+01 0. -1.
         -5    1    3    3    0  502  0.22948017054E+02  0.15264850853E+02 -0.93296113116E+02  0.97371783802E+02  0.41800000000E+01 0. -1.
        -11    1    4    4    0    0 -0.96557086167E+02 -0.15993542840E+03  0.18081918210E+01  0.18683115828E+03  0.00000000000E+00 0. -1.
         11    1    4    4    0    0  0.18035847756E+02 -0.21891685820E+02  0.96266550832E+01  0.29953467252E+02  0.00000000000E+00 0.  1.
</event>
<event>
 8    1  0.6692409E-009  0.1214934E+03  0.7561462E-02  0.1240654E+00
         -1   -1    0    0    0  501 -0.00000000000E+00  0.00000000000E+00  0.32920333795E+02  0.32920333795E+02  0.00000000000E+00 0.  1.
          1   -1    0    0  501    0  0.00000000000E+00 -0.00000000000E+00 -0.50967869955E+03  0.50967869955E+03  0.00000000000E+00 0. -1.
         25    2    1    2    0    0 -0.56400049695E+02 -0.12743870693E+02 -0.35239658832E+03  0.37838446747E+03  0.12509227762E+03 0.  0.
         23    2    1    2    0    0  0.56400049695E+02  0.12743870693E+02 -0.12436177743E+03  0.16421456587E+03  0.90317219349E+02 0.  0.
          5    1    3    3  502    0  0.39622718314E+02  0.46976516814E+01 -0.10081210707E+03  0.10850152566E+03  0.41800000000E+01 0.  1.
         -5    1    3    3    0  502 -0.96022768009E+02 -0.17441522375E+02 -0.25158448125E+03  0.26988294181E+03  0.41800000000E+01 0.  1.
        -11    1    4    4    0    0  0.79955188164E+02  0.15581725988E+02 -0.81530957147E+02  0.11525154781E+03  0.00000000000E+00 0.  1.
         11    1    4    4    0    0 -0.23555138469E+02 -0.28378552949E+01 -0.42830820288E+02  0.48963018059E+02  0.00000000000E+00 0. -1.
</event>
<event>
 8    1  0.6692409E-009  0.8700518E+02  0.7561462E-02  0.1310271E+00
          1   -1    0    0  501    0  0.00000000000E+00  0.00000000000E+00  0.28749523772E+02  0.28749523772E+02  0.00000000000E+00 0. -1.
         -1   -1    0    0    0  501 -0.00000000000E+00 -0.00000000000E+00 -0.48366360272E+03  0.48366360272E+03  0.00000000000E+00 0.  1.
         25    2    1    2    0    0 -0.20353461759E+02 -0.12589793290E+02 -0.17028809329E+03  0.21265199867E+03  0.12510024589E+03 0.  0.
         23    2    1    2    0    0  0.20353461759E+02  0.12589793290E+02 -0.28462598566E+03  0.29976112782E+03  0.90950622543E+02 0.  0.
          5    1    3    3  502    0  0.29956072611E+02 -0.30333005919E+02 -0.10446634960E+02  0.44091519778E+02  0.41800000000E+01 0.  1.
         -5    1    3    3    0  502 -0.50309534369E+02  0.17743212629E+02 -0.15984145833E+03  0.16856047889E+03  0.41800000000E+01 0.  1.
        -11    1    4    4    0    0 -0.28141187049E+02  0.48130490879E+01 -0.34134351873E+02  0.44499953121E+02  0.00000000000E+00 0. -1.
         11    1    4    4    0    0  0.48494648807E+02  0.77767442016E+01 -0.25049163379E+03  0.25526117470E+03  0.00000000000E+00 0.  1.
</event>
<event>
 8    1  0.6692409E-009  0.2227667E+03  0.7561462E-02  0.1131837E+00
         -2   -1    0    0    0  501 -0.00000000000E+00  0.00000000000E+00  0.34015777686E+03  0.34015777686E+03  0.00000000000E+00 0. -1.
          2   -1    0    0  501    0  0.00000000000E+00 -0.00000000000E+00 -0.15372328839E+03  0.15372328839E+03  0.00000000000E+00 0.  1.
         25    2    1    2    0    0 -0.18061736855E+03  0.74508300507E+02  0.14712602681E+03  0.27471501637E+03  0.12509257287E+03 0.  0.
         23    2    1    2    0    0  0.18061736855E+03 -0.74508300507E+02  0.39308461659E+02  0.21916604888E+03  0.91183776832E+02 0.  0.
          5    1    3    3  502    0 -0.28623605029E+02  0.73140239341E+02  0.36715847029E+02  0.86800525336E+02  0.41800000000E+01 0. -1.
         -5    1    3    3    0  502 -0.15199376352E+03  0.13680611660E+01  0.11041017978E+03  0.18791449103E+03  0.41800000000E+01 0. -1.
        -11    1    4    4    0    0  0.13097583538E+03 -0.71796539223E+01  0.33106410636E+02  0.13528581340E+03  0.00000000000E+00 0. -1.
         11    1    4    4    0    0  0.49641533174E+02 -0.67328646584E+02  0.62020510226E+01  0.83880235477E+02  0.00000000000E+00 0.  1.
</event>
<event>
 8    1  0.6692409E-009  0.2304188E+03  0.7561462E-02  0.1126345E+00
          1   -1    0    0  501    0  0.00000000000E+00  0.00000000000E+00  0.41242478000E+03  0.41242478000E+03  0.00000000000E+00 0. -1.
         -1   -1    0    0    0  501 -0.00000000000E+00 -0.00000000000E+00 -0.23690163124E+03  0.23690163124E+03  0.00000000000E+00 0.  1.
         25    2    1    2    0    0  0.47505421965E+02  0.21812419206E+03  0.28617722331E+03  0.38391406811E+03  0.12513065281E+03 0.  0.
         23    2    1    2    0    0 -0.47505421965E+02 -0.21812419206E+03 -0.11065407454E+03  0.26541234313E+03  0.91457418474E+02 0.  0.
          5    1    3    3  502    0  0.40237569668E+02  0.16551189958E+03  0.28326323788E+03  0.33055829327E+03  0.41800000000E+01 0.  1.
         -5    1    3    3    0  502  0.72678522969E+01  0.52612292481E+02  0.29139854249E+01  0.53355774835E+02  0.41800000000E+01 0.  1.
        -11    1    4    4    0    0 -0.71257953663E-01 -0.16860538377E+03 -0.55798282087E+02  0.17759850449E+03  0.00000000000E+00 0. -1.
         11    1    4    4    0    0 -0.47434164011E+02 -0.49518808290E+02 -0.54855792458E+02  0.87813838637E+02  0.00000000000E+00 0.  1.
</event>
<event>
 8    1  0.6692409E-009  0.8836517E+02  0.7561462E-02  0.1306860E+00
          1   -1    0    0  501    0  0.00000000000E+00  0.00000000000E+00  0.38368773320E+03  0.38368773320E+03  0.00000000000E+00 0. -1.
         -1   -1    0    0    0  501 -0.00000000000E+00 -0.00000000000E+00 -0.37313183545E+02  0.37313183545E+02  0.00000000000E+00 0.  1.
         25    2    1    2    0    0 -0.46036436367E+02 -0.16472317716E+02  0.17796081155E+03  0.22295162073E+03  0.12508670598E+03 0.  0.
         23    2    1    2    0    0  0.46036436367E+02  0.16472317716E+02  0.16841373810E+03  0.19804929602E+03  0.92030678293E+02 0.  0.
          5    1    3    3  502    0 -0.25766111248E+02  0.25079113030E+02 -0.28179940898E+01  0.36307959044E+02  0.41800000000E+01 0. -1.
         -5    1    3    3    0  502 -0.20270325119E+02 -0.41551430746E+02  0.18077880564E+03  0.18664366169E+03  0.41800000000E+01 0. -1.
        -11    1    4    4    0    0 -0.19422965573E+02  0.20863067537E+02  0.96878089611E+02  0.10098457023E+03  0.00000000000E+00 0. -1.
         11    1    4    4    0    0  0.65459401940E+02 -0.43907498209E+01  0.71535648492E+02  0.97064725784E+02  0.00000000000E+00 0.  1.
</event>
<event>
 8    1  0.6692409E-009  0.1204473E+03  0.7561462E-02  0.1242361E+00
          1   -1    0    0  501    0  0.00000000000E+00  0.00000000000E+00  0.10634226967E+04  0.10634226967E+04  0.00000000000E+00 0. -1.
         -1   -1    0    0    0  501 -0.00000000000E+00 -0.00000000000E+00 -0.14923514418E+02  0.14923514418E+02  0.00000000000E+00 0.  1.
         25    2    1    2    0    0 -0.52917879306E+02  0.21203628124E+02  0.62788225065E+03  0.64275451997E+03  0.12508939389E+03 0.  0.
         23    2    1    2    0    0  0.52917879306E+02 -0.21203628124E+02  0.42061693159E+03  0.43559169111E+03  0.97834668834E+02 0.  0.
          5    1    3    3  502    0 -0.66010232415E+02 -0.36713182177E+02  0.29208826838E+03  0.30172543388E+03  0.41800000000E+01 0. -1.
         -5    1    3    3    0  502  0.13092353109E+02  0.57916810301E+02  0.33579398227E+03  0.34102908608E+03  0.41800000000E+01 0. -1.
        -11    1    4    4    0    0  0.77832307294E+02 -0.21703606176E+02  0.37505585967E+03  0.38366106455E+03  0.00000000000E+00 0. -1.
         11    1    4    4    0    0 -0.24914427988E+02  0.49997805158E+00  0.45561071921E+02  0.51930626557E+02  0.00000000000E+00 0.  1.
</event>
<event>
 8    1  0.6692409E-009  0.1493721E+03  0.7561462E-02  0.1201247E+00
         -2   -1    0    0    0  501 -0.00000000000E+00  0.00000000000E+00  0.14757540015E+02  0.14757540015E+02  0.00000000000E+00 0.  1.
          2   -1    0    0  501    0  0.00000000000E+00 -0.00000000000E+00 -0.26881442304E+04  0.26881442304E+04  0.00000000000E+00 0. -1.
         25    2    1    2    0    0 -0.46458180025E+02  0.13705603256E+03 -0.19610951601E+04  0.19704019348E+04  0.12508732758E+03 0.  0.
         23    2    1    2    0    0  0.46458180025E+02 -0.13705603256E+03 -0.71229153033E+03  0.73249983556E+03  0.90851892500E+02 0.  0.
          5    1    3    3  502    0 -0.52356338700E+01  0.78098366627E+02 -0.16141549062E+04  0.16160570226E+04  0.41800000000E+01 0. -1.
         -5    1    3    3    0  502 -0.41222546155E+02  0.58957665929E+02 -0.34694025390E+03  0.35434491228E+03  0.41800000000E+01 0. -1.
        -11    1    4    4    0    0  0.26399776806E+02 -0.32675060045E+02 -0.71292567922E+02  0.82748039284E+02  0.00000000000E+00 0.  1.
         11    1    4    4    0    0  0.20058403219E+02 -0.10438097251E+03 -0.64099896240E+03  0.64975179628E+03  0.00000000000E+00 0. -1.
</event>
<event>
 8    1  0.6692409E-009  0.8657572E+02  0.7561462E-02  0.1311363E+00
         -1   -1    0    0    0  501 -0.00000000000E+00  0.00000000000E+00  0.29166603760E+02  0.29166603760E+02  0.00000000000E+00 0.  1.
          1   -1    0    0  501    0  0.00000000000E+00 -0.00000000000E+00 -0.45521070558E+03  0.45521070558E+03  0.00000000000E+00 0. -1.
         25    2    1    2    0    0  0.25170868153E+02 -0.31066526221E+02 -0.26042300144E+03  0.29166137077E+03  0.12509002304E+03 0.  0.
         23    2    1    2    0    0 -0.25170868153E+02  0.31066526221E+02 -0.16562110038E+03  0.19271593857E+03  0.90057661714E+02 0.  0.
          5    1    3    3  502    0  0.95046438652E+01  0.26023079540E+02 -0.38110419220E+01  0.28276056378E+02  0.41800000000E+01 0.  1.
         -5    1    3    3    0  502  0.15666224288E+02 -0.57089605760E+02 -0.25661195952E+03  0.26338531439E+03  0.41800000000E+01 0.  1.
        -11    1    4    4    0    0 -0.17604948525E+02  0.56537451297E+02 -0.61968252555E+02  0.85711620778E+02  0.00000000000E+00 0.  1.
         11    1    4    4    0    0 -0.75659196275E+01 -0.25470925077E+02 -0.10365284782E+03  0.10700431779E+03  0.00000000000E+00 0. -1.
</event>
<event>
 8    1  0.6692409E-009  0.1341301E+03  0.7561462E-02  0.1221453E+00
          1   -1    0    0  501    0  0.00000000000E+00  0.00000000000E+00  0.22856418548E+03  0.22856418548E+03  0.00000000000E+00 0. -1.
         -1   -1    0    0    0  501 -0.00000000000E+00 -0.00000000000E+00 -0.10540679009E+03  0.10540679009E+03  0.00000000000E+00 0.  1.
         25    2    1    2    0    0  0.46394150682E+02 -0.80470602902E+02  0.13133634179E+03  0.20377526081E+03  0.12508871689E+03 0.  0.
         23    2    1    2    0    0 -0.46394150682E+02  0.80470602902E+02 -0.81789464016E+01  0.13019571476E+03  0.90863049859E+02 0.  0.
          5    1    3    3  502    0  0.55107927606E+02  0.16728720030E+02  0.41971271565E+02  0.71384828890E+02  0.41800000000E+01 0. -1.
         -5    1    3    3    0  502 -0.87137769243E+01 -0.97199322932E+02  0.89365070228E+02  0.13239043192E+03  0.41800000000E+01 0. -1.
        -11    1    4    4    0    0 -0.41437593543E+02  0.10571988980E+02 -0.34901453171E+02  0.55199207812E+02  0.00000000000E+00 0.  1.
         11    1    4    4    0    0 -0.49565571391E+01  0.69898613922E+02  0.26722506770E+02  0.74996506952E+02  0.00000000000E+00 0. -1.
</event>
<event>
 8    1  0.6692409E-009  0.2355405E+03  0.7561462E-02  0.1122800E+00
          2   -1    0    0  501    0  0.00000000000E+00  0.00000000000E+00  0.15102928268E+03  0.15102928268E+03  0.00000000000E+00 0. -1.
         -2   -1    0    0    0  501 -0.00000000000E+00 -0.00000000000E+00 -0.42502007464E+03  0.42502007464E+03  0.00000000000E+00 0.  1.
         25    2    1    2    0    0  0.10728688253E+03  0.20048797595E+03 -0.16884257183E+03  0.30961433112E+03  0.12508923338E+03 0.  0.
         23    2    1    2    0    0 -0.10728688253E+03 -0.20048797595E+03 -0.10514822013E+03  0.26643502620E+03  0.90694935500E+02 0.  0.
          5    1    3    3  502    0  0.26314335438E+02  0.32456445218E+02  0.17894437082E+02  0.45645901944E+02  0.41800000000E+01 0. -1.
         -5    1    3    3    0  502  0.80972547089E+02  0.16803153073E+03 -0.18673700891E+03  0.26396842917E+03  0.41800000000E+01 0. -1.
        -11    1    4    4    0    0 -0.54765693303E+02 -0.26623598206E+02 -0.42706595242E+02  0.74377082637E+02  0.00000000000E+00 0.  1.
         11    1    4    4    0    0 -0.52521189224E+02 -0.17386437775E+03 -0.62441624885E+02  0.19205794356E+03  0.00000000000E+00 0. -1.
</event>
<event>
 8    1  0.6692409E-009  0.8905932E+02  0.7561462E-02  0.1305146E+00
          1   -1    0    0  501    0  0.00000000000E+00  0.00000000000E+00  0.38473795066E+03  0.38473795066E+03  0.00000000000E+00 0. -1.
         -1   -1    0    0    0  501 -0.00000000000E+00 -0.00000000000E+00 -0.51214767621E+02  0.51214767621E+02  0.00000000000E+00 0.  1.
         25    2    1    2    0    0 -0.11663122482E+02 -0.31189865842E+02  0.30479411889E+03  0.33114439327E+03  0.12509323774E+03 0.  0.
         23    2    1    2    0    0  0.11663122482E+02  0.31189865842E+02  0.28729064144E+02  0.10480832501E+03  0.95134587332E+02 0.  0.
          5    1    3    3  502    0 -0.53914739928E+02 -0.57426677624E+02  0.20258925368E+03  0.21740400316E+03  0.41800000000E+01 0.  1.
         -5    1    3    3    0  502  0.42251617446E+02  0.26236811782E+02  0.10220486522E+03  0.11374039011E+03  0.41800000000E+01 0.  1.
        -11    1    4    4    0    0  0.24078837488E+02  0.13170447790E+02  0.60382556981E+02  0.66327251544E+02  0.00000000000E+00 0. -1.
         11    1    4    4    0    0 -0.12415715005E+02  0.18019418052E+02 -0.31653492838E+02  0.38481073463E+02  0.00000000000E+00 0.  1.
</event>
<event>
 8    1  0.6692409E-009  0.3631694E+03  0.7561462E-02  0.1057336E+00
          1   -1    0    0  501    0  0.00000000000E+00  0.00000000000E+00  0.96108088931E+03  0.96108088931E+03  0.00000000000E+00 0. -1.
         -1   -1    0    0    0  501 -0.00000000000E+00 -0.00000000000E+00 -0.15478861368E+03  0.15478861368E+03  0.00000000000E+00 0.  1.
         25    2    1    2    0    0  0.30988323050E+03 -0.18595971605E+03  0.52266622372E+03  0.64763872517E+03  0.12508918573E+03 0.  0.
         23    2    1    2    0    0 -0.30988323050E+03  0.18595971605E+03  0.28362605191E+03  0.46823077781E+03  0.90485863124E+02 0.  0.
          5    1    3    3  502    0  0.13801450171E+03 -0.56930001854E+02  0.31568416072E+03  0.34923199957E+03  0.41800000000E+01 0.  1.
         -5    1    3    3    0  502  0.17186872879E+03 -0.12902971420E+03  0.20698206300E+03  0.29840672560E+03  0.41800000000E+01 0.  1.
        -11    1    4    4    0    0 -0.10045113581E+03  0.48753326624E+02  0.14177655810E+03  0.18046581385E+03  0.00000000000E+00 0. -1.
         11    1    4    4    0    0 -0.20943209469E+03  0.13720638943E+03  0.14184949381E+03  0.28776496396E+03  0.00000000000E+00 0.  1.
</event>
<event>
 8    1  0.6692409E-009  0.1047149E+03  0.7561462E-02  0.1270682E+00
         -2   -1    0    0    0  501 -0.00000000000E+00  0.00000000000E+00  0.16802936559E+03  0.16802936559E+03  0.00000000000E+00 0.  1.
          2   -1    0    0  501    0  0.00000000000E+00 -0.00000000000E+00 -0.14117287812E+03  0.14117287812E+03  0.00000000000E+00 0. -1.
         25    2    1    2    0    0  0.99951588498E+02  0.16536097786E+02  0.55218728692E+02  0.17017891044E+03  0.12509193015E+03 0.  0.
         23    2    1    2    0    0 -0.99951588498E+02 -0.16536097786E+02 -0.28362241219E+02  0.13902333327E+03  0.90880734442E+02 0.  0.
          5    1    3    3  502    0  0.79896920935E+02  0.20468623240E+02  0.94623875054E+02  0.12559312339E+03  0.41800000000E+01 0.  1.
         -5    1    3    3    0  502  0.20054667563E+02 -0.39325254540E+01 -0.39405146362E+02  0.44585787056E+02  0.41800000000E+01 0.  1.
        -11    1    4    4    0    0 -0.64372799905E+02  0.47141984563E+01  0.26918665344E+02  0.69933508267E+02  0.00000000000E+00 0.  1.
         11    1    4    4    0    0 -0.35578788593E+02 -0.21250296243E+02 -0.55280906563E+02  0.69089825000E+02  0.00000000000E+00 0. -1.
</event>
<event>
 8    1  0.6692409E-009  0.1316499E+03  0.7561462E-02  0.1225028E+00
          2   -1    0    0  501    0  0.00000000000E+00  0.00000000000E+00  0.70491870759E+02  0.70491870759E+02  0.00000000000E+00 0. -1.
         -2   -1    0    0    0  501 -0.00000000000E+00 -0.00000000000E+00 -0.39907629009E+03  0.39907629009E+03  0.00000000000E+00 0.  1.
         25    2    1    2    0    0 -0.10302917568E+03  0.36451541142E+02 -0.26522574532E+03  0.31294509401E+03  0.12508481119E+03 0.  0.
         23    2    1    2    0    0  0.10302917568E+03 -0.36451541142E+02 -0.63358674013E+02  0.15662306684E+03  0.92589079281E+02 0.  0.
          5    1    3    3  502    0  0.53660628496E+01  0.23477469848E+02 -0.15795895754E+03  0.15983895297E+03  0.41800000000E+01 0. -1.
         -5    1    3    3    0  502 -0.10839523853E+03  0.12974071294E+02 -0.10726678778E+03  0.15310614103E+03  0.41800000000E+01 0. -1.
        -11    1    4    4    0    0  0.36318714436E+02 -0.49738517339E+02  0.29129392506E+01  0.61655935160E+02  0.00000000000E+00 0.  1.
         11    1    4    4    0    0  0.66710461242E+02  0.13286976197E+02 -0.66271613264E+02  0.94967131683E+02  0.00000000000E+00 0. -1.
</event>
<event>
 8    1  0.6692409E-009  0.1453817E+03  0.7561462E-02  0.1206266E+00
         -2   -1    0    0    0  501 -0.00000000000E+00  0.00000000000E+00  0.13984952484E+02  0.13984952484E+02  0.00000000000E+00 0.  1.
          2   -1    0    0  501    0  0.00000000000E+00 -0.00000000000E+00 -0.24609665610E+04  0.24609665610E+04  0.00000000000E+00 0. -1.
         25    2    1    2    0    0 -0.69307372607E+02 -0.96676025111E+02 -0.18956326433E+04  0.19034759183E+04  0.12509071755E+03 0.  0.
         23    2    1    2    0    0  0.69307372607E+02  0.96676025111E+02 -0.55134896525E+03  0.57147559518E+03  0.91917945343E+02 0.  0.
          5    1    3    3  502    0 -0.20327439426E+02 -0.90274304095E+02 -0.16650526196E+04  0.16676271625E+04  0.41800000000E+01 0.  1.
         -5    1    3    3    0  502 -0.48979933181E+02 -0.64017210163E+01 -0.23058002372E+03  0.23584875583E+03  0.41800000000E+01 0.  1.
        -11    1    4    4    0    0  0.88568954526E+02  0.93935304898E+02 -0.44450510137E+03  0.46287480636E+03  0.00000000000E+00 0. -1.
         11    1    4    4    0    0 -0.19261581919E+02  0.27407202133E+01 -0.10684386388E+03  0.10860078883E+03  0.00000000000E+00 0.  1.
</event>
<event>
 8    1  0.6692409E-009  0.1460294E+03  0.7561462E-02  0.1205439E+00
         -1   -1    0    0    0  501 -0.00000000000E+00  0.00000000000E+00  0.94619030274E+02  0.94619030274E+02  0.00000000000E+00 0.  1.
          1   -1    0    0  501    0  0.00000000000E+00 -0.00000000000E+00 -0.23113142610E+03  0.23113142610E+03  0.00000000000E+00 0. -1.
         25    2    1    2    0    0  0.81916353575E+02  0.54419425270E+02 -0.61905092262E+02  0.17072503711E+03  0.12507211927E+03 0.  0.
         23    2    1    2    0    0 -0.81916353575E+02 -0.54419425270E+02 -0.74607303559E+02  0.15502541926E+03  0.93780957788E+02 0.  0.
          5    1    3    3  502    0  0.60822747418E+02 -0.30983192607E+02 -0.11790331078E+02  0.69396319316E+02  0.41800000000E+01 0. -1.
         -5    1    3    3    0  502  0.21093606156E+02  0.85402617876E+02 -0.50114761184E+02  0.10132871779E+03  0.41800000000E+01 0. -1.
        -11    1    4    4    0    0 -0.51658313235E+02 -0.80504526620E+02 -0.47954473074E+02  0.10700089542E+03  0.00000000000E+00 0.  1.
         11    1    4    4    0    0 -0.30258040339E+02  0.26085101350E+02 -0.26652830485E+02  0.48024523844E+02  0.00000000000E+00 0. -1.
</event>
<event>
 8    1  0.6692409E-009  0.1177895E+03  0.7561462E-02  0.1246789E+00
         -1   -1    0    0    0  501 -0.00000000000E+00  0.00000000000E+00  0.24028491857E+02  0.24028491857E+02  0.00000000000E+00 0.  1.
          1   -1    0    0  501    0  0.00000000000E+00 -0.00000000000E+00 -0.78258179630E+03  0.78258179630E+03  0.00000000000E+00 0. -1.
         25    2    1    2    0    0  0.54786106085E+02 -0.57701376083E+02 -0.48432661717E+03  0.50650826391E+03  0.12508950034E+03 0.  0.
         23    2    1    2    0    0 -0.54786106085E+02  0.57701376083E+02 -0.27422668727E+03  0.30010202424E+03  0.92357905552E+02 0.  0.
          5    1    3    3  502    0  0.66861651230E+02  0.16965230276E+01 -0.12264625054E+03  0.13976027250E+03  0.41800000000E+01 0. -1.
         -5    1    3    3    0  502 -0.12075545145E+02 -0.59397899111E+02 -0.36168036662E+03  0.36674799142E+03  0.41800000000E+01 0. -1.
        -11    1    4    4    0    0 -0.29075437149E+02  0.72521016345E+02 -0.12103903932E+03  0.14406640099E+03  0.00000000000E+00 0.  1.
         11    1    4    4    0    0 -0.25710668937E+02 -0.14819640262E+02 -0.15318764796E+03  0.15603562325E+03  0.00000000000E+00 0. -1.
</event>
<event>
 8    1  0.6692409E-009  0.8127983E+02  0.7561462E-02  0.1325458E+00
         -1   -1    0    0    0  501 -0.00000000000E+00  0.00000000000E+00  0.19901291308E+03  0.19901291308E+03  0.00000000000E+00 0.  1.
          1   -1    0    0  501    0  0.00000000000E+00 -0.00000000000E+00 -0.63536145375E+02  0.63536145375E+02  0.00000000000E+00 0. -1.
         25    2    1    2    0    0  0.29364864688E+02 -0.33725927646E+01  0.73769716600E+02  0.14818831481E+03  0.12507652017E+03 0.  0.
         23    2    1    2    0    0 -0.29364864688E+02  0.33725927646E+01  0.61707051106E+02  0.11436074365E+03  0.91634872575E+02 0.  0.
          5    1    3    3  502    0 -0.82468752259E+01 -0.39921811519E+02  0.85026499765E+02  0.94386122117E+02  0.41800000000E+01 0. -1.
         -5    1    3    3    0  502  0.37611739913E+02  0.36549218755E+02 -0.11256783165E+02  0.53802192689E+02  0.41800000000E+01 0. -1.
        -11    1    4    4    0    0 -0.20393325551E+02 -0.28957576488E+02 -0.86097549198E+01  0.36449373696E+02  0.00000000000E+00 0. -1.
         11    1    4    4    0    0 -0.89715391368E+01  0.32330169253E+02  0.70316806026E+02  0.77911369953E+02  0.00000000000E+00 0.  1.
</event>
<event>
 8    1  0.6692409E-009  0.1250206E+03  0.7561462E-02  0.1235037E+00
         -1   -1    0    0    0  501 -0.00000000000E+00  0.00000000000E+00  0.15312158689E+02  0.15312158689E+02  0.00000000000E+00 0.  1.
          1   -1    0    0  501    0  0.00000000000E+00 -0.00000000000E+00 -0.15687433416E+04  0.15687433416E+04  0.00000000000E+00 0. -1.
         25    2    1    2    0    0 -0.69737382580E+02  0.12743576044E+02 -0.12790889906E+04  0.12871448300E+04  0.12508983304E+03 0.  0.
         23    2    1    2    0    0  0.69737382580E+02 -0.12743576044E+02 -0.27434219234E+03  0.29691067029E+03  0.88693891418E+02 0.  0.
          5    1    3    3  502    0  0.25373729207E+02  0.33928586291E+02 -0.26770050557E+03  0.27106458305E+03  0.41800000000E+01 0.  1.
         -5    1    3    3    0  502 -0.95111111787E+02 -0.21185010247E+02 -0.10113884850E+04  0.10160802469E+04  0.41800000000E+01 0.  1.
        -11    1    4    4    0    0  0.86597686440E+02  0.33035680456E+01 -0.24211289202E+03  0.25715506089E+03  0.00000000000E+00 0. -1.
         11    1    4    4    0    0 -0.16860303860E+02 -0.16047144090E+02 -0.32229300312E+02  0.39755609394E+02  0.00000000000E+00 0.  1.
</event>
<event>
 8    1  0.6692409E-009  0.1598949E+03  0.7561462E-02  0.1188815E+00
         -2   -1    0    0    0  501 -0.00000000000E+00  0.00000000000E+00  0.74135821641E+02  0.74135821641E+02  0.00000000000E+00 0.  1.
          2   -1    0    0  501    0  0.00000000000E+00 -0.00000000000E+00 -0.49847189587E+03  0.49847189587E+03  0.00000000000E+00 0. -1.
         25    2    1    2    0    0 -0.61180947070E+02  0.13601516687E+03 -0.15142718639E+03  0.24661243013E+03  0.12507703231E+03 0.  0.
         23    2    1    2    0    0  0.61180947070E+02 -0.13601516687E+03 -0.27290888784E+03  0.32599528739E+03  0.97726313933E+02 0.  0.
          5    1    3    3  502    0 -0.26587056978E+01  0.58944841745E+02  0.83788740525E+01  0.59743125251E+02  0.41800000000E+01 0.  1.
         -5    1    3    3    0  502 -0.58522241372E+02  0.77070325123E+02 -0.15980606045E+03  0.18686930488E+03  0.41800000000E+01 0.  1.
        -11    1    4    4    0    0  0.11833685478E+02  0.61165616885E+01  0.11323557885E+01  0.13369018981E+02  0.00000000000E+00 0.  1.
         11    1    4    4    0    0  0.49347261592E+02 -0.14213172856E+03 -0.27404124363E+03  0.31262626841E+03  0.00000000000E+00 0. -1.
</event>
<event>
 8    1  0.6692409E-009  0.1316665E+03  0.7561462E-02  0.1225004E+00
         -1   -1    0    0    0  501 -0.00000000000E+00  0.00000000000E+00  0.19106574791E+03  0.19106574791E+03  0.00000000000E+00 0.  1.
          1   -1    0    0  501    0  0.00000000000E+00 -0.00000000000E+00 -0.15710616271E+03  0.15710616271E+03  0.00000000000E+00 0. -1.
         25    2    1    2    0    0 -0.11465671004E+03 -0.14543125768E+02  0.88382003606E+02  0.19188612693E+03  0.12510492989E+03 0.  0.
         23    2    1    2    0    0  0.11465671004E+03  0.14543125768E+02 -0.54422418412E+02  0.15628578368E+03  0.90032121445E+02 0.  0.
          5    1    3    3  502    0 -0.82491958119E+02  0.20614683135E+02 -0.67566494254E+01  0.85399139495E+02  0.41800000000E+01 0.  1.
         -5    1    3    3    0  502 -0.32164751921E+02 -0.35157808903E+02  0.95138653031E+02  0.10648698744E+03  0.41800000000E+01 0.  1.
        -11    1    4    4    0    0  0.29779667754E+02  0.32000767976E+02  0.13972313738E+02  0.45892301248E+02  0.00000000000E+00 0.  1.
         11    1    4    4    0    0  0.84877042285E+02 -0.17457642209E+02 -0.68394732150E+02  0.11039348244E+03  0.00000000000E+00 0. -1.
</event>
<event>
 8    1  0.6692409E-009  0.1468947E+03  0.7561462E-02  0.1204342E+00
         -1   -1    0    0    0  501 -0.00000000000E+00  0.00000000000E+00  0.46774424698E+03  0.46774424698E+03  0.00000000000E+00 0.  1.
          1   -1    0    0  501    0  0.00000000000E+00 -0.00000000000E+00 -0.11334757455E+03  0.11334757455E+03  0.00000000000E+00 0. -1.
         25    2    1    2    0    0 -0.66568957663E+01  0.10496745906E+03  0.40213489620E+03  0.43406906372E+03  0.12506396609E+03 0.  0.
         23    2    1    2    0    0  0.66568957663E+01 -0.10496745906E+03 -0.47738223766E+02  0.14702275782E+03  0.90963023177E+02 0.  0.
          5    1    3    3  502    0 -0.62444495024E+02  0.75464073737E+02  0.20922286119E+03  0.23105371546E+03  0.41800000000E+01 0.  1.
         -5    1    3    3    0  502  0.55787599258E+02  0.29503385319E+02  0.19291203501E+03  0.20301534826E+03  0.41800000000E+01 0.  1.
        -11    1    4    4    0    0 -0.35100580865E+02 -0.68901810657E+02 -0.49508174121E+02  0.91818133251E+02  0.00000000000E+00 0. -1.
         11    1    4    4    0    0  0.41757476632E+02 -0.36065648399E+02  0.17699503547E+01  0.55204624565E+02  0.00000000000E+00 0.  1.
</event>
<event>
 8    1  0.6692409E-009  0.1192788E+03  0.7561462E-02  0.1244291E+00
          1   -1    0    0  501    0  0.00000000000E+00  0.00000000000E+00  0.10592131822E+03  0.10592131822E+03  0.00000000000E+00 0. -1.
         -1   -1    0    0    0  501 -0.00000000000E+00 -0.00000000000E+00 -0.15408803115E+03  0.15408803115E+03  0.00000000000E+00 0.  1.
         25    2    1    2    0    0 -0.11599754016E+02 -0.58194730878E+02  0.75027778069E+01  0.13866041875E+03  0.12509691866E+03 0.  0.
         23    2    1    2    0    0  0.11599754016E+02  0.58194730878E+02 -0.55669490737E+02  0.12134893063E+03  0.90029382819E+02 0.  0.
          5    1    3    3  502    0  0.13679891985E+02  0.36204397569E+02  0.12020405351E+02  0.40741384277E+02  0.41800000000E+01 0.  1.
         -5    1    3    3    0  502 -0.25279646001E+02 -0.94399128447E+02 -0.45176275444E+01  0.97919034472E+02  0.41800000000E+01 0.  1.
        -11    1    4    4    0    0  0.18270162772E+02 -0.17812170452E+02  0.21649402244E+01  0.25607796275E+02  0.00000000000E+00 0. -1.
         11    1    4    4    0    0 -0.66704087555E+01  0.76006901330E+02 -0.57834430961E+02  0.95741134354E+02  0.00000000000E+00 0.  1.
</event>
<event>
 8    1  0.6692409E-009  0.8502387E+02  0.7561462E-02  0.1315370E+00
         -1   -1    0    0    0  501 -0.00000000000E+00  0.00000000000E+00  0.11095554867E+03  0.11095554867E+03  0.00000000000E+00 0.  1.
          1   -1    0    0  501    0  0.00000000000E+00 -0.00000000000E+00 -0.90807810746E+02  0.90807810746E+02  0.00000000000E+00 0. -1.
         25    2    1    2    0    0 -0.11447765706E+02  0.31130649562E+02  0.74473742816E+01  0.12962908540E+03  0.12509223683E+03 0.  0.
         23    2    1    2    0    0  0.11447765706E+02 -0.31130649562E+02  0.12700363642E+02  0.72134274017E+02  0.62784437319E+02 0.  0.
          5    1    3    3  502    0  0.52626024689E+00 -0.47136630971E+02 -0.10175327854E+02  0.48406080466E+02  0.41800000000E+01 0. -1.
         -5    1    3    3    0  502 -0.11974025953E+02  0.78267280533E+02  0.17622702135E+02  0.81223004932E+02  0.41800000000E+01 0. -1.
        -11    1    4    4    0    0 -0.94180898716E+01 -0.92823868780E+01  0.33124742798E+02  0.35666675040E+02  0.00000000000E+00 0.  1.
         11    1    4    4    0    0  0.20865855577E+02 -0.21848262684E+02 -0.20424379155E+02  0.36467598977E+02  0.00000000000E+00 0. -1.
</event>
<event>
 8    1  0.6692409E-009  0.1101334E+03  0.7561462E-02  0.1260323E+00
          1   -1    0    0  501    0  0.00000000000E+00  0.00000000000E+00  0.10169267462E+04  0.10169267462E+04  0.00000000000E+00 0. -1.
         -1   -1    0    0    0  501 -0.00000000000E+00 -0.00000000000E+00 -0.14946505108E+02  0.14946505108E+02  0.00000000000E+00 0.  1.
         25    2    1    2    0    0  0.42959944574E+01  0.34900216247E+02  0.75563727385E+03  0.76672761070E+03  0.12508820370E+03 0.  0.
         23    2    1    2    0    0 -0.42959944574E+01 -0.34900216247E+02  0.24634296722E+03  0.26514564059E+03  0.91547105715E+02 0.  0.
          5    1    3    3  502    0  0.12824960729E+02  0.77466902733E+02  0.34849218015E+03  0.35725323324E+03  0.41800000000E+01 0.  1.
         -5    1    3    3    0  502 -0.85289662715E+01 -0.42566686486E+02  0.40714509371E+03  0.40947437746E+03  0.41800000000E+01 0.  1.
        -11    1    4    4    0    0  0.43646311081E+02 -0.15965948721E+02  0.11268812734E+03  0.12189555379E+03  0.00000000000E+00 0. -1.
         11    1    4    4    0    0 -0.47942305538E+02 -0.18934267526E+02  0.13365483988E+03  0.14325008681E+03  0.00000000000E+00 0.  1.
</event>
<event>
 8    1  0.6692409E-009  0.9511523E+02  0.7561462E-02  0.1290917E+00
          2   -1    0    0  501    0  0.00000000000E+00  0.00000000000E+00  0.11572685994E+04  0.11572685994E+04  0.00000000000E+00 0. -1.
         -2   -1    0    0    0  501 -0.00000000000E+00 -0.00000000000E+00 -0.14850607797E+02  0.14850607797E+02  0.00000000000E+00 0.  1.
         25    2    1    2    0    0  0.44428206601E+02  0.31535230289E+02  0.85462798288E+03  0.86545107176E+03  0.12509289427E+03 0.  0.
         23    2    1    2    0    0 -0.44428206601E+02 -0.31535230289E+02  0.28779000875E+03  0.30666813547E+03  0.90851086299E+02 0.  0.
          5    1    3    3  502    0  0.80626011819E+02  0.40955704344E+01  0.68657201955E+03  0.69131464465E+03  0.41800000000E+01 0.  1.
         -5    1    3    3    0  502 -0.36197805218E+02  0.27439659855E+02  0.16805596333E+03  0.17413642711E+03  0.41800000000E+01 0.  1.
        -11    1    4    4    0    0 -0.46311536236E+02 -0.17329319045E+02  0.28812177187E+03  0.29233408819E+03  0.00000000000E+00 0. -1.
         11    1    4    4    0    0  0.18833296341E+01 -0.14205911244E+02 -0.33176311930E+00  0.14334047284E+02  0.00000000000E+00 0.  1.
</event>
<event>
 8    1  0.6692409E-009  0.1894266E+03  0.7561462E-02  0.1158979E+00
         -2   -1    0    0    0  501 -0.00000000000E+00  0.00000000000E+00  0.86879084782E+02  0.86879084782E+02  0.00000000000E+00 0.  1.
          2   -1    0    0  501    0  0.00000000000E+00 -0.00000000000E+00 -0.45422493091E+03  0.45422493091E+03  0.00000000000E+00 0. -1.
         25    2    1    2    0    0 -0.93304991853E+02  0.14168661251E+03 -0.17434768785E+03  0.27354161538E+03  0.12508789476E+03 0.  0.
         23    2    1    2    0    0  0.93304991853E+02 -0.14168661251E+03 -0.19299815828E+03  0.26756240032E+03  0.74568299538E+02 0.  0.
          5    1    3    3  502    0 -0.26961030241E+01 -0.16272636866E+02  0.51834153925E+01  0.17787857578E+02  0.41800000000E+01 0.  1.
         -5    1    3    3    0  502 -0.90608888829E+02  0.15795924937E+03 -0.17953110324E+03  0.25575375780E+03  0.41800000000E+01 0.  1.
        -11    1    4    4    0    0  0.33042460881E+02 -0.10277026819E+03 -0.82699978567E+02  0.13598830354E+03  0.00000000000E+00 0.  1.
         11    1    4    4    0    0  0.60262530972E+02 -0.38916344314E+02 -0.11029817972E+03  0.13157409678E+03  0.00000000000E+00 0. -1.
</event>
<event>
 8    1  0.6692409E-009  0.1085509E+03  0.7561462E-02  0.1263277E+00
         -4   -1    0    0    0  501 -0.00000000000E+00  0.00000000000E+00  0.58097677758E+02  0.58097677758E+02  0.00000000000E+00 0. -1.
          4   -1    0    0  501    0  0.00000000000E+00 -0.00000000000E+00 -0.85158766987E+03  0.85158766987E+03  0.00000000000E+00 0.  1.
         25    2    1    2    0    0 -0.29470032686E+02 -0.94710446630E+02 -0.75129385303E+03  0.76806941835E+03  0.12509846632E+03 0.  0.
         23    2    1    2    0    0  0.29470032686E+02  0.94710446630E+02 -0.42196139087E+02  0.14161592928E+03  0.91847731302E+02 0.  0.
          5    1    3    3  502    0 -0.20050510743E+02 -0.66328994725E+02 -0.72414385101E+03  0.72746364024E+03  0.41800000000E+01 0. -1.
         -5    1    3    3    0  502 -0.94195219431E+01 -0.28381451905E+02 -0.27150002021E+02  0.40605778106E+02  0.41800000000E+01 0. -1.
        -11    1    4    4    0    0  0.49042131328E+02  0.58594027951E+02 -0.59697038187E+02  0.96964566338E+02  0.00000000000E+00 0.  1.
         11    1    4    4    0    0 -0.19572098642E+02  0.36116418679E+02  0.17500899101E+02  0.44651362944E+02  0.00000000000E+00 0. -1.
</event>
<event>
 8    1  0.6692409E-009  0.1131790E+03  0.7561462E-02  0.1254794E+00
          1   -1    0    0  501    0  0.00000000000E+00  0.00000000000E+00  0.48782867221E+03  0.48782867221E+03  0.00000000000E+00 0. -1.
         -1   -1    0    0    0  501 -0.00000000000E+00 -0.00000000000E+00 -0.38357983718E+02  0.38357983718E+02  0.00000000000E+00 0.  1.
         25    2    1    2    0    0 -0.68137488493E+02  0.29113437243E+02  0.31820906238E+03  0.34985203331E+03  0.12509647583E+03 0.  0.
         23    2    1    2    0    0  0.68137488493E+02 -0.29113437243E+02  0.13126162611E+03  0.17633462261E+03  0.91509426166E+02 0.  0.
          5    1    3    3  502    0  0.31956413486E+02 -0.12388052293E+02  0.52154566215E+02  0.62547960635E+02  0.41800000000E+01 0.  1.
         -5    1    3    3    0  502 -0.10009390198E+03  0.41501489536E+02  0.26605449617E+03  0.28730407268E+03  0.41800000000E+01 0.  1.
        -11    1    4    4    0    0  0.35972213389E+02 -0.35567295017E+02  0.13417961202E+03  0.14339874788E+03  0.00000000000E+00 0. -1.
         11    1    4    4    0    0  0.32165275104E+02  0.64538577742E+01 -0.29179859131E+01  0.32935874734E+02  0.00000000000E+00 0.  1.
</event>
<event>
 8    1  0.6692409E-009  0.3618689E+03  0.7561462E-02  0.1057846E+00
          2   -1    0    0  501    0  0.00000000000E+00  0.00000000000E+00  0.15806039290E+04  0.15806039290E+04  0.00000000000E+00 0.  1.
         -2   -1    0    0    0  501 -0.00000000000E+00 -0.00000000000E+00 -0.85570646040E+02  0.85570646040E+02  0.00000000000E+00 0. -1.
         25    2    1    2    0    0  0.24271894837E+03  0.25147417863E+03  0.71303211417E+03  0.80387469686E+03  0.12509189425E+03 0.  0.
         23    2    1    2    0    0 -0.24271894837E+03 -0.25147417863E+03  0.78200116878E+03  0.86229987816E+03  0.99415801031E+02 0.  0.
          5    1    3    3  502    0  0.16090952022E+03  0.79510120399E+02  0.31368680788E+03  0.36142858047E+03  0.41800000000E+01 0. -1.
         -5    1    3    3    0  502  0.81809428156E+02  0.17196405823E+03  0.39934530629E+03  0.44244611640E+03  0.41800000000E+01 0. -1.
        -11    1    4    4    0    0 -0.72409239181E+02 -0.11309235333E+03  0.20590699226E+03  0.24582649931E+03  0.00000000000E+00 0. -1.
         11    1    4    4    0    0 -0.17030970919E+03 -0.13838182529E+03  0.57609417652E+03  0.61647337886E+03  0.00000000000E+00 0.  1.
</event>
<event>
 8    1  0.6692409E-009  0.1252647E+03  0.7561462E-02  0.1234656E+00
         -2   -1    0    0    0  501 -0.00000000000E+00  0.00000000000E+00  0.14469353811E+03  0.14469353811E+03  0.00000000000E+00 0.  1.
          2   -1    0    0  501    0  0.00000000000E+00 -0.00000000000E+00 -0.19092216881E+03  0.19092216881E+03  0.00000000000E+00 0. -1.
         25    2    1    2    0    0 -0.39131397083E+02 -0.11631590156E+03 -0.53103552867E+01  0.17531616083E+03  0.12508757404E+03 0.  0.
         23    2    1    2    0    0  0.39131397083E+02  0.11631590156E+03 -0.40918275414E+02  0.16029954610E+03  0.94662474203E+02 0.  0.
          5    1    3    3  502    0 -0.21336856324E+02 -0.90659177722E+02 -0.60944359123E+02  0.11138238304E+03  0.41800000000E+01 0.  1.
         -5    1    3    3    0  502 -0.17794540760E+02 -0.25656723842E+02  0.55634003837E+02  0.63933777786E+02  0.41800000000E+01 0.  1.
        -11    1    4    4    0    0 -0.17443310444E+01  0.32485266476E+02  0.29122430229E+02  0.43662926737E+02  0.00000000000E+00 0.  1.
         11    1    4    4    0    0  0.40875728128E+02  0.83830635088E+02 -0.70040705643E+02  0.11663661936E+03  0.00000000000E+00 0. -1.
</event>
<event>
 8    1  0.6692409E-009  0.1019559E+03  0.7561462E-02  0.1276236E+00
          4   -1    0    0  501    0  0.00000000000E+00  0.00000000000E+00  0.36121758548E+02  0.36121758548E+02  0.00000000000E+00 0. -1.
         -4   -1    0    0    0  501 -0.00000000000E+00 -0.00000000000E+00 -0.40984537282E+03  0.40984537282E+03  0.00000000000E+00 0.  1.
         25    2    1    2    0    0  0.37187461496E+02  0.21521180997E+02 -0.27167266578E+03  0.30215239964E+03  0.12507584401E+03 0.  0.
         23    2    1    2    0    0 -0.37187461496E+02 -0.21521180997E+02 -0.10205094849E+03  0.14381473172E+03  0.91772612734E+02 0.  0.
          5    1    3    3  502    0 -0.40544819191E+02  0.31172450292E+01 -0.15769037898E+03  0.16290281643E+03  0.41800000000E+01 0.  1.
         -5    1    3    3    0  502  0.77732280688E+02  0.18403935968E+02 -0.11398228680E+03  0.13924958321E+03  0.41800000000E+01 0.  1.
        -11    1    4    4    0    0 -0.33437162123E+02 -0.46782943950E+02 -0.25111928208E+02  0.62747881190E+02  0.00000000000E+00 0. -1.
         11    1    4    4    0    0 -0.37502993735E+01  0.25261762953E+02 -0.76939020286E+02  0.81066850534E+02  0.00000000000E+00 0.  1.
</event>
<event>
 7    1  0.6692409E-009  0.1097581E+03  0.7561462E-02  0.1261018E+00
         -1   -1    0    0    0  501 -0.00000000000E+00  0.00000000000E+00  0.34342286138E+02  0.34342286138E+02  0.00000000000E+00 0.  1.
          1   -1    0    0  501    0  0.00000000000E+00 -0.00000000000E+00 -0.59280317540E+03  0.59280317540E+03  0.00000000000E+00 0. -1.
         23    2    1    2    0    0 -0.26371433142E+02  0.36867380993E+02 -0.80709626447E+02  0.13123182302E+03  0.93021993655E+02 0.  0.
          5    1    1    2  502    0 -0.44143119127E+02 -0.33269689812E+02 -0.13495640410E+03  0.14589787742E+03  0.41800000000E+01 0.  1.
         -5    1    1    2    0  502  0.70514552268E+02 -0.35976911806E+01 -0.34279485871E+03  0.35001576110E+03  0.41800000000E+01 0.  1.
        -11    1    3    3    0    0 -0.32502072357E+02 -0.18666408819E+02 -0.61743358010E+02  0.72229230814E+02  0.00000000000E+00 0. -1.
         11    1    3    3    0    0  0.61306392154E+01  0.55533789811E+02 -0.18966268438E+02  0.59002592201E+02  0.00000000000E+00 0.  1.
</event>
<event>
 8    1  0.6692409E-009  0.9833916E+02  0.7561462E-02  0.1283828E+00
         -4   -1    0    0    0  501 -0.00000000000E+00  0.00000000000E+00  0.41294281291E+03  0.41294281291E+03  0.00000000000E+00 0.  1.
          4   -1    0    0  501    0  0.00000000000E+00 -0.00000000000E+00 -0.26635594881E+02  0.26635594881E+02  0.00000000000E+00 0. -1.
         25    2    1    2    0    0 -0.36397446772E+01 -0.54645540734E+00  0.29815595564E+03  0.32335162267E+03  0.12508297904E+03 0.  0.
         23    2    1    2    0    0  0.36397446772E+01  0.54645540734E+00  0.88151262393E+02  0.11622678512E+03  0.75660254847E+02 0.  0.
          5    1    3    3  502    0 -0.56122985445E+02  0.26112741575E+02  0.11162374676E+03  0.12770668741E+03  0.41800000000E+01 0. -1.
         -5    1    3    3    0  502  0.52483240767E+02 -0.26659196982E+02  0.18653220887E+03  0.19564493526E+03  0.41800000000E+01 0. -1.
        -11    1    4    4    0    0  0.30689395184E+02  0.24672294981E+02  0.42533749462E+02  0.57962754935E+02  0.00000000000E+00 0. -1.
         11    1    4    4    0    0 -0.27049650507E+02 -0.24125839573E+02  0.45617512931E+02  0.58264030187E+02  0.00000000000E+00 0.  1.
</event>
<event>
 8    1  0.6692409E-009  0.1103997E+03  0.7561462E-02  0.1259831E+00
          1   -1    0    0  501    0  0.00000000000E+00  0.00000000000E+00  0.32218180365E+03  0.32218180365E+03  0.00000000000E+00 0. -1.
         -1   -1    0    0    0  501 -0.00000000000E+00 -0.00000000000E+00 -0.47644268956E+02  0.47644268956E+02  0.00000000000E+00 0.  1.
         25    2    1    2    0    0  0.29100360911E+02 -0.36576615005E+02  0.21231744930E+03  0.25081807335E+03  0.12508527839E+03 0.  0.
         23    2    1    2    0    0 -0.29100360911E+02  0.36576615005E+02  0.62220085398E+02  0.11900799926E+03  0.90038242379E+02 0.  0.
          5    1    3    3  502    0  0.78198014010E+02 -0.29810157357E+02  0.13409911401E+03  0.15812532895E+03  0.41800000000E+01 0. -1.
         -5    1    3    3    0  502 -0.49097653099E+02 -0.67664576480E+01  0.78218335289E+02  0.92692744400E+02  0.41800000000E+01 0. -1.
        -11    1    4    4    0    0 -0.40856632272E+02 -0.75986759627E+01  0.60327724209E+02  0.73255979860E+02  0.00000000000E+00 0. -1.
         11    1    4    4    0    0  0.11756271362E+02  0.44175290967E+02  0.18923611893E+01  0.45752019401E+02  0.00000000000E+00 0.  1.
</event>
<event>
 8    1  0.6692409E-009  0.1071671E+03  0.7561462E-02  0.1265908E+00
         -1   -1    0    0    0  501 -0.00000000000E+00  0.00000000000E+00  0.26013025920E+02  0.26013025920E+02  0.00000000000E+00 0.  1.
          1   -1    0    0  501    0  0.00000000000E+00 -0.00000000000E+00 -0.52977656026E+03  0.52977656026E+03  0.00000000000E+00 0. -1.
         25    2    1    2    0    0 -0.24093151718E+02 -0.85646960592E+01 -0.19906550665E+03  0.23649208779E+03  0.12509035803E+03 0.  0.
         23    2    1    2    0    0  0.24093151718E+02  0.85646960592E+01 -0.30469802769E+03  0.31929749839E+03  0.91957438090E+02 0.  0.
          5    1    3    3  502    0  0.23536943151E+02  0.43212483717E+02 -0.12427398817E+03  0.13372659787E+03  0.41800000000E+01 0.  1.
         -5    1    3    3    0  502 -0.47630094869E+02 -0.51777179776E+02 -0.74791518483E+02  0.10276548993E+03  0.41800000000E+01 0.  1.
        -11    1    4    4    0    0  0.30209805002E+02 -0.37415000423E+02 -0.13230713039E+03  0.14077532215E+03  0.00000000000E+00 0. -1.
         11    1    4    4    0    0 -0.61166532841E+01  0.45979696482E+02 -0.17239089731E+03  0.17852217624E+03  0.00000000000E+00 0.  1.
</event>
<event>
 8    1  0.6692409E-009  0.1315197E+03  0.7561462E-02  0.1225218E+00
          1   -1    0    0  501    0  0.00000000000E+00  0.00000000000E+00  0.58527736184E+03  0.58527736184E+03  0.00000000000E+00 0. -1.
         -1   -1    0    0    0  501 -0.00000000000E+00 -0.00000000000E+00 -0.33477472538E+02  0.33477472538E+02  0.00000000000E+00 0.  1.
         25    2    1    2    0    0 -0.68722162290E+02 -0.38713359645E+02  0.21376886424E+03  0.25993306935E+03  0.12508642379E+03 0.  0.
         23    2    1    2    0    0  0.68722162290E+02  0.38713359645E+02  0.33803102506E+03  0.35882176503E+03  0.90920984116E+02 0.  0.
          5    1    3    3  502    0  0.21957310953E+02 -0.46964122038E+02  0.48096114481E+02  0.70841096061E+02  0.41800000000E+01 0.  1.
         -5    1    3    3    0  502 -0.90679473242E+02  0.82507623923E+01  0.16567274976E+03  0.18909197329E+03  0.41800000000E+01 0.  1.
        -11    1    4    4    0    0  0.57184616665E+02 -0.19587369970E+02  0.15428208721E+03  0.16570065745E+03  0.00000000000E+00 0.  1.
         11    1    4    4    0    0  0.11537545625E+02  0.58300729615E+02  0.18374893785E+03  0.19312110758E+03  0.00000000000E+00 0. -1.
</event>
<event>
 8    1  0.6692409E-009  0.1656787E+03  0.7561462E-02  0.1182431E+00
          1   -1    0    0  501    0  0.00000000000E+00  0.00000000000E+00  0.51135670175E+02  0.51135670175E+02  0.00000000000E+00 0. -1.
         -1   -1    0    0    0  501 -0.00000000000E+00 -0.00000000000E+00 -0.76293927649E+03  0.76293927649E+03  0.00000000000E+00 0.  1.
         25    2    1    2    0    0  0.14047619266E+03 -0.61344901950E+02 -0.24908106677E+03  0.31809643736E+03  0.12508880023E+03 0.  0.
         23    2    1    2    0    0 -0.14047619266E+03  0.61344901950E+02 -0.46272253955E+03  0.49597850930E+03  0.91573879390E+02 0.  0.
          5    1    3    3  502    0  0.58308085799E+02 -0.25180178669E+02 -0.21117269634E+03  0.22055669191E+03  0.41800000000E+01 0. -1.
         -5    1    3    3    0  502  0.82168106856E+02 -0.36164723281E+02 -0.37908370427E+02  0.97539745451E+02  0.41800000000E+01 0. -1.
        -11    1    4    4    0    0 -0.20607308934E+02 -0.23290565417E+02 -0.99100189533E+02  0.10386510090E+03  0.00000000000E+00 0.  1.
         11    1    4    4    0    0 -0.11986888372E+03  0.84635467367E+02 -0.36362235002E+03  0.39211340841E+03  0.00000000000E+00 0. -1.
</event>
<event>
 8    1  0.6692409E-009  0.1016523E+03  0.7561462E-02  0.1276859E+00
         -1   -1    0    0    0  501 -0.00000000000E+00  0.00000000000E+00  0.36253401729E+03  0.36253401729E+03  0.00000000000E+00 0.  1.
          1   -1    0    0  501    0  0.00000000000E+00 -0.00000000000E+00 -0.57658535780E+02  0.57658535780E+02  0.00000000000E+00 0. -1.
         25    2    1    2    0    0 -0.89864386829E+02 -0.52142600717E+01  0.11517414816E+03  0.19239446275E+03  0.12509096035E+03 0.  0.
         23    2    1    2    0    0  0.89864386829E+02  0.52142600717E+01  0.18970133334E+03  0.22779809032E+03  0.88332199979E+02 0.  0.
          5    1    3    3  502    0 -0.43738484967E+02  0.19898236443E+02  0.12917039578E+03  0.13788204534E+03  0.41800000000E+01 0. -1.
         -5    1    3    3    0  502 -0.46125901862E+02 -0.25112496515E+02 -0.13996247621E+02  0.54512417404E+02  0.41800000000E+01 0. -1.
        -11    1    4    4    0    0  0.28143012920E+02 -0.21215752909E+02  0.13971583952E+03  0.14409251598E+03  0.00000000000E+00 0.  1.
         11    1    4    4    0    0  0.61721373909E+02  0.26430012981E+02  0.49985493823E+02  0.83705574343E+02  0.00000000000E+00 0. -1.
</event>
<event>
 8    1  0.6692409E-009  0.1487418E+03  0.7561462E-02  0.1202028E+00
          2   -1    0    0  501    0  0.00000000000E+00  0.00000000000E+00  0.36019947639E+03  0.36019947639E+03  0.00000000000E+00 0.  1.
         -2   -1    0    0    0  501 -0.00000000000E+00 -0.00000000000E+00 -0.76991481664E+02  0.76991481664E+02  0.00000000000E+00 0. -1.
         25    2    1    2    0    0  0.36540622852E+02  0.11987479969E+03  0.15235067960E+03  0.23358838432E+03  0.12509044326E+03 0.  0.
         23    2    1    2    0    0 -0.36540622852E+02 -0.11987479969E+03  0.13085731512E+03  0.20360257373E+03  0.92871881596E+02 0.  0.
          5    1    3    3  502    0  0.74768871078E+02  0.10858270160E+03  0.13830546923E+03  0.19111897444E+03  0.41800000000E+01 0. -1.
         -5    1    3    3    0  502 -0.38228248226E+02  0.11292098081E+02  0.14045210369E+02  0.42469409884E+02  0.41800000000E+01 0. -1.
        -11    1    4    4    0    0 -0.31504740423E+02 -0.93914030374E+02  0.36432956116E+02  0.10554503333E+03  0.00000000000E+00 0. -1.
         11    1    4    4    0    0 -0.50358824288E+01 -0.25960769311E+02  0.94424359005E+02  0.98057540397E+02  0.00000000000E+00 0.  1.
</event>
<event>
 8    1  0.6692409E-009  0.1143635E+03  0.7561462E-02  0.1252696E+00
          1   -1    0    0  501    0  0.00000000000E+00  0.00000000000E+00  0.70962681722E+03  0.70962681722E+03  0.00000000000E+00 0. -1.
         -1   -1    0    0    0  501 -0.00000000000E+00 -0.00000000000E+00 -0.20461449672E+02  0.20461449672E+02  0.00000000000E+00 0.  1.
         25    2    1    2    0    0 -0.25120672620E+02 -0.39325613468E+02  0.46748132000E+03  0.48617071575E+03  0.12508248573E+03 0.  0.
         23    2    1    2    0    0  0.25120672620E+02  0.39325613468E+02  0.22168404756E+03  0.24391755115E+03  0.90412403742E+02 0.  0.
          5    1    3    3  502    0  0.42502493061E+02 -0.45104293033E+02  0.27807983511E+03  0.28493284518E+03  0.41800000000E+01 0.  1.
         -5    1    3    3    0  502 -0.67623165681E+02  0.57786795648E+01  0.18940148489E+03  0.20123787057E+03  0.41800000000E+01 0.  1.
        -11    1    4    4    0    0 -0.30246107234E+02 -0.76516122118E+00  0.42771915208E+02  0.52391308488E+02  0.00000000000E+00 0. -1.
         11    1    4    4    0    0  0.55366779855E+02  0.40090774689E+02  0.17891213235E+03  0.19152624266E+03  0.00000000000E+00 0.  1.
</event>
<event>
 8    1  0.6692409E-009  0.9323570E+02  0.7561462E-02  0.1295200E+00
          3   -1    0    0  501    0  0.00000000000E+00  0.00000000000E+00  0.64437282436E+03  0.64437282436E+03  0.00000000000E+00 0. -1.
         -3   -1    0    0    0  501 -0.00000000000E+00 -0.00000000000E+00 -0.26994405877E+02  0.26994405877E+02  0.00000000000E+00 0.  1.
         25    2    1    2    0    0 -0.60819453035E+02  0.17416808982E+02  0.43393044726E+03  0.45601224161E+03  0.12509668395E+03 0.  0.
         23    2    1    2    0    0  0.60819453035E+02 -0.17416808982E+02  0.18344797122E+03  0.21535498862E+03  0.93393050479E+02 0.  0.
          5    1    3    3  502    0 -0.64519014850E+02  0.20964988288E+01  0.43489356119E+03  0.43967826937E+03  0.41800000000E+01 0. -1.
         -5    1    3    3    0  502  0.36995618153E+01  0.15320310153E+02 -0.96311393402E+00  0.16333972244E+02  0.41800000000E+01 0. -1.
        -11    1    4    4    0    0  0.25445930751E+02 -0.50814045418E+02  0.13601510895E+03  0.14740987914E+03  0.00000000000E+00 0. -1.
         11    1    4    4    0    0  0.35373522284E+02  0.33397236436E+02  0.47432862268E+02  0.67945109487E+02  0.00000000000E+00 0.  1.
</event>
<event>
 8    1  0.6692409E-009  0.1606358E+03  0.7561462E-02  0.1187981E+00
         -1   -1    0    0    0  501 -0.00000000000E+00  0.00000000000E+00  0.36675381085E+02  0.36675381085E+02  0.00000000000E+00 0.  1.
          1   -1    0    0  501    0  0.00000000000E+00 -0.00000000000E+00 -0.92703204410E+03  0.92703204410E+03  0.00000000000E+00 0. -1.
         25    2    1    2    0    0 -0.81128228533E+02 -0.96270384018E+02 -0.25995610778E+03  0.31476062631E+03  0.12508915861E+03 0.  0.
         23    2    1    2    0    0  0.81128228533E+02  0.96270384018E+02 -0.63040055524E+03  0.64894679887E+03  0.88754219162E+02 0.  0.
          5    1    3    3  502    0  0.25742880294E+02 -0.54357992171E+02 -0.66433275478E+02  0.89712539198E+02  0.41800000000E+01 0.  1.
         -5    1    3    3    0  502 -0.10687110883E+03 -0.41912391847E+02 -0.19352283230E+03  0.22504808711E+03  0.41800000000E+01 0.  1.
        -11    1    4    4    0    0  0.13201472483E+02  0.73185742538E+02 -0.42302801816E+03  0.42951500083E+03  0.00000000000E+00 0. -1.
         11    1    4    4    0    0  0.67926756049E+02  0.23084641481E+02 -0.20737253707E+03  0.21943179804E+03  0.00000000000E+00 0.  1.
</event>
<event>
 8    1  0.6692409E-009  0.1078416E+03  0.7561462E-02  0.1264620E+00
          1   -1    0    0  501    0  0.00000000000E+00  0.00000000000E+00  0.23879208420E+03  0.23879208420E+03  0.00000000000E+00 0. -1.
         -1   -1    0    0    0  501 -0.00000000000E+00 -0.00000000000E+00 -0.65215766368E+02  0.65215766368E+02  0.00000000000E+00 0.  1.
         25    2    1    2    0    0 -0.51766190844E+02 -0.24942483362E+02  0.87383247608E+02  0.16304543448E+03  0.12508443448E+03 0.  0.
         23    2    1    2    0    0  0.51766190844E+02  0.24942483362E+02  0.86193070227E+02  0.14096241610E+03  0.95599641242E+02 0.  0.
          5    1    3    3  502    0 -0.79416184547E+02 -0.37176573279E+02  0.21419554603E+02  0.90362036764E+02  0.41800000000E+01 0.  1.
         -5    1    3    3    0  502  0.27649993703E+02  0.12234089917E+02  0.65963693006E+02  0.72683397711E+02  0.41800000000E+01 0.  1.
        -11    1    4    4    0    0  0.47212612267E+02 -0.20666419851E+02  0.10688513058E+02  0.52634361190E+02  0.00000000000E+00 0.  1.
         11    1    4    4    0    0  0.45535785776E+01  0.45608903213E+02  0.75504557169E+02  0.88328054906E+02  0.00000000000E+00 0. -1.
</event>
<event>
 8    1  0.6692409E-009  0.1516353E+03  0.7561462E-02  0.1198478E+00
         -1   -1    0    0    0  501 -0.00000000000E+00  0.00000000000E+00  0.27041274888E+02  0.27041274888E+02  0.00000000000E+00 0.  1.
          1   -1    0    0  501    0  0.00000000000E+00 -0.00000000000E+00 -0.11916860662E+04  0.11916860662E+04  0.00000000000E+00 0. -1.
         25    2    1    2    0    0  0.12184294477E+02  0.11033769408E+03 -0.91991275906E+03  0.93499174250E+03  0.12508881039E+03 0.  0.
         23    2    1    2    0    0 -0.12184294477E+02 -0.11033769408E+03 -0.24473203226E+03  0.28373559860E+03  0.91045365253E+02 0.  0.
          5    1    3    3  502    0  0.68596746328E+01  0.13474703616E+03 -0.84957348189E+03  0.86023042984E+03  0.41800000000E+01 0.  1.
         -5    1    3    3    0  502  0.53246198443E+01 -0.24409342080E+02 -0.70339277176E+02  0.74761312661E+02  0.41800000000E+01 0.  1.
        -11    1    4    4    0    0  0.37315721303E+02 -0.27130751968E+02 -0.67076853918E+02  0.81411578355E+02  0.00000000000E+00 0.  1.
         11    1    4    4    0    0 -0.49500015780E+02 -0.83206942110E+02 -0.17765517834E+03  0.20232402025E+03  0.00000000000E+00 0. -1.
</event>
<event>
 8    1  0.6692409E-009  0.9712754E+02  0.7561462E-02  0.1286455E+00
         -2   -1    0    0    0  501 -0.00000000000E+00  0.00000000000E+00  0.41465849808E+03  0.41465849808E+03  0.00000000000E+00 0.  1.
          2   -1    0    0  501    0  0.00000000000E+00 -0.00000000000E+00 -0.26566196421E+02  0.26566196421E+02  0.00000000000E+00 0. -1.
         25    2    1    2    0    0 -0.35576415235E+02  0.11259013347E+02  0.29957216277E+03  0.32677657791E+03  0.12508798688E+03 0.  0.
         23    2    1    2    0    0  0.35576415235E+02 -0.11259013347E+02  0.88520138889E+02  0.11444811659E+03  0.62210205752E+02 0.  0.
          5    1    3    3  502    0 -0.24947950022E+02 -0.54701547533E+02  0.17892235497E+03  0.18879973787E+03  0.41800000000E+01 0.  1.
         -5    1    3    3    0  502 -0.10628465213E+02  0.65960560881E+02  0.12064980780E+03  0.13797684004E+03  0.41800000000E+01 0.  1.
        -11    1    4    4    0    0  0.81387826653E+01  0.22276268090E+02  0.12162468007E+02  0.26653283687E+02  0.00000000000E+00 0. -1.
         11    1    4    4    0    0  0.27437632569E+02 -0.33535281437E+02  0.76357670882E+02  0.87794832903E+02  0.00000000000E+00 0.  1.
</event>
<event>
 8    1  0.6692409E-009  0.1015911E+03  0.7561462E-02  0.1276985E+00
          1   -1    0    0  501    0  0.00000000000E+00  0.00000000000E+00  0.69592546820E+03  0.69592546820E+03  0.00000000000E+00 0. -1.
         -1   -1    0    0    0  501 -0.00000000000E+00 -0.00000000000E+00 -0.20290626916E+02  0.20290626916E+02  0.00000000000E+00 0.  1.
         25    2    1    2    0    0 -0.12393950892E+02 -0.40980999237E+02  0.45707796836E+03  0.47581595777E+03  0.12508998438E+03 0.  0.
         23    2    1    2    0    0  0.12393950892E+02  0.40980999237E+02  0.21855687292E+03  0.24040013734E+03  0.90510038207E+02 0.  0.
          5    1    3    3  502    0 -0.43633786563E+02 -0.56112270379E+02  0.41520425615E+03  0.42126540440E+03  0.41800000000E+01 0.  1.
         -5    1    3    3    0  502  0.31239835672E+02  0.15131271142E+02  0.41873712212E+02  0.54550553376E+02  0.41800000000E+01 0.  1.
        -11    1    4    4    0    0  0.45842000975E+02  0.23287171964E+01  0.13344541017E+03  0.14111906133E+03  0.00000000000E+00 0.  1.
         11    1    4    4    0    0 -0.33448050083E+02  0.38652282040E+02  0.85111462755E+02  0.99281076009E+02  0.00000000000E+00 0. -1.
</event>
<event>
 8    1  0.6692409E-009  0.1389012E+03  0.7561462E-02  0.1214815E+00
         -3   -1    0    0    0  501 -0.00000000000E+00  0.00000000000E+00  0.54674295965E+03  0.54674295965E+03  0.00000000000E+00 0.  1.
          3   -1    0    0  501    0  0.00000000000E+00 -0.00000000000E+00 -0.44035977944E+02  0.44035977944E+02  0.00000000000E+00 0. -1.
         25    2    1    2    0    0  0.76001408892E+02 -0.71139581394E+02  0.20175282269E+03  0.25920628334E+03  0.12508653671E+03 0.  0.
         23    2    1    2    0    0 -0.76001408892E+02  0.71139581394E+02  0.30095415902E+03  0.33157265425E+03  0.92357809760E+02 0.  0.
          5    1    3    3  502    0  0.64652305625E+02  0.22233745343E+02  0.80759566565E+02  0.10589542033E+03  0.41800000000E+01 0.  1.
         -5    1    3    3    0  502  0.11349103267E+02 -0.93373326736E+02  0.12099325612E+03  0.15331086301E+03  0.41800000000E+01 0.  1.
        -11    1    4    4    0    0 -0.54947487047E+02  0.17719939357E+02  0.24385355533E+03  0.25059485037E+03  0.00000000000E+00 0.  1.
         11    1    4    4    0    0 -0.21053921844E+02  0.53419642037E+02  0.57100603683E+02  0.80977803880E+02  0.00000000000E+00 0. -1.
</event>
<event>
 8    1  0.6692409E-009  0.8189273E+02  0.7561462E-02  0.1323764E+00
          2   -1    0    0  501    0  0.00000000000E+00  0.00000000000E+00  0.24033450662E+03  0.24033450662E+03  0.00000000000E+00 0. -1.
         -2   -1    0    0    0  501 -0.00000000000E+00 -0.00000000000E+00 -0.54722152967E+02  0.54722152967E+02  0.00000000000E+00 0.  1.
         25    2    1    2    0    0  0.35200928158E+02  0.93886660962E+01  0.10926465963E+03  0.17001450677E+03  0.12505564471E+03 0.  0.
         23    2    1    2    0    0 -0.35200928158E+02 -0.93886660962E+01  0.76347694021E+02  0.12504215281E+03  0.92083208043E+02 0.  0.
          5    1    3    3  502    0  0.11378955284E+02 -0.22087898928E+02  0.12485152198E+03  0.12736848450E+03  0.41800000000E+01 0.  1.
         -5    1    3    3    0  502  0.23821972874E+02  0.31476565024E+02 -0.15586862355E+02  0.42646022269E+02  0.41800000000E+01 0.  1.
        -11    1    4    4    0    0 -0.22046720148E+02  0.41143414150E+02  0.32796009178E+02  0.57047494382E+02  0.00000000000E+00 0.  1.
         11    1    4    4    0    0 -0.13154208009E+02 -0.50532080247E+02  0.43551684844E+02  0.67994658431E+02  0.00000000000E+00 0. -1.
</event>
<event>
 8    1  0.6692409E-009  0.9417485E+02  0.7561462E-02  0.1293045E+00
         -2   -1    0    0    0  501 -0.00000000000E+00  0.00000000000E+00  0.25872390130E+02  0.25872390130E+02  0.00000000000E+00 0.  1.
          2   -1    0    0  501    0  0.00000000000E+00 -0.00000000000E+00 -0.49850474858E+03  0.49850474858E+03  0.00000000000E+00 0. -1.
         25    2    1    2    0    0  0.33303806752E+02  0.15440847514E+02 -0.25875293899E+03  0.28973798773E+03  0.12508978689E+03 0.  0.
         23    2    1    2    0    0 -0.33303806752E+02 -0.15440847514E+02 -0.21387941946E+03  0.23463915097E+03  0.89238790812E+02 0.  0.
          5    1    3    3  502    0  0.80645659343E+02  0.12757349836E+02 -0.18035994828E+03  0.19802438155E+03  0.41800000000E+01 0. -1.
         -5    1    3    3    0  502 -0.47341852591E+02  0.26834976781E+01 -0.78392990713E+02  0.91713606185E+02  0.41800000000E+01 0. -1.
        -11    1    4    4    0    0 -0.15528831400E+02  0.16362970720E+02 -0.56622314918E+01  0.23258380874E+02  0.00000000000E+00 0.  1.
         11    1    4    4    0    0 -0.17774975352E+02 -0.31803818233E+02 -0.20821718797E+03  0.21138077010E+03  0.00000000000E+00 0. -1.
</event>
<event>
 8    1  0.6692409E-009  0.1559987E+03  0.7561462E-02  0.1193290E+00
         -3   -1    0    0    0  501 -0.00000000000E+00  0.00000000000E+00  0.49613418273E+03  0.49613418273E+03  0.00000000000E+00 0.  1.
          3   -1    0    0  501    0  0.00000000000E+00 -0.00000000000E+00 -0.67971801894E+02  0.67971801894E+02  0.00000000000E+00 0. -1.
         25    2    1    2    0    0  0.13999471378E+03 -0.41095565397E+02  0.19186240104E+03  0.27156263267E+03  0.12509083560E+03 0.  0.
         23    2    1    2    0    0 -0.13999471378E+03  0.41095565397E+02  0.23629997980E+03  0.29254335195E+03  0.91959594049E+02 0.  0.
          5    1    3    3  502    0  0.10165456134E+03 -0.50657536645E+02  0.20089291579E+03  0.23081436670E+03  0.41800000000E+01 0. -1.
         -5    1    3    3    0  502  0.38340152440E+02  0.95619712481E+01 -0.90305147519E+01  0.40748265975E+02  0.41800000000E+01 0. -1.
        -11    1    4    4    0    0 -0.63292253870E+02  0.50981258396E+02  0.63199511092E+02  0.10295230114E+03  0.00000000000E+00 0. -1.
         11    1    4    4    0    0 -0.76702459907E+02 -0.98856929989E+01  0.17310046870E+03  0.18959105081E+03  0.00000000000E+00 0.  1.
</event>
<event>
 8    1  0.6692409E-009  0.2812550E+03  0.7561462E-02  0.1095005E+00
         -2   -1    0    0    0  501 -0.00000000000E+00  0.00000000000E+00  0.37305142980E+02  0.37305142980E+02  0.00000000000E+00 0.  1.
          2   -1    0    0  501    0  0.00000000000E+00 -0.00000000000E+00 -0.24746393766E+04  0.24746393766E+04  0.00000000000E+00 0. -1.
         25    2    1    2    0    0  0.19661576119E+03 -0.19478888412E+03 -0.98711969748E+03  0.10327885417E+04  0.12508560192E+03 0.  0.
         23    2    1    2    0    0 -0.19661576119E+03  0.19478888412E+03 -0.14502145361E+04  0.14791559778E+04  0.90441910173E+02 0.  0.
          5    1    3    3  502    0  0.11811472439E+03 -0.90659559594E+02 -0.72319201466E+03  0.73837280986E+03  0.41800000000E+01 0.  1.
         -5    1    3    3    0  502  0.78501036800E+02 -0.10412932452E+03 -0.26392768281E+03  0.29441573185E+03  0.41800000000E+01 0.  1.
        -11    1    4    4    0    0 -0.12275325630E+03  0.15937831257E+03 -0.11717632344E+04  0.11889065926E+04  0.00000000000E+00 0. -1.
         11    1    4    4    0    0 -0.73862504888E+02  0.35410571550E+02 -0.27845130171E+03  0.29024938523E+03  0.00000000000E+00 0.  1.
</event>
<event>
 8    1  0.6692409E-009  0.1057586E+03  0.7561462E-02  0.1268632E+00
          3   -1    0    0  501    0  0.00000000000E+00  0.00000000000E+00  0.37475044011E+02  0.37475044011E+02  0.00000000000E+00 0. -1.
         -3   -1    0    0    0  501 -0.00000000000E+00 -0.00000000000E+00 -0.35383761248E+03  0.35383761248E+03  0.00000000000E+00 0.  1.
         25    2    1    2    0    0  0.13668607258E+02  0.32872224818E+02 -0.15196712309E+03  0.20002268622E+03  0.12509058524E+03 0.  0.
         23    2    1    2    0    0 -0.13668607258E+02 -0.32872224818E+02 -0.16439544538E+03  0.19128997027E+03  0.91096521749E+02 0.  0.
          5    1    3    3  502    0 -0.22809384734E+02 -0.40208900004E+02 -0.39416392460E+02  0.60894565160E+02  0.41800000000E+01 0. -1.
         -5    1    3    3    0  502  0.36477991993E+02  0.73081124822E+02 -0.11255073063E+03  0.13912812106E+03  0.41800000000E+01 0. -1.
        -11    1    4    4    0    0  0.10206485970E+02 -0.51831773155E+02 -0.14696593529E+03  0.15617199237E+03  0.00000000000E+00 0.  1.
         11    1    4    4    0    0 -0.23875093228E+02  0.18959548337E+02 -0.17429510086E+02  0.35117977898E+02  0.00000000000E+00 0. -1.
</event>
<event>
 8    1  0.6692409E-009  0.1460154E+03  0.7561462E-02  0.1205457E+00
          1   -1    0    0  501    0  0.00000000000E+00  0.00000000000E+00  0.44301409317E+03  0.44301409317E+03  0.00000000000E+00 0. -1.
         -1   -1    0    0    0  501 -0.00000000000E+00 -0.00000000000E+00 -0.68564405260E+02  0.68564405260E+02  0.00000000000E+00 0.  1.
         25    2    1    2    0    0  0.13601047315E+03 -0.46235711407E+02  0.20325277535E+03  0.27856038103E+03  0.12509038884E+03 0.  0.
         23    2    1    2    0    0 -0.13601047315E+03  0.46235711407E+02  0.17119691257E+03  0.23301811740E+03  0.65973254793E+02 0.  0.
          5    1    3    3  502    0  0.52516221494E+01 -0.38738727330E+01 -0.17125889966E+02  0.18797737425E+02  0.41800000000E+01 0.  1.
         -5    1    3    3    0  502  0.13075885100E+03 -0.42361838674E+02  0.22037866531E+03  0.25976264361E+03  0.41800000000E+01 0.  1.
        -11    1    4    4    0    0 -0.30503162822E+02  0.24312368731E+02  0.90004570147E+02  0.98093612752E+02  0.00000000000E+00 0. -1.
         11    1    4    4    0    0 -0.10550731033E+03  0.21923342676E+02  0.81192342421E+02  0.13492450465E+03  0.00000000000E+00 0.  1.
</event>
<event>
 8    1  0.6692409E-009  0.9303392E+02  0.7561462E-02  0.1295667E+00
          1   -1    0    0  501    0  0.00000000000E+00  0.00000000000E+00  0.26443448781E+03  0.26443448781E+03  0.00000000000E+00 0. -1.
         -1   -1    0    0    0  501 -0.00000000000E+00 -0.00000000000E+00 -0.73853807360E+02  0.73853807360E+02  0.00000000000E+00 0.  1.
         25    2    1    2    0    0 -0.64251873345E+01  0.63357365318E+02  0.17983279454E+03  0.22812775785E+03  0.12508797359E+03 0.  0.
         23    2    1    2    0    0  0.64251873345E+01 -0.63357365318E+02  0.10747885911E+02  0.11016053732E+03  0.89243420819E+02 0.  0.
          5    1    3    3  502    0 -0.38647013571E+02  0.63478060261E+02  0.39864445269E+02  0.84437563851E+02  0.41800000000E+01 0. -1.
         -5    1    3    3    0  502  0.32221826236E+02 -0.12069494328E+00  0.13996834927E+03  0.14369019400E+03  0.41800000000E+01 0. -1.
        -11    1    4    4    0    0 -0.20495964497E+02 -0.26661983626E+02 -0.32939674173E+02  0.47074069998E+02  0.00000000000E+00 0.  1.
         11    1    4    4    0    0  0.26921151832E+02 -0.36695381692E+02  0.43687560084E+02  0.63086467325E+02  0.00000000000E+00 0. -1.
</event>
<event>
 8    1  0.6692409E-009  0.8592979E+02  0.7561462E-02  0.1313019E+00
         -1   -1    0    0    0  501 -0.00000000000E+00  0.00000000000E+00  0.14423659366E+02  0.14423659366E+02  0.00000000000E+00 0.  1.
          1   -1    0    0  501    0  0.00000000000E+00 -0.00000000000E+00 -0.98924440203E+03  0.98924440203E+03  0.00000000000E+00 0. -1.
         25    2    1    2    0    0  0.37023808282E+02  0.28707065098E+02 -0.52550276464E+03  0.54221092966E+03  0.12507868973E+03 0.  0.
         23    2    1    2    0    0 -0.37023808282E+02 -0.28707065098E+02 -0.44931797803E+03  0.46145713174E+03  0.94133846700E+02 0.  0.
          5    1    3    3  502    0 -0.11297212070E+02  0.43800470802E+01 -0.44467317922E+03  0.44485786554E+03  0.41800000000E+01 0. -1.
         -5    1    3    3    0  502  0.48321020352E+02  0.24327018017E+02 -0.80829585417E+02  0.97353064113E+02  0.41800000000E+01 0. -1.
        -11    1    4    4    0    0  0.27099238845E+02  0.11125424173E+02 -0.14358180356E+03  0.14653968105E+03  0.00000000000E+00 0.  1.
         11    1    4    4    0    0 -0.64123047127E+02 -0.39832489271E+02 -0.30573617446E+03  0.31491745069E+03  0.00000000000E+00 0. -1.
</event>
<event>
 7    1  0.6692409E-009  0.1410197E+03  0.7561462E-02  0.1211963E+00
         -2   -1    0    0    0  501 -0.00000000000E+00  0.00000000000E+00  0.35412543167E+02  0.35412543167E+02  0.00000000000E+00 0.  1.
          2   -1    0    0  501    0  0.00000000000E+00 -0.00000000000E+00 -0.65351747542E+03  0.65351747542E+03  0.00000000000E+00 0. -1.
         23    2    1    2    0    0 -0.86692567832E+02  0.62418794380E+02 -0.25868492338E+03  0.29376118580E+03  0.89252660971E+02 0.  0.
          5    1    1    2  502    0  0.93015256189E+02 -0.86736905563E+02 -0.22620599800E+03  0.25954143138E+03  0.41800000000E+01 0.  1.
         -5    1    1    2    0  502 -0.63226883572E+01  0.24318111182E+02 -0.13321401088E+03  0.13562740141E+03  0.41800000000E+01 0.  1.
        -11    1    3    3    0    0 -0.10490502713E+02  0.51236201984E+02 -0.16150760920E+03  0.16976426853E+03  0.00000000000E+00 0.  1.
         11    1    3    3    0    0 -0.76202065119E+02  0.11182592396E+02 -0.97177314181E+02  0.12399691727E+03  0.00000000000E+00 0. -1.
</event>
<event>
 8    1  0.6692409E-009  0.3483384E+03  0.7561462E-02  0.1063299E+00
          2   -1    0    0  501    0  0.00000000000E+00  0.00000000000E+00  0.13548897742E+04  0.13548897742E+04  0.00000000000E+00 0. -1.
         -2   -1    0    0    0  501 -0.00000000000E+00 -0.00000000000E+00 -0.98157906239E+02  0.98157906239E+02  0.00000000000E+00 0.  1.
         25    2    1    2    0    0 -0.20537274771E+01  0.34086727245E+03  0.50313621609E+03  0.62047453670E+03  0.12509150061E+03 0.  0.
         23    2    1    2    0    0  0.20537274771E+01 -0.34086727245E+03  0.75359565183E+03  0.83257314370E+03  0.95272860414E+02 0.  0.
          5    1    3    3  502    0  0.40859588604E+02  0.26772354203E+03  0.32449006967E+03  0.42267798459E+03  0.41800000000E+01 0. -1.
         -5    1    3    3    0  502 -0.42913316081E+02  0.73143730417E+02  0.17864614642E+03  0.19779655211E+03  0.41800000000E+01 0. -1.
        -11    1    4    4    0    0 -0.12273023478E+01 -0.24528866620E+02  0.14263512634E+02  0.28401045075E+02  0.00000000000E+00 0. -1.
         11    1    4    4    0    0  0.32810298249E+01 -0.31633840583E+03  0.73933213919E+03  0.80417209862E+03  0.00000000000E+00 0.  1.
</event>
<event>
 8    1  0.6692409E-009  0.1203627E+03  0.7561462E-02  0.1242500E+00
          1   -1    0    0  501    0  0.00000000000E+00  0.00000000000E+00  0.49879638762E+02  0.49879638762E+02  0.00000000000E+00 0. -1.
         -1   -1    0    0    0  501 -0.00000000000E+00 -0.00000000000E+00 -0.36728184746E+03  0.36728184746E+03  0.00000000000E+00 0.  1.
         25    2    1    2    0    0  0.41746768881E+02  0.50190510530E+02 -0.12942902786E+03  0.19147171809E+03  0.12509062922E+03 0.  0.
         23    2    1    2    0    0 -0.41746768881E+02 -0.50190510530E+02 -0.18797318084E+03  0.22568976813E+03  0.10648978667E+03 0.  0.
          5    1    3    3  502    0 -0.33260924479E+02 -0.51778135302E+01 -0.77674859271E+02  0.84758215017E+02  0.41800000000E+01 0.  1.
         -5    1    3    3    0  502  0.75007693361E+02  0.55368324060E+02 -0.51754168591E+02  0.10671350308E+03  0.41800000000E+01 0.  1.
        -11    1    4    4    0    0 -0.70802397128E+02 -0.45201455615E+02 -0.88835761074E+02  0.12226178256E+03  0.00000000000E+00 0. -1.
         11    1    4    4    0    0  0.29055628247E+02 -0.49890549151E+01 -0.99137419763E+02  0.10342798557E+03  0.00000000000E+00 0.  1.
</event>
<event>
 8    1  0.6692409E-009  0.1607418E+03  0.7561462E-02  0.1187862E+00
          1   -1    0    0  501    0  0.00000000000E+00  0.00000000000E+00  0.79973180397E+03  0.79973180397E+03  0.00000000000E+00 0. -1.
         -1   -1    0    0    0  501 -0.00000000000E+00 -0.00000000000E+00 -0.34008870591E+02  0.34008870591E+02  0.00000000000E+00 0.  1.
         25    2    1    2    0    0 -0.44740761598E+02  0.10924156210E+03  0.32216249833E+03  0.36519921448E+03  0.12508531603E+03 0.  0.
         23    2    1    2    0    0  0.44740761598E+02 -0.10924156210E+03  0.44356043505E+03  0.46854146009E+03  0.94073299288E+02 0.  0.
          5    1    3    3  502    0 -0.76044209279E+02  0.11569626631E+03  0.27714903478E+03  0.30983448434E+03  0.41800000000E+01 0.  1.
         -5    1    3    3    0  502  0.31303447681E+02 -0.64547042061E+01  0.45013463548E+02  0.55364730142E+02  0.41800000000E+01 0.  1.
        -11    1    4    4    0    0  0.26194439055E+02 -0.12418597977E+03  0.38209728365E+03  0.40262468923E+03  0.00000000000E+00 0. -1.
         11    1    4    4    0    0  0.18546322544E+02  0.14944417669E+02  0.61463151403E+02  0.65916770854E+02  0.00000000000E+00 0.  1.
</event>
<event>
 8    1  0.6692409E-009  0.1218259E+03  0.7561462E-02  0.1240115E+00
          2   -1    0    0  501    0  0.00000000000E+00  0.00000000000E+00  0.32729760985E+03  0.32729760985E+03  0.00000000000E+00 0. -1.
         -2   -1    0    0    0  501 -0.00000000000E+00 -0.00000000000E+00 -0.66910231443E+02  0.66910231443E+02  0.00000000000E+00 0.  1.
         25    2    1    2    0    0 -0.85186761432E+02 -0.42618000142E+02  0.10035490650E+03  0.18652535345E+03  0.12509005542E+03 0.  0.
         23    2    1    2    0    0  0.85186761432E+02  0.42618000142E+02  0.16003247191E+03  0.20768248784E+03  0.91915969394E+02 0.  0.
          5    1    3    3  502    0 -0.11511892276E+02 -0.63721784081E+02  0.63952591612E+01  0.65202462914E+02  0.41800000000E+01 0. -1.
         -5    1    3    3    0  502 -0.73674869156E+02  0.21103783939E+02  0.93959647335E+02  0.12132289054E+03  0.41800000000E+01 0. -1.
        -11    1    4    4    0    0  0.65120862700E+02  0.48391092831E+02  0.16700490149E+03  0.18566922671E+03  0.00000000000E+00 0. -1.
         11    1    4    4    0    0  0.20065898732E+02 -0.57730926888E+01 -0.69724295856E+01  0.22013261127E+02  0.00000000000E+00 0.  1.
</event>
<event>
 8    1  0.6692409E-009  0.1303328E+03  0.7561462E-02  0.1226963E+00
         -1   -1    0    0    0  501 -0.00000000000E+00  0.00000000000E+00  0.15614535306E+03  0.15614535306E+03  0.00000000000E+00 0.  1.
          1   -1    0    0  501    0  0.00000000000E+00 -0.00000000000E+00 -0.15376590647E+03  0.15376590647E+03  0.00000000000E+00 0. -1.
         25    2    1    2    0    0  0.86719258342E+02 -0.17659841841E+02 -0.67142026256E+02  0.16729569836E+03  0.12509076392E+03 0.  0.
         23    2    1    2    0    0 -0.86719258342E+02  0.17659841841E+02  0.69521472847E+02  0.14261556118E+03  0.87600589733E+02 0.  0.
          5    1    3    3  502    0  0.11243673231E+03  0.32063103288E+01 -0.28265669089E+02  0.11605481312E+03  0.41800000000E+01 0.  1.
         -5    1    3    3    0  502 -0.25717473969E+02 -0.20866152170E+02 -0.38876357167E+02  0.51240885241E+02  0.41800000000E+01 0.  1.
        -11    1    4    4    0    0 -0.55248346803E+02  0.46367853596E+02  0.69289819610E+02  0.10001718239E+03  0.00000000000E+00 0. -1.
         11    1    4    4    0    0 -0.31470911539E+02 -0.28708011755E+02  0.23165323692E+00  0.42598378787E+02  0.00000000000E+00 0.  1.
</event>
<event>
 8    1  0.6692409E-009  0.1070791E+03  0.7561462E-02  0.1266076E+00
         -3   -1    0    0    0  501 -0.00000000000E+00  0.00000000000E+00  0.51561692828E+02  0.51561692828E+02  0.00000000000E+00 0.  1.
          3   -1    0    0  501    0  0.00000000000E+00 -0.00000000000E+00 -0.38676053176E+03  0.38676053176E+03  0.00000000000E+00 0. -1.
         25    2    1    2    0    0  0.60924981626E+02  0.26560768510E+02 -0.27837815658E+03  0.31234384815E+03  0.12508778359E+03 0.  0.
         23    2    1    2    0    0 -0.60924981626E+02 -0.26560768510E+02 -0.56820682355E+02  0.12597837645E+03  0.90689765568E+02 0.  0.
          5    1    3    3  502    0  0.86406327291E+02 -0.11349297882E+02 -0.12635090532E+03  0.15354765916E+03  0.41800000000E+01 0. -1.
         -5    1    3    3    0  502 -0.25481345665E+02  0.37910066391E+02 -0.15202725126E+03  0.15879618898E+03  0.41800000000E+01 0. -1.
        -11    1    4    4    0    0 -0.31902917628E+02 -0.38201700843E+02 -0.74847226613E+02  0.89884778646E+02  0.00000000000E+00 0. -1.
         11    1    4    4    0    0 -0.29022063998E+02  0.11640932334E+02  0.18026544258E+02  0.36093597800E+02  0.00000000000E+00 0.  1.
</event>
<event>
 8    1  0.6692409E-009  0.9836317E+02  0.7561462E-02  0.1283776E+00
          2   -1    0    0  501    0  0.00000000000E+00  0.00000000000E+00  0.73896171025E+02  0.73896171025E+02  0.00000000000E+00 0. -1.
         -2   -1    0    0    0  501 -0.00000000000E+00 -0.00000000000E+00 -0.26601698536E+03  0.26601698536E+03  0.00000000000E+00 0.  1.
         25    2    1    2    0    0 -0.45342643963E+02 -0.65797429827E+02 -0.15193726307E+03  0.21241443100E+03  0.12509876680E+03 0.  0.
         23    2    1    2    0    0  0.45342643963E+02  0.65797429827E+02 -0.40183551269E+02  0.12749872539E+03  0.90862258668E+02 0.  0.
          5    1    3    3  502    0 -0.31630370312E+02 -0.78344021740E+02 -0.16760924230E+03  0.18774609603E+03  0.41800000000E+01 0.  1.
         -5    1    3    3    0  502 -0.13712273651E+02  0.12546591913E+02  0.15671979230E+02  0.24668334972E+02  0.41800000000E+01 0.  1.
        -11    1    4    4    0    0 -0.88579440125E+01  0.20913329560E+02 -0.51440796343E+02  0.56231539672E+02  0.00000000000E+00 0.  1.
         11    1    4    4    0    0  0.54200587976E+02  0.44884100267E+02  0.11257245074E+02  0.71267185719E+02  0.00000000000E+00 0. -1.
</event>
<event>
 8    1  0.6692409E-009  0.1147434E+03  0.7561462E-02  0.1252030E+00
          1   -1    0    0  501    0  0.00000000000E+00  0.00000000000E+00  0.98011996892E+02  0.98011996892E+02  0.00000000000E+00 0. -1.
         -1   -1    0    0    0  501 -0.00000000000E+00 -0.00000000000E+00 -0.19513351274E+03  0.19513351274E+03  0.00000000000E+00 0.  1.
         25    2    1    2    0    0 -0.76627534986E+02  0.10204486034E+02 -0.94477143920E+02  0.17478554057E+03  0.12509254101E+03 0.  0.
         23    2    1    2    0    0  0.76627534986E+02 -0.10204486034E+02 -0.26443719333E+01  0.11835996906E+03  0.89588944186E+02 0.  0.
          5    1    3    3  502    0  0.85446649896E+01 -0.40127565207E+02 -0.53945400336E+01  0.41590939535E+02  0.41800000000E+01 0.  1.
         -5    1    3    3    0  502 -0.85172199975E+02  0.50332051241E+02 -0.89082603886E+02  0.13319460104E+03  0.41800000000E+01 0.  1.
        -11    1    4    4    0    0  0.51263774358E+02  0.15056681740E+02 -0.39907549187E+02  0.66688010231E+02  0.00000000000E+00 0.  1.
         11    1    4    4    0    0  0.25363760628E+02 -0.25261167774E+02  0.37263177253E+02  0.51671958832E+02  0.00000000000E+00 0. -1.
</event>
<event>
 8    1  0.6692409E-009  0.7365981E+02  0.7561462E-02  0.1348072E+00
         -2   -1    0    0    0  501 -0.00000000000E+00  0.00000000000E+00  0.16753625109E+03  0.16753625109E+03  0.00000000000E+00 0.  1.
          2   -1    0    0  501    0  0.00000000000E+00 -0.00000000000E+00 -0.90663692844E+02  0.90663692844E+02  0.00000000000E+00 0. -1.
         25    2    1    2    0    0 -0.82885002491E+01  0.22990751296E+02  0.98701313835E+02  0.16120550636E+03  0.12509193438E+03 0.  0.
         23    2    1    2    0    0  0.82885002491E+01 -0.22990751296E+02 -0.21828755588E+02  0.96994437574E+02  0.91291579394E+02 0.  0.
          5    1    3    3  502    0  0.32304553229E+02 -0.10406102853E+02 -0.13865504704E+02  0.36899807000E+02  0.41800000000E+01 0.  1.
         -5    1    3    3    0  502 -0.40593053478E+02  0.33396854150E+02  0.11256681854E+03  0.12430569936E+03  0.41800000000E+01 0.  1.
        -11    1    4    4    0    0 -0.23696014622E+02 -0.12084547020E+02 -0.47578444477E+02  0.54509134689E+02  0.00000000000E+00 0. -1.
         11    1    4    4    0    0  0.31984514872E+02 -0.10906204277E+02  0.25749688890E+02  0.42485302885E+02  0.00000000000E+00 0.  1.
</event>
<event>
 8    1  0.6692409E-009  0.7142782E+02  0.7561462E-02  0.1355304E+00
          3   -1    0    0  501    0  0.00000000000E+00  0.00000000000E+00  0.10227964540E+03  0.10227964540E+03  0.00000000000E+00 0. -1.
         -3   -1    0    0    0  501 -0.00000000000E+00 -0.00000000000E+00 -0.14717455357E+03  0.14717455357E+03  0.00000000000E+00 0.  1.
         25    2    1    2    0    0 -0.48021772200E+02 -0.30246165502E+02 -0.19380062102E+02  0.13872199308E+03  0.12508910194E+03 0.  0.
         23    2    1    2    0    0  0.48021772200E+02  0.30246165502E+02 -0.25514846064E+02  0.11073220589E+03  0.91595266901E+02 0.  0.
          5    1    3    3  502    0 -0.15067590186E+02 -0.64487613330E+01  0.52983667154E+02  0.55617984338E+02  0.41800000000E+01 0. -1.
         -5    1    3    3    0  502 -0.32954182014E+02 -0.23797404169E+02 -0.72363729256E+02  0.83104008744E+02  0.41800000000E+01 0. -1.
        -11    1    4    4    0    0  0.26717486088E+02  0.49572824494E+02  0.17513599545E+02  0.58974699322E+02  0.00000000000E+00 0. -1.
         11    1    4    4    0    0  0.21304286112E+02 -0.19326658992E+02 -0.43028445609E+02  0.51757506567E+02  0.00000000000E+00 0.  1.
</event>
<event>
 7    1  0.6692409E-009  0.9332507E+02  0.7561462E-02  0.1294994E+00
          2   -1    0    0  501    0  0.00000000000E+00  0.00000000000E+00  0.77242965633E+03  0.77242965633E+03  0.00000000000E+00 0. -1.
         -2   -1    0    0    0  501 -0.00000000000E+00 -0.00000000000E+00 -0.19027315663E+02  0.19027315663E+02  0.00000000000E+00 0.  1.
         23    2    1    2    0    0  0.32301937021E+02  0.50956037139E+01  0.18917741570E+03  0.21263376491E+03  0.91409206634E+02 0.  0.
          5    1    1    2  502    0 -0.31949246844E+02  0.38814954865E+02  0.95300080155E+02  0.10782825591E+03  0.41800000000E+01 0.  1.
         -5    1    1    2    0  502 -0.35269017691E+00 -0.43910558579E+02  0.46892484481E+03  0.47099495117E+03  0.41800000000E+01 0.  1.
        -11    1    3    3    0    0  0.49368368623E+02 -0.26612281710E+02  0.80226150273E+02  0.97886079429E+02  0.00000000000E+00 0. -1.
         11    1    3    3    0    0 -0.17066431602E+02  0.31707885424E+02  0.10895126543E+03  0.11474768549E+03  0.00000000000E+00 0.  1.
</event>
<event>
 8    1  0.6692409E-009  0.8817943E+02  0.7561462E-02  0.1307321E+00
          2   -1    0    0  501    0  0.00000000000E+00  0.00000000000E+00  0.85646334498E+02  0.85646334498E+02  0.00000000000E+00 0. -1.
         -2   -1    0    0    0  501 -0.00000000000E+00 -0.00000000000E+00 -0.17218136805E+03  0.17218136805E+03  0.00000000000E+00 0.  1.
         25    2    1    2    0    0  0.16173270849E+02  0.44884961105E+02 -0.17351130400E+02  0.13499988847E+03  0.12509066207E+03 0.  0.
         23    2    1    2    0    0 -0.16173270849E+02 -0.44884961105E+02 -0.69183903149E+02  0.12282781408E+03  0.89576922435E+02 0.  0.
          5    1    3    3  502    0 -0.16123921189E+01  0.81447697978E+02  0.14917911907E+02  0.82923722842E+02  0.41800000000E+01 0. -1.
         -5    1    3    3    0  502  0.17785662968E+02 -0.36562736872E+02 -0.32269042307E+02  0.52076165625E+02  0.41800000000E+01 0. -1.
        -11    1    4    4    0    0  0.49119208149E+01 -0.23024076916E+02 -0.85268846187E+02  0.88459093450E+02  0.00000000000E+00 0.  1.
         11    1    4    4    0    0 -0.21085191664E+02 -0.21860884190E+02  0.16084943038E+02  0.34368720628E+02  0.00000000000E+00 0. -1.
</event>
<event>
 8    1  0.6692409E-009  0.9275422E+02  0.7561462E-02  0.1296316E+00
          2   -1    0    0  501    0  0.00000000000E+00  0.00000000000E+00  0.99379035391E+02  0.99379035391E+02  0.00000000000E+00 0. -1.
         -2   -1    0    0    0  501 -0.00000000000E+00 -0.00000000000E+00 -0.16508967995E+03  0.16508967995E+03  0.00000000000E+00 0.  1.
         25    2    1    2    0    0 -0.90640046973E+01 -0.67653370017E+02 -0.56628144283E+02  0.15333979259E+03  0.12508881089E+03 0.  0.
         23    2    1    2    0    0  0.90640046973E+01  0.67653370017E+02 -0.90825002777E+01  0.11112892276E+03  0.87223913041E+02 0.  0.
          5    1    3    3  502    0 -0.17537708142E+02 -0.62132305797E+02 -0.94160883770E+02  0.11424420801E+03  0.41800000000E+01 0. -1.
         -5    1    3    3    0  502  0.84737034445E+01 -0.55210642199E+01  0.37532739487E+02  0.39095584579E+02  0.41800000000E+01 0. -1.
        -11    1    4    4    0    0 -0.59139066309E+01 -0.20046252869E+02  0.37645375738E+01  0.21236720294E+02  0.00000000000E+00 0. -1.
         11    1    4    4    0    0  0.14977911328E+02  0.87699622886E+02 -0.12847037852E+02  0.89892202463E+02  0.00000000000E+00 0.  1.
</event>
<event>
 8    1  0.6692409E-009  0.2072383E+03  0.7561462E-02  0.1143772E+00
          1   -1    0    0  501    0  0.00000000000E+00  0.00000000000E+00  0.10922921122E+03  0.10922921122E+03  0.00000000000E+00 0. -1.
         -1   -1    0    0    0  501 -0.00000000000E+00 -0.00000000000E+00 -0.61434643111E+03  0.61434643111E+03  0.00000000000E+00 0.  1.
         25    2    1    2    0    0  0.15492807761E+03 -0.90250404950E+02 -0.47391950122E+02  0.22370005567E+03  0.12509145912E+03 0.  0.
         23    2    1    2    0    0 -0.15492807761E+03  0.90250404950E+02 -0.45772526977E+03  0.49987558665E+03  0.90638483644E+02 0.  0.
          5    1    3    3  502    0  0.97721696896E+02  0.13034956252E+02 -0.73253024142E+01  0.98947322269E+02  0.41800000000E+01 0. -1.
         -5    1    3    3    0  502  0.57206380714E+02 -0.10328536120E+03 -0.40066647707E+02  0.12475273340E+03  0.41800000000E+01 0. -1.
        -11    1    4    4    0    0 -0.36779252809E+02 -0.14717575640E+02 -0.13229825697E+03  0.13810195244E+03  0.00000000000E+00 0.  1.
         11    1    4    4    0    0 -0.11814882480E+03  0.10496798059E+03 -0.32542701280E+03  0.36177363421E+03  0.00000000000E+00 0. -1.
</event>
<event>
 8    1  0.6692409E-009  0.1548944E+03  0.7561462E-02  0.1194585E+00
          2   -1    0    0  501    0  0.00000000000E+00  0.00000000000E+00  0.92184915964E+03  0.92184915964E+03  0.00000000000E+00 0. -1.
         -2   -1    0    0    0  501 -0.00000000000E+00 -0.00000000000E+00 -0.26798819757E+02  0.26798819757E+02  0.00000000000E+00 0.  1.
         25    2    1    2    0    0  0.52495990542E+02 -0.97879669560E+02  0.49093638864E+03  0.51865410844E+03  0.12508911932E+03 0.  0.
         23    2    1    2    0    0 -0.52495990542E+02  0.97879669560E+02  0.40411395124E+03  0.42999387096E+03  0.96178920443E+02 0.  0.
          5    1    3    3  502    0  0.81809075221E+02 -0.10793347065E+03  0.41383670655E+03  0.43545453375E+03  0.41800000000E+01 0.  1.
         -5    1    3    3    0  502 -0.29313084679E+02  0.10053801092E+02  0.77099682086E+02  0.83199574684E+02  0.41800000000E+01 0.  1.
        -11    1    4    4    0    0 -0.45177667107E+02  0.11545664128E+03  0.30808848353E+03  0.33209903840E+03  0.00000000000E+00 0.  1.
         11    1    4    4    0    0 -0.73183234350E+01 -0.17576971721E+02  0.96025467711E+02  0.97894832559E+02  0.00000000000E+00 0. -1.
</event>
<event>
 8    1  0.6692409E-009  0.1126704E+03  0.7561462E-02  0.1255703E+00
         -2   -1    0    0    0  501 -0.00000000000E+00  0.00000000000E+00  0.81023022897E+02  0.81023022897E+02  0.00000000000E+00 0.  1.
          2   -1    0    0  501    0  0.00000000000E+00 -0.00000000000E+00 -0.24815317493E+03  0.24815317493E+03  0.00000000000E+00 0. -1.
         25    2    1    2    0    0  0.47300289676E+02  0.73898739012E+02 -0.11831494004E+03  0.19324732355E+03  0.12509101483E+03 0.  0.
         23    2    1    2    0    0 -0.47300289676E+02 -0.73898739012E+02 -0.48815211991E+02  0.13592887427E+03  0.91626376709E+02 0.  0.
          5    1    3    3  502    0  0.47533064447E+02 -0.12742842339E+02 -0.88818722566E+02  0.10162681794E+03  0.41800000000E+01 0. -1.
         -5    1    3    3    0  502 -0.23277477125E+00  0.86641581351E+02 -0.29496217479E+02  0.91620505613E+02  0.41800000000E+01 0. -1.
        -11    1    4    4    0    0 -0.13273287686E+02 -0.35517163860E+02  0.25454598685E+02  0.45668213112E+02  0.00000000000E+00 0.  1.
         11    1    4    4    0    0 -0.34027001990E+02 -0.38381575152E+02 -0.74269810676E+02  0.90260661162E+02  0.00000000000E+00 0. -1.
</event>
<event>
 8    1  0.6692409E-009  0.1425545E+03  0.7561462E-02  0.1209932E+00
         -1   -1    0    0    0  501 -0.00000000000E+00  0.00000000000E+00  0.69620033529E+02  0.69620033529E+02  0.00000000000E+00 0.  1.
          1   -1    0    0  501    0  0.00000000000E+00 -0.00000000000E+00 -0.69297967192E+03  0.69297967192E+03  0.00000000000E+00 0. -1.
         25    2    1    2    0    0 -0.81091643254E+02  0.10646170865E+03 -0.55784714505E+03  0.58715694093E+03  0.12509950450E+03 0.  0.
         23    2    1    2    0    0  0.81091643254E+02 -0.10646170865E+03 -0.65512493344E+02  0.17544276452E+03  0.92619257308E+02 0.  0.
          5    1    3    3  502    0 -0.76710332008E+02  0.66809045562E+02 -0.17691257150E+03  0.20411627559E+03  0.41800000000E+01 0.  1.
         -5    1    3    3    0  502 -0.43813112463E+01  0.39652663092E+02 -0.38093457356E+03  0.38304066535E+03  0.41800000000E+01 0.  1.
        -11    1    4    4    0    0  0.25991121603E+02 -0.75792559929E+02  0.56935267141E+01  0.80327248112E+02  0.00000000000E+00 0.  1.
         11    1    4    4    0    0  0.55100521650E+02 -0.30669148725E+02 -0.71206020058E+02  0.95115516411E+02  0.00000000000E+00 0. -1.
</event>
<event>
 8    1  0.6692409E-009  0.2236187E+03  0.7561462E-02  0.1131214E+00
          1   -1    0    0  501    0  0.00000000000E+00  0.00000000000E+00  0.83288057582E+03  0.83288057582E+03  0.00000000000E+00 0. -1.
         -1   -1    0    0    0  501 -0.00000000000E+00 -0.00000000000E+00 -0.62744830921E+02  0.62744830921E+02  0.00000000000E+00 0.  1.
         25    2    1    2    0    0 -0.19744303353E+03 -0.29668659922E+02  0.43149134542E+03  0.49162563845E+03  0.12508799437E+03 0.  0.
         23    2    1    2    0    0  0.19744303353E+03  0.29668659922E+02  0.33864439948E+03  0.40399976829E+03  0.93122513995E+02 0.  0.
          5    1    3    3  502    0 -0.70948051463E+02 -0.65225633130E+02  0.12318701466E+03  0.15646252652E+03  0.41800000000E+01 0.  1.
         -5    1    3    3    0  502 -0.12649498207E+03  0.35556973208E+02  0.30830433076E+03  0.33516311193E+03  0.41800000000E+01 0.  1.
        -11    1    4    4    0    0  0.20688216557E+03  0.23929281701E+02  0.32877523469E+03  0.38918632543E+03  0.00000000000E+00 0. -1.
         11    1    4    4    0    0 -0.94391320380E+01  0.57393782207E+01  0.98691647856E+01  0.14813442866E+02  0.00000000000E+00 0.  1.
</event>
<event>
 8    1  0.6692409E-009  0.9530157E+02  0.7561462E-02  0.1290498E+00
         -3   -1    0    0    0  501 -0.00000000000E+00  0.00000000000E+00  0.13664165277E+03  0.13664165277E+03  0.00000000000E+00 0.  1.
          3   -1    0    0  501    0  0.00000000000E+00 -0.00000000000E+00 -0.12002110007E+03  0.12002110007E+03  0.00000000000E+00 0. -1.
         25    2    1    2    0    0 -0.51414865026E+02 -0.50899446427E+01 -0.36161729768E+02  0.14007985913E+03  0.12508117505E+03 0.  0.
         23    2    1    2    0    0  0.51414865026E+02  0.50899446427E+01  0.52782282470E+02  0.11658289371E+03  0.90200919516E+02 0.  0.
          5    1    3    3  502    0 -0.32338892902E+02  0.37295672590E+02 -0.67600664433E+02  0.83809864693E+02  0.41800000000E+01 0. -1.
         -5    1    3    3    0  502 -0.19075972124E+02 -0.42385617233E+02  0.31438934665E+02  0.56269994434E+02  0.41800000000E+01 0. -1.
        -11    1    4    4    0    0 -0.21398323803E+02  0.23924035419E+01 -0.66714303156E+01  0.22541513675E+02  0.00000000000E+00 0. -1.
         11    1    4    4    0    0  0.72813188830E+02  0.26975411008E+01  0.59453712786E+02  0.94041380038E+02  0.00000000000E+00 0.  1.
</event>
<event>
 8    1  0.6692409E-009  0.8979235E+02  0.7561462E-02  0.1303355E+00
          3   -1    0    0  501    0  0.00000000000E+00  0.00000000000E+00  0.20257456799E+03  0.20257456799E+03  0.00000000000E+00 0. -1.
         -3   -1    0    0    0  501 -0.00000000000E+00 -0.00000000000E+00 -0.72422137285E+02  0.72422137285E+02  0.00000000000E+00 0.  1.
         25    2    1    2    0    0 -0.39646660288E+02  0.14066216487E+02  0.11535645178E+03  0.17528561472E+03  0.12509284409E+03 0.  0.
         23    2    1    2    0    0  0.39646660288E+02 -0.14066216487E+02  0.14795978917E+02  0.99711090550E+02  0.89183319451E+02 0.  0.
          5    1    3    3  502    0 -0.60871046129E+02  0.21551546745E+02  0.76335191206E+01  0.65157474154E+02  0.41800000000E+01 0. -1.
         -5    1    3    3    0  502  0.21224385841E+02 -0.74853302580E+01  0.10772293266E+03  0.11012814057E+03  0.41800000000E+01 0. -1.
        -11    1    4    4    0    0  0.34331597547E+02 -0.47234955643E+02  0.26518010149E+02  0.64132709961E+02  0.00000000000E+00 0. -1.
         11    1    4    4    0    0  0.53150627410E+01  0.33168739156E+02 -0.11722031232E+02  0.35578380589E+02  0.00000000000E+00 0.  1.
</event>
<event>
 8    1  0.6692409E-009  0.1336579E+03  0.7561462E-02  0.1222127E+00
          2   -1    0    0  501    0  0.00000000000E+00  0.00000000000E+00  0.90669299725E+03  0.90669299725E+03  0.00000000000E+00 0. -1.
         -2   -1    0    0    0  501 -0.00000000000E+00 -0.00000000000E+00 -0.31692336738E+02  0.31692336738E+02  0.00000000000E+00 0.  1.
         25    2    1    2    0    0 -0.11551391361E+03 -0.27530969246E+02  0.60947594591E+03  0.63341143301E+03  0.12509075230E+03 0.  0.
         23    2    1    2    0    0  0.11551391361E+03  0.27530969246E+02  0.26552471460E+03  0.30497390098E+03  0.91674902302E+02 0.  0.
          5    1    3    3  502    0 -0.11207693171E+03 -0.39454163007E+02  0.28675737903E+03  0.31042734485E+03  0.41800000000E+01 0.  1.
         -5    1    3    3    0  502 -0.34369819028E+01  0.11923193760E+02  0.32271856688E+03  0.32298408816E+03  0.41800000000E+01 0.  1.
        -11    1    4    4    0    0  0.48169220177E+02 -0.20768377727E+02  0.44038627425E+02  0.68490875241E+02  0.00000000000E+00 0. -1.
         11    1    4    4    0    0  0.67344693434E+02  0.48299346974E+02  0.22148608717E+03  0.23648302574E+03  0.00000000000E+00 0.  1.
</event>
<event>
 8    1  0.6692409E-009  0.9121324E+02  0.7561462E-02  0.1299940E+00
         -1   -1    0    0    0  501 -0.00000000000E+00  0.00000000000E+00  0.58485682851E+02  0.58485682851E+02  0.00000000000E+00 0.  1.
          1   -1    0    0  501    0  0.00000000000E+00 -0.00000000000E+00 -0.27964786471E+03  0.27964786471E+03  0.00000000000E+00 0. -1.
         25    2    1    2    0    0 -0.47470918068E+02 -0.86427096053E+01 -0.18138634035E+03  0.22555750853E+03  0.12508797183E+03 0.  0.
         23    2    1    2    0    0  0.47470918068E+02  0.86427096053E+01 -0.39775841507E+02  0.11257603903E+03  0.93611230653E+02 0.  0.
          5    1    3    3  502    0  0.12699195792E+02 -0.49021540016E+02 -0.12065509603E+03  0.13091793444E+03  0.41800000000E+01 0. -1.
         -5    1    3    3    0  502 -0.60170113860E+02  0.40378830411E+02 -0.60731244315E+02  0.94639574087E+02  0.41800000000E+01 0. -1.
        -11    1    4    4    0    0  0.37147898978E+02 -0.93327188312E+01  0.24212818499E+02  0.45313647160E+02  0.00000000000E+00 0.  1.
         11    1    4    4    0    0  0.10323019090E+02  0.17975428436E+02 -0.63988660006E+02  0.67262391870E+02  0.00000000000E+00 0. -1.
</event>
<event>
 8    1  0.6692409E-009  0.3818610E+03  0.7561462E-02  0.1050248E+00
         -2   -1    0    0    0  501 -0.00000000000E+00  0.00000000000E+00  0.85645828936E+03  0.85645828936E+03  0.00000000000E+00 0.  1.
          2   -1    0    0  501    0  0.00000000000E+00 -0.00000000000E+00 -0.18595818539E+03  0.18595818539E+03  0.00000000000E+00 0. -1.
         25    2    1    2    0    0 -0.23603195004E+03 -0.29235274079E+03  0.23153244269E+03  0.45873258166E+03  0.12508838064E+03 0.  0.
         23    2    1    2    0    0  0.23603195004E+03  0.29235274079E+03  0.43896766127E+03  0.58368389309E+03  0.82541340658E+02 0.  0.
          5    1    3    3  502    0 -0.15130878195E+03 -0.22598286458E+03  0.22110316185E+03  0.35052344167E+03  0.41800000000E+01 0. -1.
         -5    1    3    3    0  502 -0.84723168086E+02 -0.66369876217E+02  0.10429280844E+02  0.10820914000E+03  0.41800000000E+01 0. -1.
        -11    1    4    4    0    0  0.15024390038E+03  0.12295579917E+03  0.20461433774E+03  0.28206096036E+03  0.00000000000E+00 0. -1.
         11    1    4    4    0    0  0.85788049657E+02  0.16939694162E+03  0.23435332353E+03  0.30162293272E+03  0.00000000000E+00 0.  1.
</event>
<event>
 8    1  0.6692409E-009  0.1959536E+03  0.7561462E-02  0.1153199E+00
          2   -1    0    0  501    0  0.00000000000E+00  0.00000000000E+00  0.23584607357E+03  0.23584607357E+03  0.00000000000E+00 0. -1.
         -2   -1    0    0    0  501 -0.00000000000E+00 -0.00000000000E+00 -0.17965158474E+03  0.17965158474E+03  0.00000000000E+00 0.  1.
         25    2    1    2    0    0  0.14002067258E+03  0.10121387249E+03  0.21247175447E+02  0.21435570026E+03  0.12508751750E+03 0.  0.
         23    2    1    2    0    0 -0.14002067258E+03 -0.10121387249E+03  0.34947313382E+02  0.20114195805E+03  0.96885168326E+02 0.  0.
          5    1    3    3  502    0  0.14620156014E+03  0.11787229855E+03  0.35532049557E+02  0.19117733625E+03  0.41800000000E+01 0. -1.
         -5    1    3    3    0  502 -0.61808875543E+01 -0.16658426057E+02 -0.14284874110E+02  0.23178364006E+02  0.41800000000E+01 0. -1.
        -11    1    4    4    0    0 -0.10391375412E+02  0.10434069468E+02 -0.16862306609E+02  0.22387225661E+02  0.00000000000E+00 0.  1.
         11    1    4    4    0    0 -0.12962929717E+03 -0.11164794196E+03  0.51809619991E+02  0.17875473239E+03  0.00000000000E+00 0. -1.
</event>
<event>
 8    1  0.6692409E-009  0.1703704E+03  0.7561462E-02  0.1177462E+00
         -2   -1    0    0    0  501 -0.00000000000E+00  0.00000000000E+00  0.29101595272E+02  0.29101595272E+02  0.00000000000E+00 0.  1.
          2   -1    0    0  501    0  0.00000000000E+00 -0.00000000000E+00 -0.18716821858E+04  0.18716821858E+04  0.00000000000E+00 0. -1.
         25    2    1    2    0    0 -0.10481370796E+03 -0.11492671372E+03 -0.14999147777E+04  0.15131376522E+04  0.12508857393E+03 0.  0.
         23    2    1    2    0    0  0.10481370796E+03  0.11492671372E+03 -0.34266581281E+03  0.38764612882E+03  0.93035471850E+02 0.  0.
          5    1    3    3  502    0 -0.12187739968E+03 -0.79369319921E+02 -0.13583961259E+04  0.13661665699E+04  0.41800000000E+01 0.  1.
         -5    1    3    3    0  502  0.17063691722E+02 -0.35557393801E+02 -0.14151865183E+03  0.14697108235E+03  0.41800000000E+01 0.  1.
        -11    1    4    4    0    0  0.48366935109E+02  0.55406545441E+02 -0.26377426119E+03  0.27383591174E+03  0.00000000000E+00 0. -1.
         11    1    4    4    0    0  0.56446772848E+02  0.59520168280E+02 -0.78891551618E+02  0.11381021709E+03  0.00000000000E+00 0.  1.
</event>
<event>
 8    1  0.6692409E-009  0.1033447E+03  0.7561462E-02  0.1273416E+00
          1   -1    0    0  501    0  0.00000000000E+00  0.00000000000E+00  0.77583535904E+03  0.77583535904E+03  0.00000000000E+00 0.  1.
         -1   -1    0    0    0  501 -0.00000000000E+00 -0.00000000000E+00 -0.21347285644E+02  0.21347285644E+02  0.00000000000E+00 0. -1.
         25    2    1    2    0    0  0.28693052606E+02  0.62934932034E+02  0.38568969769E+03  0.41132494573E+03  0.12509025200E+03 0.  0.
         23    2    1    2    0    0 -0.28693052606E+02 -0.62934932034E+02  0.36879837571E+03  0.38585769895E+03  0.89943454314E+02 0.  0.
          5    1    3    3  502    0  0.27842999357E+02 -0.16793629018E+02  0.23239020438E+02  0.40184363374E+02  0.41800000000E+01 0.  1.
         -5    1    3    3    0  502  0.85005324868E+00  0.79728561052E+02  0.36245067725E+03  0.37114058236E+03  0.41800000000E+01 0.  1.
        -11    1    4    4    0    0  0.88852259039E+01 -0.54927927468E+02  0.31423873452E+03  0.31912694454E+03  0.00000000000E+00 0.  1.
         11    1    4    4    0    0 -0.37578278510E+02 -0.80070045654E+01  0.54559641189E+02  0.66730754413E+02  0.00000000000E+00 0. -1.
</event>
<event>
 8    1  0.6692409E-009  0.2146183E+03  0.7561462E-02  0.1137960E+00
         -2   -1    0    0    0  501 -0.00000000000E+00  0.00000000000E+00  0.50288682331E+02  0.50288682331E+02  0.00000000000E+00 0.  1.
          2   -1    0    0  501    0  0.00000000000E+00 -0.00000000000E+00 -0.10595246569E+04  0.10595246569E+04  0.00000000000E+00 0. -1.
         25    2    1    2    0    0  0.14973836687E+03 -0.13686272609E+03 -0.48792738249E+03  0.54302324358E+03  0.12509247849E+03 0.  0.
         23    2    1    2    0    0 -0.14973836687E+03  0.13686272609E+03 -0.52130859211E+03  0.56679009568E+03  0.91298302566E+02 0.  0.
          5    1    3    3  502    0  0.33614579994E+02 -0.41371563607E+01 -0.21740628796E+03  0.22006822237E+03  0.41800000000E+01 0.  1.
         -5    1    3    3    0  502  0.11612378688E+03 -0.13272556973E+03 -0.27052109453E+03  0.32295502121E+03  0.41800000000E+01 0.  1.
        -11    1    4    4    0    0 -0.11585751644E+03  0.51349242944E+02 -0.35187303598E+03  0.37399778383E+03  0.00000000000E+00 0. -1.
         11    1    4    4    0    0 -0.33880850439E+02  0.85513483147E+02 -0.16943555613E+03  0.19279231185E+03  0.00000000000E+00 0.  1.
</event>
<event>
 8    1  0.6692409E-009  0.1065514E+03  0.7561462E-02  0.1267093E+00
         -2   -1    0    0    0  501 -0.00000000000E+00  0.00000000000E+00  0.18189096074E+02  0.18189096074E+02  0.00000000000E+00 0. -1.
          2   -1    0    0  501    0  0.00000000000E+00 -0.00000000000E+00 -0.16331108870E+04  0.16331108870E+04  0.00000000000E+00 0.  1.
         25    2    1    2    0    0  0.64861886553E+02  0.76568921381E+02 -0.12802483725E+04  0.12902536874E+04  0.12509523759E+03 0.  0.
         23    2    1    2    0    0 -0.64861886553E+02 -0.76568921381E+02 -0.33467341837E+03  0.36104629564E+03  0.90984979968E+02 0.  0.
          5    1    3    3  502    0  0.92694988111E+01  0.46032154435E+02 -0.13057279601E+03  0.13882222556E+03  0.41800000000E+01 0.  1.
         -5    1    3    3    0  502  0.55592387742E+02  0.30536766946E+02 -0.11496755765E+04  0.11514314618E+04  0.41800000000E+01 0.  1.
        -11    1    4    4    0    0 -0.51547567140E+01 -0.18133815573E+02 -0.30945084384E+01  0.19104522148E+02  0.00000000000E+00 0. -1.
         11    1    4    4    0    0 -0.59707129839E+02 -0.58435105808E+02 -0.33157890993E+03  0.34194177349E+03  0.00000000000E+00 0.  1.
</event>
<event>
 8    1  0.6692409E-009  0.9831016E+02  0.7561462E-02  0.1283890E+00
          1   -1    0    0  501    0  0.00000000000E+00  0.00000000000E+00  0.35332192115E+03  0.35332192115E+03  0.00000000000E+00 0. -1.
         -1   -1    0    0    0  501 -0.00000000000E+00 -0.00000000000E+00 -0.38896377051E+02  0.38896377051E+02  0.00000000000E+00 0.  1.
         25    2    1    2    0    0  0.36485098192E+02 -0.40764754652E-01  0.13092177618E+03  0.18470751108E+03  0.12508073041E+03 0.  0.
         23    2    1    2    0    0 -0.36485098192E+02  0.40764754652E-01  0.18350376792E+03  0.20751078712E+03  0.89754832064E+02 0.  0.
          5    1    3    3  502    0  0.13224186684E+02  0.56734727097E+02  0.27901693651E+02  0.64727778279E+02  0.41800000000E+01 0.  1.
         -5    1    3    3    0  502  0.23260911508E+02 -0.56775491852E+02  0.10302008253E+03  0.11997973280E+03  0.41800000000E+01 0.  1.
        -11    1    4    4    0    0  0.19215649587E+02  0.72786787346E+01  0.61104837204E+01  0.21437312436E+02  0.00000000000E+00 0.  1.
         11    1    4    4    0    0 -0.55700747780E+02 -0.72379139799E+01  0.17739328420E+03  0.18607347469E+03  0.00000000000E+00 0. -1.
</event>
<event>
 8    1  0.6692409E-009  0.9417940E+02  0.7561462E-02  0.1293035E+00
          3   -1    0    0  501    0  0.00000000000E+00  0.00000000000E+00  0.43665663110E+03  0.43665663110E+03  0.00000000000E+00 0. -1.
         -3   -1    0    0    0  501 -0.00000000000E+00 -0.00000000000E+00 -0.28907713689E+02  0.28907713689E+02  0.00000000000E+00 0.  1.
         25    2    1    2    0    0 -0.10428514317E+02 -0.23458261356E+02  0.26652780283E+03  0.29553949157E+03  0.12508987753E+03 0.  0.
         23    2    1    2    0    0  0.10428514317E+02  0.23458261356E+02  0.14122111458E+03  0.17002485322E+03  0.91137278716E+02 0.  0.
          5    1    3    3  502    0  0.27323112919E+02 -0.65173034679E+02  0.13537770556E+03  0.15276999873E+03  0.41800000000E+01 0.  1.
         -5    1    3    3    0  502 -0.37751627236E+02  0.41714773323E+02  0.13115009727E+03  0.14276949284E+03  0.41800000000E+01 0.  1.
        -11    1    4    4    0    0 -0.21758802272E+02  0.18546335575E+02  0.38508599839E+01  0.28848590298E+02  0.00000000000E+00 0.  1.
         11    1    4    4    0    0  0.32187316589E+02  0.49119257806E+01  0.13737025459E+03  0.14117626292E+03  0.00000000000E+00 0. -1.
</event>
<event>
 8    1  0.6692409E-009  0.1013313E+03  0.7561462E-02  0.1277521E+00
          3   -1    0    0  501    0  0.00000000000E+00  0.00000000000E+00  0.13526024635E+03  0.13526024635E+03  0.00000000000E+00 0. -1.
         -3   -1    0    0    0  501 -0.00000000000E+00 -0.00000000000E+00 -0.12977021683E+03  0.12977021683E+03  0.00000000000E+00 0.  1.
         25    2    1    2    0    0  0.25044390972E+02  0.27883857564E+02 -0.63718245582E+02  0.14529999261E+03  0.12508933608E+03 0.  0.
         23    2    1    2    0    0 -0.25044390972E+02 -0.27883857564E+02  0.69208275100E+02  0.11973047057E+03  0.90226765474E+02 0.  0.
          5    1    3    3  502    0 -0.38851673488E+02  0.48585875461E+02 -0.39345386089E+02  0.73726329310E+02  0.41800000000E+01 0.  1.
         -5    1    3    3    0  502  0.63896064459E+02 -0.20702017896E+02 -0.24372859494E+02  0.71573663301E+02  0.41800000000E+01 0.  1.
        -11    1    4    4    0    0 -0.43855769655E+02 -0.31323628479E+02  0.66350565820E+01  0.54300296582E+02  0.00000000000E+00 0.  1.
         11    1    4    4    0    0  0.18811378683E+02  0.34397709142E+01  0.62573218518E+02  0.65430173984E+02  0.00000000000E+00 0. -1.
</event>
<event>
 8    1  0.6692409E-009  0.1173340E+03  0.7561462E-02  0.1247561E+00
         -1   -1    0    0    0  501 -0.00000000000E+00  0.00000000000E+00  0.11070192582E+03  0.11070192582E+03  0.00000000000E+00 0.  1.
          1   -1    0    0  501    0  0.00000000000E+00 -0.00000000000E+00 -0.13047542756E+03  0.13047542756E+03  0.00000000000E+00 0. -1.
         25    2    1    2    0    0 -0.43210671826E+02 -0.28119174150E+02 -0.12149871812E+01  0.13530439416E+03  0.12509177739E+03 0.  0.
         23    2    1    2    0    0  0.43210671826E+02  0.28119174150E+02 -0.18558514557E+02  0.10587295922E+03  0.90591472654E+02 0.  0.
          5    1    3    3  502    0 -0.46608070620E+02  0.40331669461E+02 -0.18522374985E+02  0.64494236824E+02  0.41800000000E+01 0.  1.
         -5    1    3    3    0  502  0.33973987934E+01 -0.68450843611E+02  0.17307387804E+02  0.70810157338E+02  0.41800000000E+01 0.  1.
        -11    1    4    4    0    0  0.60635561121E+02 -0.10796850817E+02 -0.11496011198E+02  0.62653024935E+02  0.00000000000E+00 0. -1.
         11    1    4    4    0    0 -0.17424889295E+02  0.38916024967E+02 -0.70625033589E+01  0.43219934288E+02  0.00000000000E+00 0.  1.
</event>
<event>
 8    1  0.6692409E-009  0.9916439E+02  0.7561462E-02  0.1282063E+00
          2   -1    0    0  501    0  0.00000000000E+00  0.00000000000E+00  0.28624426560E+03  0.28624426560E+03  0.00000000000E+00 0. -1.
         -2   -1    0    0    0  501 -0.00000000000E+00 -0.00000000000E+00 -0.45857022376E+02  0.45857022376E+02  0.00000000000E+00 0.  1.
         25    2    1    2    0    0 -0.16461053686E+02  0.25485983685E+02  0.15890453898E+03  0.20449736236E+03  0.12509203432E+03 0.  0.
         23    2    1    2    0    0  0.16461053686E+02 -0.25485983685E+02  0.81482704239E+02  0.12760392561E+03  0.93396087120E+02 0.  0.
          5    1    3    3  502    0  0.11266009247E+02  0.72361697352E+02  0.10180635971E+03  0.12547966164E+03  0.41800000000E+01 0.  1.
         -5    1    3    3    0  502 -0.27727062933E+02 -0.46875713666E+02  0.57098179270E+02  0.79017700717E+02  0.41800000000E+01 0.  1.
        -11    1    4    4    0    0 -0.24518689352E+02 -0.78991078382E+01  0.78828729568E+02  0.82930878673E+02  0.00000000000E+00 0.  1.
         11    1    4    4    0    0  0.40979743038E+02 -0.17586875847E+02  0.26539746710E+01  0.44673046942E+02  0.00000000000E+00 0. -1.
</event>
<event>
 8    1  0.6692409E-009  0.1413634E+03  0.7561462E-02  0.1211506E+00
          2   -1    0    0  501    0  0.00000000000E+00  0.00000000000E+00  0.52733889025E+03  0.52733889025E+03  0.00000000000E+00 0. -1.
         -2   -1    0    0    0  501 -0.00000000000E+00 -0.00000000000E+00 -0.37925587954E+02  0.37925587954E+02  0.00000000000E+00 0.  1.
         25    2    1    2    0    0  0.88442709210E+02 -0.25248105769E+02  0.26953892311E+03  0.31105878654E+03  0.12508700154E+03 0.  0.
         23    2    1    2    0    0 -0.88442709210E+02  0.25248105769E+02  0.21987437918E+03  0.25420569166E+03  0.88409339970E+02 0.  0.
          5    1    3    3  502    0 -0.16576607603E+00 -0.59879854755E+02  0.10582599879E+03  0.12166445210E+03  0.41800000000E+01 0.  1.
         -5    1    3    3    0  502  0.88608475286E+02  0.34631748986E+02  0.16371292432E+03  0.18939433445E+03  0.41800000000E+01 0.  1.
        -11    1    4    4    0    0  0.95946866165E+01 -0.17940108642E+02  0.38960668161E+02  0.43952692442E+02  0.00000000000E+00 0. -1.
         11    1    4    4    0    0 -0.98037395827E+02  0.43188214411E+02  0.18091371102E+03  0.21025299922E+03  0.00000000000E+00 0.  1.
</event>
<event>
 8    1  0.6692409E-009  0.8902129E+02  0.7561462E-02  0.1305239E+00
          1   -1    0    0  501    0  0.00000000000E+00  0.00000000000E+00  0.68448100901E+03  0.68448100901E+03  0.00000000000E+00 0. -1.
         -1   -1    0    0    0  501 -0.00000000000E+00 -0.00000000000E+00 -0.28134115404E+02  0.28134115404E+02  0.00000000000E+00 0.  1.
         25    2    1    2    0    0 -0.10309716289E+02  0.12144139593E+02  0.57311452947E+03  0.58683094181E+03  0.12512601650E+03 0.  0.
         23    2    1    2    0    0  0.10309716289E+02 -0.12144139593E+02  0.83232364140E+02  0.12578418260E+03  0.92953019189E+02 0.  0.
          5    1    3    3  502    0 -0.37006988253E+02  0.46846085048E+02  0.48151020817E+03  0.48521503052E+03  0.41800000000E+01 0. -1.
         -5    1    3    3    0  502  0.26697271964E+02 -0.34701945455E+02  0.91604321297E+02  0.10161591130E+03  0.41800000000E+01 0. -1.
        -11    1    4    4    0    0 -0.72156060542E+01  0.28793096132E+02  0.74783182284E+02  0.80458882096E+02  0.00000000000E+00 0. -1.
         11    1    4    4    0    0  0.17525322343E+02 -0.40937235725E+02  0.84491818561E+01  0.45325300507E+02  0.00000000000E+00 0.  1.
</event>
<event>
 8    1  0.6692409E-009  0.1186378E+03  0.7561462E-02  0.1245361E+00
         -1   -1    0    0    0  501 -0.00000000000E+00  0.00000000000E+00  0.50287449961E+03  0.50287449961E+03  0.00000000000E+00 0.  1.
          1   -1    0    0  501    0  0.00000000000E+00 -0.00000000000E+00 -0.33217292434E+02  0.33217292434E+02  0.00000000000E+00 0. -1.
         25    2    1    2    0    0 -0.38528329621E+02 -0.52429735850E+02  0.29479258379E+03  0.32677754219E+03  0.12509030835E+03 0.  0.
         23    2    1    2    0    0  0.38528329621E+02  0.52429735850E+02  0.17486462339E+03  0.20931424985E+03  0.94876284136E+02 0.  0.
          5    1    3    3  502    0 -0.38001896141E+02 -0.83401795879E+02  0.27470766980E+03  0.28962351409E+03  0.41800000000E+01 0. -1.
         -5    1    3    3    0  502 -0.52643348049E+00  0.30972060029E+02  0.20084913985E+02  0.37154028105E+02  0.41800000000E+01 0. -1.
        -11    1    4    4    0    0  0.87726042383E+01 -0.27562081859E+02  0.55382269216E+02  0.62480578462E+02  0.00000000000E+00 0. -1.
         11    1    4    4    0    0  0.29755725383E+02  0.79991817709E+02  0.11948235417E+03  0.14683367138E+03  0.00000000000E+00 0.  1.
</event>
<event>
 8    1  0.6692409E-009  0.8124610E+02  0.7561462E-02  0.1325552E+00
          2   -1    0    0  501    0  0.00000000000E+00  0.00000000000E+00  0.47228239397E+03  0.47228239397E+03  0.00000000000E+00 0. -1.
         -2   -1    0    0    0  501 -0.00000000000E+00 -0.00000000000E+00 -0.32978686483E+02  0.32978686483E+02  0.00000000000E+00 0.  1.
         25    2    1    2    0    0  0.14360933366E+02  0.48080743098E+02  0.17364655447E+03  0.21981407743E+03  0.12508840271E+03 0.  0.
         23    2    1    2    0    0 -0.14360933366E+02 -0.48080743098E+02  0.26565715302E+03  0.28544700302E+03  0.91587522737E+02 0.  0.
          5    1    3    3  502    0  0.13497569510E+02  0.26957241724E+01 -0.17873838968E+02  0.22943361369E+02  0.41800000000E+01 0.  1.
         -5    1    3    3    0  502  0.86336385655E+00  0.45385018926E+02  0.19152039344E+03  0.19687071606E+03  0.41800000000E+01 0.  1.
        -11    1    4    4    0    0 -0.10264524954E+02 -0.74794762524E+02  0.21742293871E+03  0.23015723158E+03  0.00000000000E+00 0. -1.
         11    1    4    4    0    0 -0.40964084118E+01  0.26714019426E+02  0.48234214313E+02  0.55289771442E+02  0.00000000000E+00 0.  1.
</event>
<event>
 8    1  0.6692409E-009  0.5821616E+02  0.7561462E-02  0.1405474E+00
          2   -1    0    0  501    0  0.00000000000E+00  0.00000000000E+00  0.25697654856E+03  0.25697654856E+03  0.00000000000E+00 0.  1.
         -2   -1    0    0    0  501 -0.00000000000E+00 -0.00000000000E+00 -0.51523891794E+02  0.51523891794E+02  0.00000000000E+00 0. -1.
         25    2    1    2    0    0 -0.32121119104E+02  0.81017379621E+01  0.13815623342E+03  0.18929387112E+03  0.12509044872E+03 0.  0.
         23    2    1    2    0    0  0.32121119104E+02 -0.81017379621E+01  0.67296423342E+02  0.11920656923E+03  0.92649841354E+02 0.  0.
          5    1    3    3  502    0  0.14964716920E+02  0.22360944365E+02 -0.13075672140E+02  0.30205962777E+02  0.41800000000E+01 0. -1.
         -5    1    3    3    0  502 -0.47085836024E+02 -0.14259206403E+02  0.15123190556E+03  0.15908790834E+03  0.41800000000E+01 0. -1.
        -11    1    4    4    0    0  0.24074496706E+02  0.48713365948E+01 -0.19323095528E+02  0.31252093253E+02  0.00000000000E+00 0. -1.
         11    1    4    4    0    0  0.80466223972E+01 -0.12973074557E+02  0.86619518870E+02  0.87954475979E+02  0.00000000000E+00 0.  1.
</event>
<event>
 8    1  0.6692409E-009  0.1520645E+03  0.7561462E-02  0.1197959E+00
         -2   -1    0    0    0  501 -0.00000000000E+00  0.00000000000E+00  0.27111081892E+02  0.27111081892E+02  0.00000000000E+00 0.  1.
          2   -1    0    0  501    0  0.00000000000E+00 -0.00000000000E+00 -0.10860583607E+04  0.10860583607E+04  0.00000000000E+00 0. -1.
         25    2    1    2    0    0  0.42046607118E+02 -0.10784157014E+03 -0.77645659399E+03  0.79494225807E+03  0.12510247757E+03 0.  0.
         23    2    1    2    0    0 -0.42046607118E+02  0.10784157014E+03 -0.28249068483E+03  0.31822718454E+03  0.89832246671E+02 0.  0.
          5    1    3    3  502    0  0.39762705328E+02  0.15879452694E+02 -0.13650069126E+03  0.14311932387E+03  0.41800000000E+01 0. -1.
         -5    1    3    3    0  502  0.22839017901E+01 -0.12372102283E+03 -0.63995590274E+03  0.65182293420E+03  0.41800000000E+01 0. -1.
        -11    1    4    4    0    0 -0.61014549059E+02  0.58890330346E+02 -0.22461397928E+03  0.24008807945E+03  0.00000000000E+00 0. -1.
         11    1    4    4    0    0  0.18967941941E+02  0.48951239789E+02 -0.57876705548E+02  0.78139105084E+02  0.00000000000E+00 0.  1.
</event>
<event>
 8    1  0.6692409E-009  0.1782561E+03  0.7561462E-02  0.1169502E+00
         -1   -1    0    0    0  501 -0.00000000000E+00  0.00000000000E+00  0.49332769350E+03  0.49332769350E+03  0.00000000000E+00 0.  1.
          1   -1    0    0  501    0  0.00000000000E+00 -0.00000000000E+00 -0.94159377545E+02  0.94159377545E+02  0.00000000000E+00 0. -1.
         25    2    1    2    0    0 -0.16420225882E+03 -0.18706640871E+02  0.32350027909E+03  0.38420406031E+03  0.12509200284E+03 0.  0.
         23    2    1    2    0    0  0.16420225882E+03  0.18706640871E+02  0.75668036864E+02  0.20328301073E+03  0.91027525690E+02 0.  0.
          5    1    3    3  502    0 -0.15097522538E+02 -0.29925867301E+02  0.15607992206E+03  0.15969316576E+03  0.41800000000E+01 0.  1.
         -5    1    3    3    0  502 -0.14910473629E+03  0.11219226430E+02  0.16742035702E+03  0.22451089455E+03  0.41800000000E+01 0.  1.
        -11    1    4    4    0    0  0.90404554428E+02 -0.15644998015E+02 -0.57795151868E+00  0.91750114181E+02  0.00000000000E+00 0.  1.
         11    1    4    4    0    0  0.73797704395E+02  0.34351638887E+02  0.76245988383E+02  0.11153289655E+03  0.00000000000E+00 0. -1.
</event>
<event>
 8    1  0.6692409E-009  0.2022955E+03  0.7561462E-02  0.1147817E+00
          1   -1    0    0  501    0  0.00000000000E+00  0.00000000000E+00  0.10430890037E+03  0.10430890037E+03  0.00000000000E+00 0. -1.
         -1   -1    0    0    0  501 -0.00000000000E+00 -0.00000000000E+00 -0.49579007048E+03  0.49579007048E+03  0.00000000000E+00 0.  1.
         25    2    1    2    0    0 -0.17459626628E+03 -0.23102836019E+01 -0.73111934700E+02  0.22691041369E+03  0.12511509596E+03 0.  0.
         23    2    1    2    0    0  0.17459626628E+03  0.23102836019E+01 -0.31836923540E+03  0.37318855716E+03  0.86148334472E+02 0.  0.
          5    1    3    3  502    0 -0.88820588008E+02  0.57380800719E+02 -0.13921363460E+02  0.10673766864E+03  0.41800000000E+01 0.  1.
         -5    1    3    3    0  502 -0.85775678276E+02 -0.59691084321E+02 -0.59190571240E+02  0.12017274506E+03  0.41800000000E+01 0.  1.
        -11    1    4    4    0    0  0.87197226002E+02 -0.41324748221E+02 -0.14449978203E+03  0.17375637555E+03  0.00000000000E+00 0.  1.
         11    1    4    4    0    0  0.87399040281E+02  0.43635031823E+02 -0.17386945337E+03  0.19943218160E+03  0.00000000000E+00 0. -1.
</event>
<event>
 8    1  0.6692409E-009  0.1460297E+03  0.7561462E-02  0.1205438E+00
         -2   -1    0    0    0  501 -0.00000000000E+00  0.00000000000E+00  0.38164205318E+02  0.38164205318E+02  0.00000000000E+00 0.  1.
          2   -1    0    0  501    0  0.00000000000E+00 -0.00000000000E+00 -0.70639966226E+03  0.70639966226E+03  0.00000000000E+00 0. -1.
         25    2    1    2    0    0  0.10175900312E+03  0.51750021295E+02 -0.44930096473E+03  0.48015738943E+03  0.12508717881E+03 0.  0.
         23    2    1    2    0    0 -0.10175900312E+03 -0.51750021295E+02 -0.21893449221E+03  0.26440647814E+03  0.94580729459E+02 0.  0.
          5    1    3    3  502    0  0.57246551319E+02  0.82181622958E+02 -0.18532638879E+03  0.21069961929E+03  0.41800000000E+01 0. -1.
         -5    1    3    3    0  502  0.44512451797E+02 -0.30431601662E+02 -0.26397457594E+03  0.26945777014E+03  0.41800000000E+01 0. -1.
        -11    1    4    4    0    0 -0.45265244882E+02 -0.65474363432E+02 -0.75800050106E+02  0.10991579621E+03  0.00000000000E+00 0. -1.
         11    1    4    4    0    0 -0.56493758234E+02  0.13724342137E+02 -0.14313444211E+03  0.15449068193E+03  0.00000000000E+00 0.  1.
</event>
<event>
 8    1  0.6692409E-009  0.1374150E+03  0.7561462E-02  0.1216850E+00
         -2   -1    0    0    0  501 -0.00000000000E+00  0.00000000000E+00  0.29513593616E+02  0.29513593616E+02  0.00000000000E+00 0.  1.
          2   -1    0    0  501    0  0.00000000000E+00 -0.00000000000E+00 -0.97524755654E+03  0.97524755654E+03  0.00000000000E+00 0. -1.
         25    2    1    2    0    0 -0.66676597354E+02  0.63772900318E+02 -0.78191668681E+03  0.79721654855E+03  0.12509104171E+03 0.  0.
         23    2    1    2    0    0  0.66676597354E+02 -0.63772900318E+02 -0.16381727611E+03  0.20754460161E+03  0.87897157258E+02 0.  0.
          5    1    3    3  502    0 -0.95960189108E+02  0.14212170447E+02 -0.45513579848E+03  0.46537770804E+03  0.41800000000E+01 0. -1.
         -5    1    3    3    0  502  0.29283591754E+02  0.49560729871E+02 -0.32678088834E+03  0.33183884051E+03  0.41800000000E+01 0. -1.
        -11    1    4    4    0    0  0.29877837450E+02 -0.75659344908E+02 -0.74873995774E+02  0.11055829632E+03  0.00000000000E+00 0.  1.
         11    1    4    4    0    0  0.36798759904E+02  0.11886444590E+02 -0.88943280340E+02  0.96986305287E+02  0.00000000000E+00 0. -1.
</event>
<event>
 8    1  0.6692409E-009  0.1357216E+03  0.7561462E-02  0.1219205E+00
         -1   -1    0    0    0  501 -0.00000000000E+00  0.00000000000E+00  0.58567262104E+02  0.58567262104E+02  0.00000000000E+00 0.  1.
          1   -1    0    0  501    0  0.00000000000E+00 -0.00000000000E+00 -0.32276938255E+03  0.32276938255E+03  0.00000000000E+00 0. -1.
         25    2    1    2    0    0 -0.44512607312E+02 -0.69365884271E+02 -0.12242157679E+03  0.19345923409E+03  0.12508570934E+03 0.  0.
         23    2    1    2    0    0  0.44512607312E+02  0.69365884271E+02 -0.14178054366E+03  0.18787741057E+03  0.91668973649E+02 0.  0.
          5    1    3    3  502    0  0.38952679699E+01 -0.94135336223E+02 -0.87856548877E+02  0.12889096252E+03  0.41800000000E+01 0.  1.
         -5    1    3    3    0  502 -0.48407875282E+02  0.24769451952E+02 -0.34565027910E+02  0.64568271571E+02  0.41800000000E+01 0.  1.
        -11    1    4    4    0    0  0.30711420149E+02 -0.17022447622E+02 -0.49829854120E+02  0.60958751728E+02  0.00000000000E+00 0. -1.
         11    1    4    4    0    0  0.13801187163E+02  0.86388331893E+02 -0.91950689543E+02  0.12691865884E+03  0.00000000000E+00 0.  1.
</event>
<event>
 8    1  0.6692409E-009  0.1266311E+03  0.7561462E-02  0.1232542E+00
         -1   -1    0    0    0  501 -0.00000000000E+00  0.00000000000E+00  0.63966505132E+02  0.63966505132E+02  0.00000000000E+00 0. -1.
          1   -1    0    0  501    0  0.00000000000E+00 -0.00000000000E+00 -0.25592063564E+03  0.25592063564E+03  0.00000000000E+00 0.  1.
         25    2    1    2    0    0  0.15873634962E+02 -0.64593708785E+02 -0.12687169879E+03  0.19018205447E+03  0.12509383034E+03 0.  0.
         23    2    1    2    0    0 -0.15873634962E+02  0.64593708785E+02 -0.65082431723E+02  0.12970508630E+03  0.90351353014E+02 0.  0.
          5    1    3    3  502    0  0.27826953640E+01 -0.10182802372E+03 -0.89343419040E+02  0.13555961321E+03  0.41800000000E+01 0.  1.
         -5    1    3    3    0  502  0.13090939598E+02  0.37234314939E+02 -0.37528279748E+02  0.54622441261E+02  0.41800000000E+01 0.  1.
        -11    1    4    4    0    0  0.37118388504E+02  0.18919255030E+02 -0.30713560321E+02  0.51759402659E+02  0.00000000000E+00 0.  1.
         11    1    4    4    0    0 -0.52992023466E+02  0.45674453754E+02 -0.34368871403E+02  0.77945683641E+02  0.00000000000E+00 0. -1.
</event>
<event>
 8    1  0.6692409E-009  0.1206971E+03  0.7561462E-02  0.1241951E+00
         -1   -1    0    0    0  501 -0.00000000000E+00  0.00000000000E+00  0.16472256023E+03  0.16472256023E+03  0.00000000000E+00 0. -1.
          1   -1    0    0  501    0  0.00000000000E+00 -0.00000000000E+00 -0.14103790078E+03  0.14103790078E+03  0.00000000000E+00 0.  1.
         25    2    1    2    0    0  0.19792538939E+02 -0.62929803544E+02  0.95740879118E+02  0.17078233330E+03  0.12509350368E+03 0.  0.
         23    2    1    2    0    0 -0.19792538939E+02  0.62929803544E+02 -0.72056219667E+02  0.13497812770E+03  0.93140170676E+02 0.  0.
          5    1    3    3  502    0 -0.51991417369E+02 -0.31761758148E+02  0.27951331152E+02  0.67161492493E+02  0.41800000000E+01 0. -1.
         -5    1    3    3    0  502  0.71783956307E+02 -0.31168045396E+02  0.67789547966E+02  0.10362084081E+03  0.41800000000E+01 0. -1.
        -11    1    4    4    0    0  0.30143069593E+02  0.20815322195E+02 -0.57299694184E+02  0.68008361516E+02  0.00000000000E+00 0.  1.
         11    1    4    4    0    0 -0.49935608531E+02  0.42114481348E+02 -0.14756525483E+02  0.66969766186E+02  0.00000000000E+00 0. -1.
</event>
<event>
 8    1  0.6692409E-009  0.1509974E+03  0.7561462E-02  0.1199253E+00
          1   -1    0    0  501    0  0.00000000000E+00  0.00000000000E+00  0.90587471711E+03  0.90587471711E+03  0.00000000000E+00 0. -1.
         -1   -1    0    0    0  501 -0.00000000000E+00 -0.00000000000E+00 -0.25785550792E+02  0.25785550792E+02  0.00000000000E+00 0.  1.
         25    2    1    2    0    0 -0.84793908038E+02  0.65307049014E+02  0.43499225107E+03  0.46510275083E+03  0.12508913960E+03 0.  0.
         23    2    1    2    0    0  0.84793908038E+02 -0.65307049014E+02  0.44509691524E+03  0.46655751707E+03  0.90053513438E+02 0.  0.
          5    1    3    3  502    0 -0.10478469586E+02  0.85569116959E+02  0.20180986688E+03  0.21949161003E+03  0.41800000000E+01 0. -1.
         -5    1    3    3    0  502 -0.74315438451E+02 -0.20262067945E+02  0.23318238419E+03  0.24561114081E+03  0.41800000000E+01 0. -1.
        -11    1    4    4    0    0  0.10215442974E+03 -0.65190119463E+02  0.40767131780E+03  0.42530128444E+03  0.00000000000E+00 0. -1.
         11    1    4    4    0    0 -0.17360521707E+02 -0.11692955059E+00  0.37425597447E+02  0.41256232629E+02  0.00000000000E+00 0.  1.
</event>
<event>
 8    1  0.6692409E-009  0.1160012E+03  0.7561462E-02  0.1249844E+00
         -2   -1    0    0    0  501 -0.00000000000E+00  0.00000000000E+00  0.37037359908E+02  0.37037359908E+02  0.00000000000E+00 0.  1.
          2   -1    0    0  501    0  0.00000000000E+00 -0.00000000000E+00 -0.43286755355E+03  0.43286755355E+03  0.00000000000E+00 0. -1.
         25    2    1    2    0    0  0.59798755956E+02 -0.22136133621E+02 -0.20264472039E+03  0.24653910946E+03  0.12510295827E+03 0.  0.
         23    2    1    2    0    0 -0.59798755956E+02  0.22136133621E+02 -0.19318547326E+03  0.22336580400E+03  0.92226653915E+02 0.  0.
          5    1    3    3  502    0 -0.20056943123E+02 -0.43949196221E+02 -0.35912304820E+02  0.60340524139E+02  0.41800000000E+01 0.  1.
         -5    1    3    3    0  502  0.79855699078E+02  0.21813062600E+02 -0.16673241557E+03  0.18619858532E+03  0.41800000000E+01 0.  1.
        -11    1    4    4    0    0 -0.62619421189E+02  0.45302227296E+02 -0.95118344287E+02  0.12256012046E+03  0.00000000000E+00 0.  1.
         11    1    4    4    0    0  0.28206652335E+01 -0.23166093675E+02 -0.98067128968E+02  0.10080568353E+03  0.00000000000E+00 0. -1.
</event>
<event>
 8    1  0.6692409E-009  0.7755567E+02  0.7561462E-02  0.1336135E+00
          2   -1    0    0  501    0  0.00000000000E+00  0.00000000000E+00  0.12319414457E+02  0.12319414457E+02  0.00000000000E+00 0.  1.
         -2   -1    0    0    0  501 -0.00000000000E+00 -0.00000000000E+00 -0.11516537540E+04  0.11516537540E+04  0.00000000000E+00 0. -1.
         25    2    1    2    0    0  0.13004239431E+02  0.15306400442E+02 -0.86297010077E+03  0.87221999781E+03  0.12508770372E+03 0.  0.
         23    2    1    2    0    0 -0.13004239431E+02 -0.15306400442E+02 -0.27636423874E+03  0.29175317061E+03  0.91319899091E+02 0.  0.
          5    1    3    3  502    0 -0.25948631952E+02  0.13455332823E+02 -0.77881356979E+03  0.77937309831E+03  0.41800000000E+01 0.  1.
         -5    1    3    3    0  502  0.38952871383E+02  0.18510676189E+01 -0.84156530982E+02  0.92846899502E+02  0.41800000000E+01 0.  1.
        -11    1    4    4    0    0 -0.37616730043E+02  0.20557038044E+02 -0.81420670035E+02  0.92015953515E+02  0.00000000000E+00 0.  1.
         11    1    4    4    0    0  0.24612490612E+02 -0.35863438486E+02 -0.19494356871E+03  0.19973721710E+03  0.00000000000E+00 0. -1.
</event>
<event>
 8    1  0.6692409E-009  0.1024337E+03  0.7561462E-02  0.1275260E+00
         -2   -1    0    0    0  501 -0.00000000000E+00  0.00000000000E+00  0.13604867814E+02  0.13604867814E+02  0.00000000000E+00 0.  1.
          2   -1    0    0  501    0  0.00000000000E+00 -0.00000000000E+00 -0.11550985954E+04  0.11550985954E+04  0.00000000000E+00 0. -1.
         25    2    1    2    0    0  0.22487150435E+02  0.36051447510E+02 -0.85197643642E+03  0.86215853326E+03  0.12509240373E+03 0.  0.
         23    2    1    2    0    0 -0.22487150435E+02 -0.36051447510E+02 -0.28951729121E+03  0.30654492999E+03  0.91346337580E+02 0.  0.
          5    1    3    3  502    0 -0.23030246390E+02 -0.35787399865E+02 -0.19151166893E+03  0.19622772988E+03  0.41800000000E+01 0.  1.
         -5    1    3    3    0  502  0.45517396825E+02  0.71838847375E+02 -0.66046476749E+03  0.66593080339E+03  0.41800000000E+01 0.  1.
        -11    1    4    4    0    0  0.19027087176E+02 -0.29243726005E+02 -0.38214548239E+02  0.51745311422E+02  0.00000000000E+00 0.  1.
         11    1    4    4    0    0 -0.41514237611E+02 -0.68077215056E+01 -0.25130274297E+03  0.25479961856E+03  0.00000000000E+00 0. -1.
</event>
<event>
 8    1  0.6692409E-009  0.1318924E+03  0.7561462E-02  0.1224675E+00
          1   -1    0    0  501    0  0.00000000000E+00  0.00000000000E+00  0.70986956999E+02  0.70986956999E+02  0.00000000000E+00 0. -1.
         -1   -1    0    0    0  501 -0.00000000000E+00 -0.00000000000E+00 -0.26979071683E+03  0.26979071683E+03  0.00000000000E+00 0.  1.
         25    2    1    2    0    0 -0.39618815710E+02  0.75903955955E+02 -0.98520765795E+02  0.18078827652E+03  0.12508796323E+03 0.  0.
         23    2    1    2    0    0  0.39618815710E+02 -0.75903955955E+02 -0.10028299404E+03  0.15998939731E+03  0.90602799469E+02 0.  0.
          5    1    3    3  502    0  0.44865338317E+02  0.37645373725E+02 -0.36363027031E+02  0.69063846404E+02  0.41800000000E+01 0. -1.
         -5    1    3    3    0  502 -0.84484154027E+02  0.38258582231E+02 -0.62157738764E+02  0.11172443011E+03  0.41800000000E+01 0. -1.
        -11    1    4    4    0    0  0.50658134482E+02 -0.18742805233E+02 -0.83417698669E+02  0.99378326552E+02  0.00000000000E+00 0.  1.
         11    1    4    4    0    0 -0.11039318772E+02 -0.57161150723E+02 -0.16865295369E+02  0.60611070761E+02  0.00000000000E+00 0. -1.
</event>
<event>
 8    1  0.6692409E-009  0.9851538E+02  0.7561462E-02  0.1283449E+00
          2   -1    0    0  501    0  0.00000000000E+00  0.00000000000E+00  0.30629701210E+03  0.30629701210E+03  0.00000000000E+00 0. -1.
         -2   -1    0    0    0  501 -0.00000000000E+00 -0.00000000000E+00 -0.59153617573E+02  0.59153617573E+02  0.00000000000E+00 0.  1.
         25    2    1    2    0    0  0.44917442251E+02  0.41187080681E+02  0.21602422462E+03  0.25695478684E+03  0.12508135202E+03 0.  0.
         23    2    1    2    0    0 -0.44917442251E+02 -0.41187080681E+02  0.31119169905E+02  0.10849584283E+03  0.84196157531E+02 0.  0.
          5    1    3    3  502    0 -0.22436557766E+02  0.45900607108E+02  0.16338941109E+03  0.17124204190E+03  0.41800000000E+01 0.  1.
         -5    1    3    3    0  502  0.67354000017E+02 -0.47135264271E+01  0.52634813530E+02  0.85712744939E+02  0.41800000000E+01 0.  1.
        -11    1    4    4    0    0 -0.43775621515E+02 -0.74982891937E+01 -0.18827330400E+02  0.48238965058E+02  0.00000000000E+00 0.  1.
         11    1    4    4    0    0 -0.11418207356E+01 -0.33688791487E+02  0.49946500305E+02  0.60256877775E+02  0.00000000000E+00 0. -1.
</event>
<event>
 8    1  0.6692409E-009  0.7552064E+02  0.7561462E-02  0.1342266E+00
          2   -1    0    0  501    0  0.00000000000E+00  0.00000000000E+00  0.76116616043E+03  0.76116616043E+03  0.00000000000E+00 0. -1.
         -2   -1    0    0    0  501 -0.00000000000E+00 -0.00000000000E+00 -0.16604414447E+02  0.16604414447E+02  0.00000000000E+00 0.  1.
         25    2    1    2    0    0  0.84694504909E+01  0.29715907888E+02  0.42281278552E+03  0.44201082703E+03  0.12509257707E+03 0.  0.
         23    2    1    2    0    0 -0.84694504909E+01 -0.29715907888E+02  0.32174896046E+03  0.33575974785E+03  0.90870500950E+02 0.  0.
          5    1    3    3  502    0 -0.18975637303E+02  0.36928708263E+02  0.40724091516E+03  0.40937322785E+03  0.41800000000E+01 0. -1.
         -5    1    3    3    0  502  0.27445087794E+02 -0.72128003748E+01  0.15571870360E+02  0.32637599173E+02  0.41800000000E+01 0. -1.
        -11    1    4    4    0    0 -0.16767615720E+02 -0.53169666891E+02  0.29057759165E+03  0.29587751382E+03  0.00000000000E+00 0. -1.
         11    1    4    4    0    0  0.82981652292E+01  0.23453759003E+02  0.31171368812E+02  0.39882234029E+02  0.00000000000E+00 0.  1.
</event>
<event>
 8    1  0.6692409E-009  0.1220851E+03  0.7561462E-02  0.1239696E+00
          1   -1    0    0  501    0  0.00000000000E+00  0.00000000000E+00  0.29390789674E+03  0.29390789674E+03  0.00000000000E+00 0. -1.
         -1   -1    0    0    0  501 -0.00000000000E+00 -0.00000000000E+00 -0.58559716062E+02  0.58559716062E+02  0.00000000000E+00 0.  1.
         25    2    1    2    0    0  0.71867849423E+02  0.14185916835E+02  0.14987575518E+03  0.20851028610E+03  0.12509024503E+03 0.  0.
         23    2    1    2    0    0 -0.71867849423E+02 -0.14185916835E+02  0.85472425507E+02  0.14395732671E+03  0.89732649430E+02 0.  0.
          5    1    3    3  502    0  0.10046814447E+03  0.27125071042E+00  0.14440744127E+03  0.17596847196E+03  0.41800000000E+01 0. -1.
         -5    1    3    3    0  502 -0.28600295049E+02  0.13914666125E+02  0.54683139043E+01  0.32541814135E+02  0.41800000000E+01 0. -1.
        -11    1    4    4    0    0 -0.46597974161E+02 -0.49583707740E+02  0.32467061065E+02  0.75392475244E+02  0.00000000000E+00 0.  1.
         11    1    4    4    0    0 -0.25269875262E+02  0.35397790905E+02  0.53005364442E+02  0.68564851464E+02  0.00000000000E+00 0. -1.
</event>
<event>
 8    1  0.6692409E-009  0.9515894E+02  0.7561462E-02  0.1290819E+00
          1   -1    0    0  501    0  0.00000000000E+00  0.00000000000E+00  0.47823363567E+02  0.47823363567E+02  0.00000000000E+00 0. -1.
         -1   -1    0    0    0  501 -0.00000000000E+00 -0.00000000000E+00 -0.26031525477E+03  0.26031525477E+03  0.00000000000E+00 0.  1.
         25    2    1    2    0    0  0.23532252920E+01  0.19321949624E+02 -0.96361210859E+02  0.15908625407E+03  0.12507628820E+03 0.  0.
         23    2    1    2    0    0 -0.23532252920E+01 -0.19321949624E+02 -0.11613068034E+03  0.14905236426E+03  0.91385977966E+02 0.  0.
          5    1    3    3  502    0 -0.32301118378E+02 -0.30047488552E+02 -0.87361100745E+02  0.97957379202E+02  0.41800000000E+01 0. -1.
         -5    1    3    3    0  502  0.34654343670E+02  0.49369438176E+02 -0.90001101136E+01  0.61128874871E+02  0.41800000000E+01 0. -1.
        -11    1    4    4    0    0  0.17868595306E+02 -0.47562184121E+02 -0.96744838231E+02  0.10927493665E+03  0.00000000000E+00 0.  1.
         11    1    4    4    0    0 -0.20221820598E+02  0.28240234497E+02 -0.19385842113E+02  0.39777427609E+02  0.00000000000E+00 0. -1.
</event>
<event>
 8    1  0.6692409E-009  0.1273775E+03  0.7561462E-02  0.1231400E+00
          2   -1    0    0  501    0  0.00000000000E+00  0.00000000000E+00  0.80584114759E+03  0.80584114759E+03  0.00000000000E+00 0. -1.
         -2   -1    0    0    0  501 -0.00000000000E+00 -0.00000000000E+00 -0.21160909902E+02  0.21160909902E+02  0.00000000000E+00 0.  1.
         25    2    1    2    0    0  0.61738953844E+02 -0.35123099151E+02  0.38123801254E+03  0.40747429180E+03  0.12509015054E+03 0.  0.
         23    2    1    2    0    0 -0.61738953844E+02  0.35123099151E+02  0.40344222515E+03  0.41952776568E+03  0.90512908644E+02 0.  0.
          5    1    3    3  502    0 -0.29057389515E+02  0.21621913974E+02  0.10732265350E+03  0.11334665149E+03  0.41800000000E+01 0.  1.
         -5    1    3    3    0  502  0.90796343360E+02 -0.56745013125E+02  0.27391535903E+03  0.29412764031E+03  0.41800000000E+01 0.  1.
        -11    1    4    4    0    0  0.33762936174E+01  0.45136901191E+02  0.11344415907E+03  0.12214056015E+03  0.00000000000E+00 0.  1.
         11    1    4    4    0    0 -0.65115247462E+02 -0.10013802040E+02  0.28999806608E+03  0.29738720553E+03  0.00000000000E+00 0. -1.
</event>
<event>
 8    1  0.6692409E-009  0.6851135E+02  0.7561462E-02  0.1365230E+00
          1   -1    0    0  501    0  0.00000000000E+00  0.00000000000E+00  0.54618886860E+03  0.54618886860E+03  0.00000000000E+00 0. -1.
         -1   -1    0    0    0  501 -0.00000000000E+00 -0.00000000000E+00 -0.29235889424E+02  0.29235889424E+02  0.00000000000E+00 0.  1.
         25    2    1    2    0    0  0.18375511465E+02 -0.50491453437E+01  0.43000895940E+03  0.44823563825E+03  0.12507729190E+03 0.  0.
         23    2    1    2    0    0 -0.18375511465E+02  0.50491453437E+01  0.86944019775E+02  0.12718911977E+03  0.90855139218E+02 0.  0.
          5    1    3    3  502    0  0.26467309963E+02 -0.14995467005E+02  0.17177798055E+02  0.35184253202E+02  0.41800000000E+01 0. -1.
         -5    1    3    3    0  502 -0.80917984986E+01  0.99463216611E+01  0.41283116134E+03  0.41305138505E+03  0.41800000000E+01 0. -1.
        -11    1    4    4    0    0 -0.53194386373E+02 -0.11273027365E+02  0.51300811401E+02  0.74756251498E+02  0.00000000000E+00 0.  1.
         11    1    4    4    0    0  0.34818874908E+02  0.16322172709E+02  0.35643208374E+02  0.52432868270E+02  0.00000000000E+00 0. -1.
</event>
<event>
 8    1  0.6692409E-009  0.1486607E+03  0.7561462E-02  0.1202128E+00
         -1   -1    0    0    0  501 -0.00000000000E+00  0.00000000000E+00  0.78370634996E+02  0.78370634996E+02  0.00000000000E+00 0.  1.
          1   -1    0    0  501    0  0.00000000000E+00 -0.00000000000E+00 -0.41395658586E+03  0.41395658586E+03  0.00000000000E+00 0. -1.
         25    2    1    2    0    0 -0.42287115204E+02  0.10859071423E+03 -0.62733872849E+02  0.18210656082E+03  0.12508843816E+03 0.  0.
         23    2    1    2    0    0  0.42287115204E+02 -0.10859071423E+03 -0.27285207802E+03  0.31022066004E+03  0.90600541416E+02 0.  0.
          5    1    3    3  502    0 -0.74309140199E+02  0.11362140696E+03 -0.37773425719E+02  0.14098218514E+03  0.41800000000E+01 0.  1.
         -5    1    3    3    0  502  0.32022024994E+02 -0.50306927285E+01 -0.24960447130E+02  0.41124375679E+02  0.41800000000E+01 0.  1.
        -11    1    4    4    0    0 -0.12969991793E+02 -0.30537546138E+02 -0.17419436410E+02  0.37472645704E+02  0.00000000000E+00 0.  1.
         11    1    4    4    0    0  0.55257106997E+02 -0.78053168096E+02 -0.25543264161E+03  0.27274801433E+03  0.00000000000E+00 0. -1.
</event>
<event>
 8    1  0.6692409E-009  0.7068655E+02  0.7561462E-02  0.1357774E+00
         -2   -1    0    0    0  501 -0.00000000000E+00  0.00000000000E+00  0.17655160051E+03  0.17655160051E+03  0.00000000000E+00 0.  1.
          2   -1    0    0  501    0  0.00000000000E+00 -0.00000000000E+00 -0.11690675774E+03  0.11690675774E+03  0.00000000000E+00 0. -1.
         25    2    1    2    0    0  0.33820979376E+01 -0.37108074644E+02  0.12151813014E+03  0.17833408052E+03  0.12509172847E+03 0.  0.
         23    2    1    2    0    0 -0.33820979376E+01  0.37108074644E+02 -0.61873287370E+02  0.11512427773E+03  0.89648468154E+02 0.  0.
          5    1    3    3  502    0 -0.48714448710E+01  0.22616717374E+02 -0.15785352700E+02  0.28317779570E+02  0.41800000000E+01 0. -1.
         -5    1    3    3    0  502  0.82535428086E+01 -0.59724792018E+02  0.13730348284E+03  0.15001630095E+03  0.41800000000E+01 0. -1.
        -11    1    4    4    0    0 -0.22525935720E+02  0.28784702759E+02  0.11911835697E+02  0.38443058186E+02  0.00000000000E+00 0.  1.
         11    1    4    4    0    0  0.19143837782E+02  0.83233718848E+01 -0.73785123067E+02  0.76681219543E+02  0.00000000000E+00 0. -1.
</event>
<event>
 8    1  0.6692409E-009  0.1091421E+03  0.7561462E-02  0.1262167E+00
         -2   -1    0    0    0  501 -0.00000000000E+00  0.00000000000E+00  0.88654398082E+02  0.88654398082E+02  0.00000000000E+00 0.  1.
          2   -1    0    0  501    0  0.00000000000E+00 -0.00000000000E+00 -0.17390551156E+03  0.17390551156E+03  0.00000000000E+00 0. -1.
         25    2    1    2    0    0  0.50847205724E+02 -0.12583830717E+02 -0.88640107197E+02  0.16201423326E+03  0.12509097509E+03 0.  0.
         23    2    1    2    0    0 -0.50847205724E+02  0.12583830717E+02  0.33889937151E+01  0.10054567638E+03  0.85756379563E+02 0.  0.
          5    1    3    3  502    0  0.77287372531E+02  0.31462392086E+02 -0.47837292565E+02  0.96276160230E+02  0.41800000000E+01 0.  1.
         -5    1    3    3    0  502 -0.26440166807E+02 -0.44046222803E+02 -0.40802814632E+02  0.65738073032E+02  0.41800000000E+01 0.  1.
        -11    1    4    4    0    0 -0.71022849247E+01  0.33824578302E+02  0.29419642931E+02  0.45387883170E+02  0.00000000000E+00 0.  1.
         11    1    4    4    0    0 -0.43744920799E+02 -0.21240747585E+02 -0.26030649216E+02  0.55157793215E+02  0.00000000000E+00 0. -1.
</event>
<event>
 8    1  0.6692409E-009  0.1168123E+03  0.7561462E-02  0.1248450E+00
         -1   -1    0    0    0  501 -0.00000000000E+00  0.00000000000E+00  0.60702280412E+02  0.60702280412E+02  0.00000000000E+00 0.  1.
          1   -1    0    0  501    0  0.00000000000E+00 -0.00000000000E+00 -0.31614945404E+03  0.31614945404E+03  0.00000000000E+00 0. -1.
         25    2    1    2    0    0  0.47367008352E+02  0.26047021339E+02 -0.23126022769E+03  0.26842189149E+03  0.12508772169E+03 0.  0.
         23    2    1    2    0    0 -0.47367008352E+02 -0.26047021339E+02 -0.24186945941E+02  0.10842984297E+03  0.90829189645E+02 0.  0.
          5    1    3    3  502    0 -0.29820881812E+02  0.41120742042E+02 -0.13340899126E+03  0.14281327588E+03  0.41800000000E+01 0. -1.
         -5    1    3    3    0  502  0.77187890164E+02 -0.15073720702E+02 -0.97851236428E+02  0.12560861561E+03  0.41800000000E+01 0. -1.
        -11    1    4    4    0    0 -0.18755456055E+01  0.30932009359E+02  0.17608729736E+01  0.31038807128E+02  0.00000000000E+00 0.  1.
         11    1    4    4    0    0 -0.45491462747E+02 -0.56979030699E+02 -0.25947818914E+02  0.77391035841E+02  0.00000000000E+00 0. -1.
</event>
<event>
 8    1  0.6692409E-009  0.1650825E+03  0.7561462E-02  0.1183075E+00
         -2   -1    0    0    0  501 -0.00000000000E+00  0.00000000000E+00  0.21386098661E+03  0.21386098661E+03  0.00000000000E+00 0. -1.
          2   -1    0    0  501    0  0.00000000000E+00 -0.00000000000E+00 -0.25613208652E+03  0.25613208652E+03  0.00000000000E+00 0.  1.
         25    2    1    2    0    0 -0.61250006203E+02 -0.14055725126E+03 -0.16212251198E+03  0.25582313103E+03  0.12511539209E+03 0.  0.
         23    2    1    2    0    0  0.61250006203E+02  0.14055725126E+03  0.11985141207E+03  0.21416994209E+03  0.89423145658E+02 0.  0.
          5    1    3    3  502    0 -0.79399796832E+02 -0.12539624477E+03 -0.76760489572E+02  0.16714721385E+03  0.41800000000E+01 0.  1.
         -5    1    3    3    0  502  0.18149790630E+02 -0.15161006490E+02 -0.85362022409E+02  0.88675917179E+02  0.41800000000E+01 0.  1.
        -11    1    4    4    0    0  0.48365800388E+02  0.13542366312E+03  0.65390350979E+02  0.15797062126E+03  0.00000000000E+00 0. -1.
         11    1    4    4    0    0  0.12884205815E+02  0.51335881365E+01  0.54461061092E+02  0.56199320831E+02  0.00000000000E+00 0.  1.
</event>
<event>
 8    1  0.6692409E-009  0.1403682E+03  0.7561462E-02  0.1212834E+00
         -4   -1    0    0    0  501 -0.00000000000E+00  0.00000000000E+00  0.74081652226E+03  0.74081652226E+03  0.00000000000E+00 0.  1.
          4   -1    0    0  501    0  0.00000000000E+00 -0.00000000000E+00 -0.30300234017E+02  0.30300234017E+02  0.00000000000E+00 0. -1.
         25    2    1    2    0    0 -0.94137844253E+02  0.21459776220E+02  0.28359351003E+03  0.32464556903E+03  0.12508801237E+03 0.  0.
         23    2    1    2    0    0  0.94137844253E+02 -0.21459776220E+02  0.42692277821E+03  0.44647118725E+03  0.88039802224E+02 0.  0.
          5    1    3    3  502    0 -0.10056232922E+03 -0.27981129897E+02  0.22153910734E+03  0.24493422417E+03  0.41800000000E+01 0.  1.
         -5    1    3    3    0  502  0.64244849720E+01  0.49440906117E+02  0.62054402691E+02  0.79711344852E+02  0.41800000000E+01 0.  1.
        -11    1    4    4    0    0  0.10724450551E+03 -0.29028403144E+02  0.40402903408E+03  0.41902683987E+03  0.00000000000E+00 0.  1.
         11    1    4    4    0    0 -0.13106661261E+02  0.75686269238E+01  0.22893744130E+02  0.27444347382E+02  0.00000000000E+00 0. -1.
</event>
<event>
 8    1  0.6692409E-009  0.5785001E+02  0.7561462E-02  0.1407082E+00
         -1   -1    0    0    0  501 -0.00000000000E+00  0.00000000000E+00  0.30685480045E+02  0.30685480045E+02  0.00000000000E+00 0.  1.
          1   -1    0    0  501    0  0.00000000000E+00 -0.00000000000E+00 -0.42174723397E+03  0.42174723397E+03  0.00000000000E+00 0. -1.
         25    2    1    2    0    0 -0.22649901151E+02 -0.32937455117E+02 -0.23523573288E+03  0.26941029682E+03  0.12509262184E+03 0.  0.
         23    2    1    2    0    0  0.22649901151E+02  0.32937455117E+02 -0.15582602105E+03  0.18302241720E+03  0.87278647955E+02 0.  0.
          5    1    3    3  502    0 -0.26631506910E+02 -0.20859722639E+02 -0.24834542555E+03  0.25067366830E+03  0.41800000000E+01 0. -1.
         -5    1    3    3    0  502  0.39816057587E+01 -0.12077732479E+02  0.13109692672E+02  0.18736628517E+02  0.41800000000E+01 0. -1.
        -11    1    4    4    0    0  0.16619780794E+02  0.48643293261E+02 -0.15791377442E+03  0.16606970598E+03  0.00000000000E+00 0. -1.
         11    1    4    4    0    0  0.60301203570E+01 -0.15705838144E+02  0.20877533751E+01  0.16952711213E+02  0.00000000000E+00 0.  1.
</event>
<event>
 8    1  0.6692409E-009  0.9729788E+02  0.7561462E-02  0.1286083E+00
          1   -1    0    0  501    0  0.00000000000E+00  0.00000000000E+00  0.38107015490E+03  0.38107015490E+03  0.00000000000E+00 0. -1.
         -1   -1    0    0    0  501 -0.00000000000E+00 -0.00000000000E+00 -0.36524618373E+02  0.36524618373E+02  0.00000000000E+00 0.  1.
         25    2    1    2    0    0 -0.26504644420E+02 -0.12486496731E+02  0.26126557774E+03  0.29114571754E+03  0.12509083879E+03 0.  0.
         23    2    1    2    0    0  0.26504644420E+02  0.12486496731E+02  0.83279958789E+02  0.12644905574E+03  0.90528467266E+02 0.  0.
          5    1    3    3  502    0 -0.20210841967E+02 -0.53741824295E+02  0.23433446624E+03  0.24130225088E+03  0.41800000000E+01 0.  1.
         -5    1    3    3    0  502 -0.62938024527E+01  0.41255327564E+02  0.26931111507E+02  0.49843466660E+02  0.41800000000E+01 0.  1.
        -11    1    4    4    0    0  0.95146453344E+01 -0.39377055982E+02  0.33165084678E+02  0.52354597270E+02  0.00000000000E+00 0.  1.
         11    1    4    4    0    0  0.16989999086E+02  0.51863552713E+02  0.50114874110E+02  0.74094458470E+02  0.00000000000E+00 0. -1.
</event>
<event>
 8    1  0.6692409E-009  0.1767913E+03  0.7561462E-02  0.1170945E+00
          2   -1    0    0  501    0  0.00000000000E+00  0.00000000000E+00  0.37228500719E+03  0.37228500719E+03  0.00000000000E+00 0. -1.
         -2   -1    0    0    0  501 -0.00000000000E+00 -0.00000000000E+00 -0.95468000384E+02  0.95468000384E+02  0.00000000000E+00 0.  1.
         25    2    1    2    0    0  0.20019507320E+02 -0.15028893007E+03  0.12594429151E+03  0.23344627496E+03  0.12509058938E+03 0.  0.
         23    2    1    2    0    0 -0.20019507320E+02  0.15028893007E+03  0.15087271529E+03  0.23430673261E+03  0.95653152347E+02 0.  0.
          5    1    3    3  502    0  0.35429955835E+02 -0.16019104405E+03  0.13507752909E+03  0.21255555421E+03  0.41800000000E+01 0. -1.
         -5    1    3    3    0  502 -0.15410448515E+02  0.99021139743E+01 -0.91332375729E+01  0.20890720743E+02  0.41800000000E+01 0. -1.
        -11    1    4    4    0    0  0.30249698564E+02  0.48646965347E+02  0.18927783389E+02  0.60331024231E+02  0.00000000000E+00 0.  1.
         11    1    4    4    0    0 -0.50269205884E+02  0.10164196472E+03  0.13194493190E+03  0.17397570838E+03  0.00000000000E+00 0. -1.
</event>
<event>
 8    1  0.6692409E-009  0.1554859E+03  0.7561462E-02  0.1193889E+00
          2   -1    0    0  501    0  0.00000000000E+00  0.00000000000E+00  0.91372054232E+03  0.91372054232E+03  0.00000000000E+00 0. -1.
         -2   -1    0    0    0  501 -0.00000000000E+00 -0.00000000000E+00 -0.29471414621E+02  0.29471414621E+02  0.00000000000E+00 0.  1.
         25    2    1    2    0    0  0.51131577483E+02  0.11042394145E+03  0.42527440396E+03  0.45969046242E+03  0.12509643286E+03 0.  0.
         23    2    1    2    0    0 -0.51131577483E+02 -0.11042394145E+03  0.45897472375E+03  0.48350149453E+03  0.91148302843E+02 0.  0.
          5    1    3    3  502    0 -0.56948508373E+01 -0.21183587127E+02  0.12435681887E+03  0.12634582102E+03  0.41800000000E+01 0. -1.
         -5    1    3    3    0  502  0.56826428321E+02  0.13160752858E+03  0.30091758508E+03  0.33334464140E+03  0.41800000000E+01 0. -1.
        -11    1    4    4    0    0 -0.18925513559E+02 -0.11141133941E+03  0.40657285369E+03  0.42198595589E+03  0.00000000000E+00 0.  1.
         11    1    4    4    0    0 -0.32206063924E+02  0.98739796023E+00  0.52401870060E+02  0.61515538639E+02  0.00000000000E+00 0. -1.
</event>
<event>
 8    1  0.6692409E-009  0.1320271E+03  0.7561462E-02  0.1224478E+00
          1   -1    0    0  501    0  0.00000000000E+00  0.00000000000E+00  0.57015331679E+02  0.57015331679E+02  0.00000000000E+00 0. -1.
         -1   -1    0    0    0  501 -0.00000000000E+00 -0.00000000000E+00 -0.31178445689E+03  0.31178445689E+03  0.00000000000E+00 0.  1.
         25    2    1    2    0    0 -0.27281982039E+02 -0.72998213921E+02 -0.14464164988E+03  0.20649935212E+03  0.12509088603E+03 0.  0.
         23    2    1    2    0    0  0.27281982039E+02  0.72998213921E+02 -0.11012747533E+03  0.16230043644E+03  0.90223750022E+02 0.  0.
          5    1    3    3  502    0 -0.14801420462E+02  0.34280605210E+02 -0.51951332921E+02  0.64114392561E+02  0.41800000000E+01 0.  1.
         -5    1    3    3    0  502 -0.12480561576E+02 -0.10727881913E+03 -0.92690316962E+02  0.14238495956E+03  0.41800000000E+01 0.  1.
        -11    1    4    4    0    0 -0.84474673095E+01  0.81283095015E+02 -0.66918986534E+02  0.10562410709E+03  0.00000000000E+00 0. -1.
         11    1    4    4    0    0  0.35729449348E+02 -0.82848810949E+01 -0.43208488791E+02  0.56676329355E+02  0.00000000000E+00 0.  1.
</event>
<event>
 8    1  0.6692409E-009  0.1929794E+03  0.7561462E-02  0.1155801E+00
          1   -1    0    0  501    0  0.00000000000E+00  0.00000000000E+00  0.55792776091E+03  0.55792776091E+03  0.00000000000E+00 0. -1.
         -1   -1    0    0    0  501 -0.00000000000E+00 -0.00000000000E+00 -0.82370636970E+02  0.82370636970E+02  0.00000000000E+00 0.  1.
         25    2    1    2    0    0 -0.92341322348E+02 -0.14581874427E+03  0.15017036283E+03  0.26074382035E+03  0.12508467526E+03 0.  0.
         23    2    1    2    0    0  0.92341322348E+02  0.14581874427E+03  0.32538676111E+03  0.37955457753E+03  0.91624816643E+02 0.  0.
          5    1    3    3  502    0 -0.41171969935E+02  0.15123849170E+02  0.35280417753E+02  0.56445036973E+02  0.41800000000E+01 0. -1.
         -5    1    3    3    0  502 -0.51169352413E+02 -0.16094259344E+03  0.11488994508E+03  0.20429878338E+03  0.41800000000E+01 0. -1.
        -11    1    4    4    0    0  0.65371305249E+02  0.93243026260E+02  0.28783402465E+03  0.30954175040E+03  0.00000000000E+00 0. -1.
         11    1    4    4    0    0  0.26970017099E+02  0.52575718010E+02  0.37552736457E+02  0.70012827125E+02  0.00000000000E+00 0.  1.
</event>
<event>
 8    1  0.6692409E-009  0.9268883E+02  0.7561462E-02  0.1296468E+00
          2   -1    0    0  501    0  0.00000000000E+00  0.00000000000E+00  0.79619083023E+02  0.79619083023E+02  0.00000000000E+00 0. -1.
         -2   -1    0    0    0  501 -0.00000000000E+00 -0.00000000000E+00 -0.18878451865E+03  0.18878451865E+03  0.00000000000E+00 0.  1.
         25    2    1    2    0    0  0.18997118376E+02 -0.46862991556E+02 -0.88702336845E+02  0.16147343639E+03  0.12509410703E+03 0.  0.
         23    2    1    2    0    0 -0.18997118376E+02  0.46862991556E+02 -0.20463098781E+02  0.10693016529E+03  0.91968969506E+02 0.  0.
          5    1    3    3  502    0  0.42288342536E+02  0.31536044600E+02 -0.31541552125E+02  0.61604934331E+02  0.41800000000E+01 0. -1.
         -5    1    3    3    0  502 -0.23291224160E+02 -0.78399036156E+02 -0.57160784721E+02  0.99868502056E+02  0.41800000000E+01 0. -1.
        -11    1    4    4    0    0 -0.13933491256E+02  0.34589563847E+02  0.34248032610E+02  0.50631095617E+02  0.00000000000E+00 0. -1.
         11    1    4    4    0    0 -0.50636271199E+01  0.12273427709E+02 -0.54711131392E+02  0.56299069668E+02  0.00000000000E+00 0.  1.
</event>
<event>
 8    1  0.6692409E-009  0.1200771E+03  0.7561462E-02  0.1242970E+00
          2   -1    0    0  501    0  0.00000000000E+00  0.00000000000E+00  0.73588503796E+03  0.73588503796E+03  0.00000000000E+00 0.  1.
         -2   -1    0    0    0  501 -0.00000000000E+00 -0.00000000000E+00 -0.22033551214E+02  0.22033551214E+02  0.00000000000E+00 0. -1.
         25    2    1    2    0    0  0.56476437862E+02  0.24312969277E+02  0.31961049792E+03  0.34867943950E+03  0.12508306297E+03 0.  0.
         23    2    1    2    0    0 -0.56476437862E+02 -0.24312969277E+02  0.39424098883E+03  0.40923914967E+03  0.90939627470E+02 0.  0.
          5    1    3    3  502    0  0.56195531088E+02  0.69996953526E+02  0.24649087585E+03  0.26235993500E+03  0.41800000000E+01 0. -1.
         -5    1    3    3    0  502  0.28090677433E+00 -0.45683984249E+02  0.73119622069E+02  0.86319504499E+02  0.41800000000E+01 0. -1.
        -11    1    4    4    0    0 -0.61636181583E+02  0.16077711327E+02  0.17462174776E+03  0.18587701975E+03  0.00000000000E+00 0.  1.
         11    1    4    4    0    0  0.51597437215E+01 -0.40390680604E+02  0.21961924107E+03  0.22336212992E+03  0.00000000000E+00 0. -1.
</event>
<event>
 8    1  0.6692409E-009  0.1015665E+03  0.7561462E-02  0.1277036E+00
         -1   -1    0    0    0  501 -0.00000000000E+00  0.00000000000E+00  0.84999028965E+02  0.84999028965E+02  0.00000000000E+00 0.  1.
          1   -1    0    0  501    0  0.00000000000E+00 -0.00000000000E+00 -0.20066418889E+03  0.20066418889E+03  0.00000000000E+00 0. -1.
         25    2    1    2    0    0  0.31164784043E+02 -0.39001384685E+02 -0.71688290131E+01  0.13487591873E+03  0.12509104513E+03 0.  0.
         23    2    1    2    0    0 -0.31164784043E+02  0.39001384685E+02 -0.10849633091E+03  0.15078729912E+03  0.92048921686E+02 0.  0.
          5    1    3    3  502    0  0.77254590539E+02 -0.21815805599E+02  0.13220059840E+02  0.81464369607E+02  0.41800000000E+01 0.  1.
         -5    1    3    3    0  502 -0.46089806496E+02 -0.17185579086E+02 -0.20388888854E+02  0.53411549126E+02  0.41800000000E+01 0.  1.
        -11    1    4    4    0    0  0.14873681910E+02  0.16246709366E+02  0.80312104817E+01  0.23445304873E+02  0.00000000000E+00 0.  1.
         11    1    4    4    0    0 -0.46038465953E+02  0.22754675319E+02 -0.11652754139E+03  0.12734199425E+03  0.00000000000E+00 0. -1.
</event>
<event>
 8    1  0.6692409E-009  0.1264312E+03  0.7561462E-02  0.1232849E+00
         -3   -1    0    0    0  501 -0.00000000000E+00  0.00000000000E+00  0.49775505134E+03  0.49775505134E+03  0.00000000000E+00 0.  1.
          3   -1    0    0  501    0  0.00000000000E+00 -0.00000000000E+00 -0.46730731848E+02  0.46730731848E+02  0.00000000000E+00 0. -1.
         25    2    1    2    0    0  0.10126962826E+03  0.13740076698E+02  0.29667872501E+03  0.33780200854E+03  0.12509038247E+03 0.  0.
         23    2    1    2    0    0 -0.10126962826E+03 -0.13740076698E+02  0.15434559448E+03  0.20668377465E+03  0.91930913459E+02 0.  0.
          5    1    3    3  502    0  0.12095348817E+03  0.28550078795E+02  0.18193405673E+03  0.22036861550E+03  0.41800000000E+01 0. -1.
         -5    1    3    3    0  502 -0.19683859906E+02 -0.14810002097E+02  0.11474466827E+03  0.11743339304E+03  0.41800000000E+01 0. -1.
        -11    1    4    4    0    0 -0.37094464713E+02 -0.13135719156E+02 -0.18950049847E+00  0.39352030958E+02  0.00000000000E+00 0. -1.
         11    1    4    4    0    0 -0.64175163550E+02 -0.60435754170E+00  0.15453509498E+03  0.16733174369E+03  0.00000000000E+00 0.  1.
</event>
<event>
 8    1  0.6692409E-009  0.1191596E+03  0.7561462E-02  0.1244490E+00
         -1   -1    0    0    0  501 -0.00000000000E+00  0.00000000000E+00  0.47448527389E+03  0.47448527389E+03  0.00000000000E+00 0.  1.
          1   -1    0    0  501    0  0.00000000000E+00 -0.00000000000E+00 -0.39867260468E+02  0.39867260468E+02  0.00000000000E+00 0. -1.
         25    2    1    2    0    0  0.66975902647E+02 -0.51651639624E+02  0.24324356885E+03  0.28630174283E+03  0.12509033037E+03 0.  0.
         23    2    1    2    0    0 -0.66975902647E+02  0.51651639624E+02  0.19137444458E+03  0.22805079153E+03  0.90715610939E+02 0.  0.
          5    1    3    3  502    0  0.24961219086E+02  0.20196182751E+02  0.35965576291E+01  0.32578457341E+02  0.41800000000E+01 0. -1.
         -5    1    3    3    0  502  0.42014683561E+02 -0.71847822375E+02  0.23964701122E+03  0.25372328549E+03  0.41800000000E+01 0. -1.
        -11    1    4    4    0    0 -0.84247862198E+01  0.62492631661E+02  0.81143705148E+02  0.10276481363E+03  0.00000000000E+00 0. -1.
         11    1    4    4    0    0 -0.58551116427E+02 -0.10840992038E+02  0.11023073943E+03  0.12528597790E+03  0.00000000000E+00 0.  1.
</event>
<event>
 8    1  0.6692409E-009  0.1295678E+03  0.7561462E-02  0.1228098E+00
         -1   -1    0    0    0  501 -0.00000000000E+00  0.00000000000E+00  0.31448265063E+02  0.31448265063E+02  0.00000000000E+00 0.  1.
          1   -1    0    0  501    0  0.00000000000E+00 -0.00000000000E+00 -0.60731208796E+03  0.60731208796E+03  0.00000000000E+00 0. -1.
         25    2    1    2    0    0  0.74390736296E+02  0.26558765414E+02 -0.23747611705E+03  0.27979062681E+03  0.12509412062E+03 0.  0.
         23    2    1    2    0    0 -0.74390736296E+02 -0.26558765414E+02 -0.33838770585E+03  0.35896972621E+03  0.90075941316E+02 0.  0.
          5    1    3    3  502    0  0.77719592547E+01 -0.44107927111E+02 -0.11460786995E+03  0.12311924642E+03  0.41800000000E+01 0. -1.
         -5    1    3    3    0  502  0.66618777042E+02  0.70666692525E+02 -0.12286824710E+03  0.15667138039E+03  0.41800000000E+01 0. -1.
        -11    1    4    4    0    0 -0.81152604304E+02 -0.48121880320E+02 -0.23689535573E+03  0.25499190206E+03  0.00000000000E+00 0.  1.
         11    1    4    4    0    0  0.67618680080E+01  0.21563114906E+02 -0.10149235012E+03  0.10397782415E+03  0.00000000000E+00 0. -1.
</event>
<event>
 8    1  0.6692409E-009  0.1494256E+03  0.7561462E-02  0.1201181E+00
          1   -1    0    0  501    0  0.00000000000E+00  0.00000000000E+00  0.24099873834E+03  0.24099873834E+03  0.00000000000E+00 0. -1.
         -1   -1    0    0    0  501 -0.00000000000E+00 -0.00000000000E+00 -0.10544711763E+03  0.10544711763E+03  0.00000000000E+00 0.  1.
         25    2    1    2    0    0 -0.92520900050E+02  0.64407455865E+02  0.39112505694E+02  0.17287433440E+03  0.12508920847E+03 0.  0.
         23    2    1    2    0    0  0.92520900050E+02 -0.64407455865E+02  0.96439115014E+02  0.17357152156E+03  0.90100681885E+02 0.  0.
          5    1    3    3  502    0  0.70473549371E+01 -0.24370106640E+02  0.29400827006E+02  0.39056988336E+02  0.41800000000E+01 0.  1.
         -5    1    3    3    0  502 -0.99568254987E+02  0.88777562505E+02  0.97116786882E+01  0.13381734607E+03  0.41800000000E+01 0.  1.
        -11    1    4    4    0    0  0.48133680170E+02  0.13517673172E+02  0.14402068546E+02  0.52028821177E+02  0.00000000000E+00 0.  1.
         11    1    4    4    0    0  0.44387219880E+02 -0.77925129037E+02  0.82037046467E+02  0.12154270039E+03  0.00000000000E+00 0. -1.
</event>
<event>
 8    1  0.6692409E-009  0.2870190E+03  0.7561462E-02  0.1091916E+00
          1   -1    0    0  501    0  0.00000000000E+00  0.00000000000E+00  0.33674068042E+03  0.33674068042E+03  0.00000000000E+00 0. -1.
         -1   -1    0    0    0  501 -0.00000000000E+00 -0.00000000000E+00 -0.29562461772E+03  0.29562461772E+03  0.00000000000E+00 0.  1.
         25    2    1    2    0    0 -0.43116917968E+02  0.28251600477E+03  0.97991792579E+02  0.32699473384E+03  0.12509517568E+03 0.  0.
         23    2    1    2    0    0  0.43116917968E+02 -0.28251600477E+03 -0.56875729880E+02  0.30537056430E+03  0.91334392876E+02 0.  0.
          5    1    3    3  502    0 -0.39535683049E+02  0.14517852477E+03 -0.11934090798E+02  0.15099592448E+03  0.41800000000E+01 0.  1.
         -5    1    3    3    0  502 -0.35812349191E+01  0.13733748000E+03  0.10992588338E+03  0.17599880935E+03  0.41800000000E+01 0.  1.
        -11    1    4    4    0    0  0.31200117727E+02 -0.16309329079E+03 -0.78086440795E+02  0.18349485301E+03  0.00000000000E+00 0.  1.
         11    1    4    4    0    0  0.11916800241E+02 -0.11942271399E+03  0.21210710915E+02  0.12187571129E+03  0.00000000000E+00 0. -1.
</event>
<event>
 8    1  0.6692409E-009  0.1058569E+03  0.7561462E-02  0.1268440E+00
          1   -1    0    0  501    0  0.00000000000E+00  0.00000000000E+00  0.16466805486E+03  0.16466805486E+03  0.00000000000E+00 0. -1.
         -1   -1    0    0    0  501 -0.00000000000E+00 -0.00000000000E+00 -0.93478503609E+02  0.93478503609E+02  0.00000000000E+00 0.  1.
         25    2    1    2    0    0  0.65938068293E+02  0.19839113106E+02  0.24086044075E+02  0.14480741333E+03  0.12509048796E+03 0.  0.
         23    2    1    2    0    0 -0.65938068293E+02 -0.19839113106E+02  0.47103507178E+02  0.11333914514E+03  0.76717678364E+02 0.  0.
          5    1    3    3  502    0  0.91019563732E+02  0.49516101394E+02  0.18214756343E+02  0.10528843729E+03  0.41800000000E+01 0. -1.
         -5    1    3    3    0  502 -0.25081495438E+02 -0.29676988288E+02  0.58712877323E+01  0.39518976036E+02  0.41800000000E+01 0. -1.
        -11    1    4    4    0    0 -0.24009969262E+02 -0.56199819297E+01 -0.20811665973E+02  0.32267448945E+02  0.00000000000E+00 0.  1.
         11    1    4    4    0    0 -0.41928099031E+02 -0.14219131176E+02  0.67915173151E+02  0.81071696195E+02  0.00000000000E+00 0. -1.
</event>
<event>
 8    1  0.6692409E-009  0.1156647E+03  0.7561462E-02  0.1250425E+00
          2   -1    0    0  501    0  0.00000000000E+00  0.00000000000E+00  0.63002285697E+02  0.63002285697E+02  0.00000000000E+00 0. -1.
         -2   -1    0    0    0  501 -0.00000000000E+00 -0.00000000000E+00 -0.35087689196E+03  0.35087689196E+03  0.00000000000E+00 0.  1.
         25    2    1    2    0    0  0.65478104799E+02 -0.76297455086E+02 -0.14886356540E+03  0.21889932350E+03  0.12509144201E+03 0.  0.
         23    2    1    2    0    0 -0.65478104799E+02  0.76297455086E+02 -0.13901104086E+03  0.19497985415E+03  0.92651984245E+02 0.  0.
          5    1    3    3  502    0  0.69728920417E+02 -0.59330511093E+02 -0.26757473776E+02  0.95476000607E+02  0.41800000000E+01 0. -1.
         -5    1    3    3    0  502 -0.42508156179E+01 -0.16966943993E+02 -0.12210609163E+03  0.12342332289E+03  0.41800000000E+01 0. -1.
        -11    1    4    4    0    0 -0.78191824276E+02  0.50915959502E+02 -0.59776383044E+02  0.11081341203E+03  0.00000000000E+00 0. -1.
         11    1    4    4    0    0  0.12713719477E+02  0.25381495584E+02 -0.79234657812E+02  0.84166442123E+02  0.00000000000E+00 0.  1.
</event>
<event>
 8    1  0.6692409E-009  0.1430826E+03  0.7561462E-02  0.1209240E+00
          2   -1    0    0  501    0  0.00000000000E+00  0.00000000000E+00  0.12163411525E+04  0.12163411525E+04  0.00000000000E+00 0. -1.
         -2   -1    0    0    0  501 -0.00000000000E+00 -0.00000000000E+00 -0.32955201499E+02  0.32955201499E+02  0.00000000000E+00 0.  1.
         25    2    1    2    0    0  0.15741157911E+02  0.11475325662E+03  0.10057642566E+04  0.10201106510E+04  0.12509159178E+03 0.  0.
         23    2    1    2    0    0 -0.15741157911E+02 -0.11475325662E+03  0.17762169442E+03  0.22918570309E+03  0.86951286446E+02 0.  0.
          5    1    3    3  502    0  0.18011916952E+02  0.14099238590E+03  0.89195548709E+03  0.90321943368E+03  0.41800000000E+01 0. -1.
         -5    1    3    3    0  502 -0.22707590408E+01 -0.26239129286E+02  0.11380876954E+03  0.11689121727E+03  0.41800000000E+01 0. -1.
        -11    1    4    4    0    0 -0.40710748133E+01 -0.88201318251E+02  0.56928708983E+02  0.10505676607E+03  0.00000000000E+00 0.  1.
         11    1    4    4    0    0 -0.11670083098E+02 -0.26551938366E+02  0.12069298544E+03  0.12412893701E+03  0.00000000000E+00 0. -1.
</event>
<event>
 8    1  0.6692409E-009  0.1876807E+03  0.7561462E-02  0.1160570E+00
         -1   -1    0    0    0  501 -0.00000000000E+00  0.00000000000E+00  0.11909391833E+03  0.11909391833E+03  0.00000000000E+00 0.  1.
          1   -1    0    0  501    0  0.00000000000E+00 -0.00000000000E+00 -0.45901004023E+03  0.45901004023E+03  0.00000000000E+00 0. -1.
         25    2    1    2    0    0 -0.13443552434E+03  0.11499846222E+03 -0.43601671395E+02  0.22101166291E+03  0.12508993915E+03 0.  0.
         23    2    1    2    0    0  0.13443552434E+03 -0.11499846222E+03 -0.29631445051E+03  0.35709229564E+03  0.91733840579E+02 0.  0.
          5    1    3    3  502    0 -0.13770351308E+03  0.11998427854E+03 -0.60820056843E+01  0.18279208901E+03  0.41800000000E+01 0. -1.
         -5    1    3    3    0  502  0.32679887323E+01 -0.49858163203E+01 -0.37519665711E+02  0.38219573909E+02  0.41800000000E+01 0. -1.
        -11    1    4    4    0    0  0.91544746560E+02 -0.41991610631E+02 -0.93972993912E+02  0.13774853745E+03  0.00000000000E+00 0.  1.
         11    1    4    4    0    0  0.42890777784E+02 -0.73006851587E+02 -0.20234145659E+03  0.21934375818E+03  0.00000000000E+00 0. -1.
</event>
<event>
 8    1  0.6692409E-009  0.1370804E+03  0.7561462E-02  0.1217312E+00
          2   -1    0    0  501    0  0.00000000000E+00  0.00000000000E+00  0.13552917988E+04  0.13552917988E+04  0.00000000000E+00 0. -1.
         -2   -1    0    0    0  501 -0.00000000000E+00 -0.00000000000E+00 -0.18877028138E+02  0.18877028138E+02  0.00000000000E+00 0.  1.
         25    2    1    2    0    0  0.31358825469E+02 -0.81574528943E+02  0.10394432877E+04  0.10505852807E+04  0.12509717827E+03 0.  0.
         23    2    1    2    0    0 -0.31358825469E+02  0.81574528943E+02  0.29697148294E+03  0.32358354620E+03  0.94215019947E+02 0.  0.
          5    1    3    3  502    0  0.71674129061E+02 -0.76446386605E+02  0.86941877620E+03  0.87572125224E+03  0.41800000000E+01 0. -1.
         -5    1    3    3    0  502 -0.40315303592E+02 -0.51281423383E+01  0.17002451148E+03  0.17486402846E+03  0.41800000000E+01 0. -1.
        -11    1    4    4    0    0 -0.21089698118E+02  0.10275283880E+03  0.24675056565E+03  0.26812079907E+03  0.00000000000E+00 0.  1.
         11    1    4    4    0    0 -0.10269127350E+02 -0.21178309858E+02  0.50220917296E+02  0.55462747128E+02  0.00000000000E+00 0. -1.
</event>
<event>
 8    1  0.6692409E-009  0.1091637E+03  0.7561462E-02  0.1262126E+00
         -4   -1    0    0    0  501 -0.00000000000E+00  0.00000000000E+00  0.18292254299E+03  0.18292254299E+03  0.00000000000E+00 0.  1.
          4   -1    0    0  501    0  0.00000000000E+00 -0.00000000000E+00 -0.72476248913E+02  0.72476248913E+02  0.00000000000E+00 0. -1.
         25    2    1    2    0    0 -0.39620453326E+02 -0.36564083227E+01  0.81274726363E+02  0.15438904706E+03  0.12508895659E+03 0.  0.
         23    2    1    2    0    0  0.39620453326E+02  0.36564083227E+01  0.29171567719E+02  0.10100974485E+03  0.88141015130E+02 0.  0.
          5    1    3    3  502    0  0.80288355526E+01 -0.58022187567E+02  0.33012361205E+02  0.67367090205E+02  0.41800000000E+01 0.  1.
         -5    1    3    3    0  502 -0.47649288879E+02  0.54365779244E+02  0.48262365158E+02  0.87021956851E+02  0.41800000000E+01 0.  1.
        -11    1    4    4    0    0  0.30228065371E+02  0.39725862232E+02 -0.53525155864E+01  0.50204875154E+02  0.00000000000E+00 0. -1.
         11    1    4    4    0    0  0.93923879557E+01 -0.36069453909E+02  0.34524083306E+02  0.50804869697E+02  0.00000000000E+00 0.  1.
</event>
<event>
 8    1  0.6692409E-009  0.7062405E+02  0.7561462E-02  0.1357984E+00
         -2   -1    0    0    0  501 -0.00000000000E+00  0.00000000000E+00  0.19158698631E+03  0.19158698631E+03  0.00000000000E+00 0.  1.
          2   -1    0    0  501    0  0.00000000000E+00 -0.00000000000E+00 -0.76926334437E+02  0.76926334437E+02  0.00000000000E+00 0. -1.
         25    2    1    2    0    0 -0.48372431323E+01 -0.49668279115E+02  0.88850035255E+02  0.16135010344E+03  0.12509672355E+03 0.  0.
         23    2    1    2    0    0  0.48372431323E+01  0.49668279115E+02  0.25810616617E+02  0.10716321731E+03  0.91254755174E+02 0.  0.
          5    1    3    3  502    0 -0.12534880278E+02  0.11109065160E+01 -0.29459343007E+02  0.32306077250E+02  0.41800000000E+01 0. -1.
         -5    1    3    3    0  502  0.76976371460E+01 -0.50779185631E+02  0.11830937826E+03  0.12904402619E+03  0.41800000000E+01 0. -1.
        -11    1    4    4    0    0  0.22224628635E+02 -0.16394932860E+01  0.44572033496E+02  0.49832602041E+02  0.00000000000E+00 0.  1.
         11    1    4    4    0    0 -0.17387385503E+02  0.51307772401E+02 -0.18761416879E+02  0.57330615265E+02  0.00000000000E+00 0. -1.
</event>
<event>
 8    1  0.6692409E-009  0.8824659E+02  0.7561462E-02  0.1307154E+00
         -2   -1    0    0    0  501 -0.00000000000E+00  0.00000000000E+00  0.31610830285E+02  0.31610830285E+02  0.00000000000E+00 0.  1.
          2   -1    0    0  501    0  0.00000000000E+00 -0.00000000000E+00 -0.58979725688E+03  0.58979725688E+03  0.00000000000E+00 0. -1.
         25    2    1    2    0    0  0.65772966637E+02 -0.30131292448E+02 -0.21435121480E+03  0.25851415407E+03  0.12509654927E+03 0.  0.
         23    2    1    2    0    0 -0.65772966637E+02  0.30131292448E+02 -0.34383521179E+03  0.36289393310E+03  0.90748971832E+02 0.  0.
          5    1    3    3  502    0  0.63769894779E+02 -0.39036863608E+01 -0.27345034170E+02  0.69620841284E+02  0.41800000000E+01 0.  1.
         -5    1    3    3    0  502  0.20030718574E+01 -0.26227606087E+02 -0.18700618063E+03  0.18889331278E+03  0.41800000000E+01 0.  1.
        -11    1    4    4    0    0 -0.53145911266E+02 -0.18698378189E-01 -0.31454553510E+03  0.31900373334E+03  0.00000000000E+00 0. -1.
         11    1    4    4    0    0 -0.12627055370E+02  0.30149990826E+02 -0.29289676688E+02  0.43890199756E+02  0.00000000000E+00 0.  1.
</event>
<event>
 8    1  0.6692409E-009  0.8018743E+02  0.7561462E-02  0.1328520E+00
          2   -1    0    0  501    0  0.00000000000E+00  0.00000000000E+00  0.38945426979E+03  0.38945426979E+03  0.00000000000E+00 0. -1.
         -2   -1    0    0    0  501 -0.00000000000E+00 -0.00000000000E+00 -0.36295344463E+02  0.36295344463E+02  0.00000000000E+00 0.  1.
         25    2    1    2    0    0 -0.19688343972E+02  0.25505032403E+01  0.11886932941E+03  0.17369756685E+03  0.12508713483E+03 0.  0.
         23    2    1    2    0    0  0.19688343972E+02 -0.25505032403E+01  0.23428959591E+03  0.25205204740E+03  0.90799140363E+02 0.  0.
          5    1    3    3  502    0 -0.22913261537E+02 -0.29447060909E+02 -0.11570032010E+02  0.39287211547E+02  0.41800000000E+01 0. -1.
         -5    1    3    3    0  502  0.32249175645E+01  0.31997564149E+02  0.13043936142E+03  0.13441035530E+03  0.41800000000E+01 0. -1.
        -11    1    4    4    0    0  0.17996679540E+02 -0.44715316626E+02  0.95277711292E+02  0.10677631893E+03  0.00000000000E+00 0. -1.
         11    1    4    4    0    0  0.16916644320E+01  0.42164813386E+02  0.13901188462E+03  0.14527572847E+03  0.00000000000E+00 0.  1.
</event>
<event>
 8    1  0.6692409E-009  0.2731947E+03  0.7561462E-02  0.1099465E+00
         -1   -1    0    0    0  501 -0.00000000000E+00  0.00000000000E+00  0.11047297265E+03  0.11047297265E+03  0.00000000000E+00 0.  1.
          1   -1    0    0  501    0  0.00000000000E+00 -0.00000000000E+00 -0.76201427468E+03  0.76201427468E+03  0.00000000000E+00 0. -1.
         25    2    1    2    0    0 -0.22181390443E+03 -0.12943499803E+03 -0.21245918188E+03  0.35600860514E+03  0.12509354922E+03 0.  0.
         23    2    1    2    0    0  0.22181390443E+03  0.12943499803E+03 -0.43908212015E+03  0.51647864218E+03  0.89455311109E+02 0.  0.
          5    1    3    3  502    0  0.29458595918E+01 -0.28281328068E+02 -0.59022811251E+02  0.65648124527E+02  0.41800000000E+01 0.  1.
         -5    1    3    3    0  502 -0.22475976402E+03 -0.10115366996E+03 -0.15343637063E+03  0.29036048062E+03  0.41800000000E+01 0.  1.
        -11    1    4    4    0    0  0.54350947632E+02  0.79663487578E+02 -0.13747677309E+03  0.16792903234E+03  0.00000000000E+00 0.  1.
         11    1    4    4    0    0  0.16746295680E+03  0.49771510449E+02 -0.30160534706E+03  0.34854960985E+03  0.00000000000E+00 0. -1.
</event>
<event>
 8    1  0.6692409E-009  0.9068476E+02  0.7561462E-02  0.1301202E+00
         -2   -1    0    0    0  501 -0.00000000000E+00  0.00000000000E+00  0.39779696539E+02  0.39779696539E+02  0.00000000000E+00 0.  1.
          2   -1    0    0  501    0  0.00000000000E+00 -0.00000000000E+00 -0.33328808056E+03  0.33328808056E+03  0.00000000000E+00 0. -1.
         25    2    1    2    0    0  0.14971515560E+02  0.14550545232E+02 -0.11566472064E+03  0.17164243393E+03  0.12508770075E+03 0.  0.
         23    2    1    2    0    0 -0.14971515560E+02 -0.14550545232E+02 -0.17784366338E+03  0.20142534317E+03  0.92238471486E+02 0.  0.
          5    1    3    3  502    0  0.49246076135E+02  0.36351870588E+02 -0.11552643618E+03  0.13080697369E+03  0.41800000000E+01 0.  1.
         -5    1    3    3    0  502 -0.34274560575E+02 -0.21801325356E+02 -0.13828445687E+00  0.40835460233E+02  0.41800000000E+01 0.  1.
        -11    1    4    4    0    0 -0.34016005129E+02 -0.36653773233E+02 -0.51603705617E+02  0.71857707524E+02  0.00000000000E+00 0.  1.
         11    1    4    4    0    0  0.19044489569E+02  0.22103228001E+02 -0.12623995776E+03  0.12956763565E+03  0.00000000000E+00 0. -1.
</event>
<event>
 8    1  0.6692409E-009  0.9353585E+02  0.7561462E-02  0.1294508E+00
         -2   -1    0    0    0  501 -0.00000000000E+00  0.00000000000E+00  0.29087661253E+02  0.29087661253E+02  0.00000000000E+00 0.  1.
          2   -1    0    0  501    0  0.00000000000E+00 -0.00000000000E+00 -0.55862562040E+03  0.55862562040E+03  0.00000000000E+00 0. -1.
         25    2    1    2    0    0 -0.16225700295E+02 -0.60353113545E+02 -0.27478437204E+03  0.30831763498E+03  0.12509013253E+03 0.  0.
         23    2    1    2    0    0  0.16225700295E+02  0.60353113545E+02 -0.25475358710E+03  0.27939564667E+03  0.96212086416E+02 0.  0.
          5    1    3    3  502    0 -0.16311196721E+02  0.11474629187E+02  0.36820645721E+01  0.20706333644E+02  0.41800000000E+01 0.  1.
         -5    1    3    3    0  502  0.85496426473E-01 -0.71827742732E+02 -0.27846643661E+03  0.28761130133E+03  0.41800000000E+01 0.  1.
        -11    1    4    4    0    0 -0.26141560909E+02  0.39897803562E+02 -0.49198217512E+02  0.68525035878E+02  0.00000000000E+00 0.  1.
         11    1    4    4    0    0  0.42367261204E+02  0.20455309983E+02 -0.20555536959E+03  0.21087061079E+03  0.00000000000E+00 0. -1.
</event>
<event>
 8    1  0.6692409E-009  0.1399171E+03  0.7561462E-02  0.1213441E+00
          1   -1    0    0  501    0  0.00000000000E+00  0.00000000000E+00  0.18992585454E+03  0.18992585454E+03  0.00000000000E+00 0. -1.
         -1   -1    0    0    0  501 -0.00000000000E+00 -0.00000000000E+00 -0.12131097173E+03  0.12131097173E+03  0.00000000000E+00 0.  1.
         25    2    1    2    0    0  0.82114858331E+02 -0.53025721821E+02 -0.46688166867E+01  0.15880789171E+03  0.12507426388E+03 0.  0.
         23    2    1    2    0    0 -0.82114858331E+02  0.53025721821E+02  0.73283699503E+02  0.15242893456E+03  0.91156471769E+02 0.  0.
          5    1    3    3  502    0 -0.15907305726E+02 -0.55941401497E+02  0.11210894545E+02  0.59377094350E+02  0.41800000000E+01 0. -1.
         -5    1    3    3    0  502  0.98022164057E+02  0.29156796760E+01 -0.15879711232E+02  0.99430797358E+02  0.41800000000E+01 0. -1.
        -11    1    4    4    0    0 -0.64915123892E+02 -0.27797416462E+01  0.67590873631E+02  0.93756207644E+02  0.00000000000E+00 0. -1.
         11    1    4    4    0    0 -0.17199734439E+02  0.55805463467E+02  0.56928258716E+01  0.58672726918E+02  0.00000000000E+00 0.  1.
</event>
<event>
 8    1  0.6692409E-009  0.1058594E+03  0.7561462E-02  0.1268436E+00
         -2   -1    0    0    0  501 -0.00000000000E+00  0.00000000000E+00  0.23767998560E+03  0.23767998560E+03  0.00000000000E+00 0.  1.
          2   -1    0    0  501    0  0.00000000000E+00 -0.00000000000E+00 -0.60015647914E+02  0.60015647914E+02  0.00000000000E+00 0. -1.
         25    2    1    2    0    0  0.13544315495E+02 -0.45654345204E+02  0.82819991240E+02  0.15739881154E+03  0.12508983655E+03 0.  0.
         23    2    1    2    0    0 -0.13544315495E+02  0.45654345204E+02  0.94844346448E+02  0.14029682197E+03  0.91760451634E+02 0.  0.
          5    1    3    3  502    0  0.19969662651E+02  0.34532558497E+02 -0.23395126234E+01  0.40177490490E+02  0.41800000000E+01 0.  1.
         -5    1    3    3    0  502 -0.64253471563E+01 -0.80186903701E+02  0.85159503863E+02  0.11722132105E+03  0.41800000000E+01 0.  1.
        -11    1    4    4    0    0 -0.14673555214E+02  0.67553506545E+02  0.96044566064E+02  0.11833574329E+03  0.00000000000E+00 0.  1.
         11    1    4    4    0    0  0.11292397191E+01 -0.21899161342E+02 -0.12002196164E+01  0.21961078683E+02  0.00000000000E+00 0. -1.
</event>
<event>
 8    1  0.6692409E-009  0.9734053E+02  0.7561462E-02  0.1285990E+00
         -3   -1    0    0    0  501 -0.00000000000E+00  0.00000000000E+00  0.17541971822E+02  0.17541971822E+02  0.00000000000E+00 0.  1.
          3   -1    0    0  501    0  0.00000000000E+00 -0.00000000000E+00 -0.73194607946E+03  0.73194607946E+03  0.00000000000E+00 0. -1.
         25    2    1    2    0    0  0.19105567289E+02 -0.21781830736E+01 -0.32002366409E+03  0.34413973824E+03  0.12508895505E+03 0.  0.
         23    2    1    2    0    0 -0.19105567289E+02  0.21781830736E+01 -0.39438044354E+03  0.40534831304E+03  0.91659988271E+02 0.  0.
          5    1    3    3  502    0  0.51925223008E+02 -0.27962439958E+02 -0.27996089739E+03  0.28613581268E+03  0.41800000000E+01 0. -1.
         -5    1    3    3    0  502 -0.32819655719E+02  0.25784256884E+02 -0.40062766706E+02  0.58003925563E+02  0.41800000000E+01 0. -1.
        -11    1    4    4    0    0 -0.79970519651E+01 -0.44713185155E+02 -0.18519979834E+03  0.19068871774E+03  0.00000000000E+00 0.  1.
         11    1    4    4    0    0 -0.11108515324E+02  0.46891368228E+02 -0.20918064520E+03  0.21465959530E+03  0.00000000000E+00 0. -1.
</event>
<event>
 8    1  0.6692409E-009  0.7896364E+02  0.7561462E-02  0.1332018E+00
         -2   -1    0    0    0  501 -0.00000000000E+00  0.00000000000E+00  0.34802082504E+03  0.34802082504E+03  0.00000000000E+00 0.  1.
          2   -1    0    0  501    0  0.00000000000E+00 -0.00000000000E+00 -0.47968665704E+02  0.47968665704E+02  0.00000000000E+00 0. -1.
         25    2    1    2    0    0 -0.17786730334E+02 -0.33380117702E+02  0.25820200109E+03  0.28938868003E+03  0.12508770816E+03 0.  0.
         23    2    1    2    0    0  0.17786730334E+02  0.33380117702E+02  0.41850158248E+02  0.10660081071E+03  0.90452733870E+02 0.  0.
          5    1    3    3  502    0 -0.13583790760E+02  0.29347421477E+02  0.11200598166E+02  0.34477765560E+02  0.41800000000E+01 0. -1.
         -5    1    3    3    0  502 -0.42029395740E+01 -0.62727539179E+02  0.24700140292E+03  0.25491091447E+03  0.41800000000E+01 0. -1.
        -11    1    4    4    0    0  0.23976520473E+02  0.43949393064E+02  0.64020854176E+02  0.81271719892E+02  0.00000000000E+00 0.  1.
         11    1    4    4    0    0 -0.61897901396E+01 -0.10569275362E+02 -0.22170695929E+02  0.25329090817E+02  0.00000000000E+00 0. -1.
</event>
<event>
 8    1  0.6692409E-009  0.1439692E+03  0.7561462E-02  0.1208086E+00
         -2   -1    0    0    0  501 -0.00000000000E+00  0.00000000000E+00  0.16863578041E+02  0.16863578041E+02  0.00000000000E+00 0. -1.
          2   -1    0    0  501    0  0.00000000000E+00 -0.00000000000E+00 -0.19332812569E+04  0.19332812569E+04  0.00000000000E+00 0.  1.
         25    2    1    2    0    0 -0.59449945318E+02  0.96163868091E+02 -0.14940051369E+04  0.15034895699E+04  0.12509097546E+03 0.  0.
         23    2    1    2    0    0  0.59449945318E+02 -0.96163868091E+02 -0.42241254196E+03  0.44665526506E+03  0.91031778376E+02 0.  0.
          5    1    3    3  502    0  0.27802158040E+02  0.59670495515E+02 -0.85103221791E+03  0.85358469781E+03  0.41800000000E+01 0. -1.
         -5    1    3    3    0  502 -0.87252103358E+02  0.36493372576E+02 -0.64297291903E+03  0.64990487211E+03  0.41800000000E+01 0. -1.
        -11    1    4    4    0    0  0.57214567596E+01 -0.64886394500E+02 -0.10774118519E+03  0.12590131947E+03  0.00000000000E+00 0. -1.
         11    1    4    4    0    0  0.53728488558E+02 -0.31277473591E+02 -0.31467135678E+03  0.32075394559E+03  0.00000000000E+00 0.  1.
</event>
<event>
 8    1  0.6692409E-009  0.1117346E+03  0.7561462E-02  0.1257391E+00
          2   -1    0    0  501    0  0.00000000000E+00  0.00000000000E+00  0.10065826520E+04  0.10065826520E+04  0.00000000000E+00 0. -1.
         -2   -1    0    0    0  501 -0.00000000000E+00 -0.00000000000E+00 -0.17945059935E+02  0.17945059935E+02  0.00000000000E+00 0.  1.
         25    2    1    2    0    0  0.34675226926E+02 -0.61685610957E+02  0.68247663517E+03  0.69744329789E+03  0.12508121463E+03 0.  0.
         23    2    1    2    0    0 -0.34675226926E+02  0.61685610957E+02  0.30616095685E+03  0.32708441400E+03  0.90786543181E+02 0.  0.
          5    1    3    3  502    0  0.68701027724E+02 -0.69946451752E+02  0.36313565235E+03  0.37616128420E+03  0.41800000000E+01 0. -1.
         -5    1    3    3    0  502 -0.34025800798E+02  0.82608407951E+01  0.31934098282E+03  0.32128201369E+03  0.41800000000E+01 0. -1.
        -11    1    4    4    0    0  0.82680476065E+01  0.42050186048E+02  0.46788323100E+02  0.63448608625E+02  0.00000000000E+00 0.  1.
         11    1    4    4    0    0 -0.42943274532E+02  0.19635424909E+02  0.25937263375E+03  0.26363580538E+03  0.00000000000E+00 0. -1.
</event>
<event>
 8    1  0.6692409E-009  0.1047971E+03  0.7561462E-02  0.1270520E+00
          2   -1    0    0  501    0  0.00000000000E+00  0.00000000000E+00  0.49550157046E+03  0.49550157046E+03  0.00000000000E+00 0. -1.
         -2   -1    0    0    0  501 -0.00000000000E+00 -0.00000000000E+00 -0.73867516540E+02  0.73867516540E+02  0.00000000000E+00 0.  1.
         25    2    1    2    0    0  0.96353213535E+02 -0.10403454723E+02  0.37178244103E+02  0.16255018253E+03  0.12509263119E+03 0.  0.
         23    2    1    2    0    0 -0.96353213535E+02  0.10403454723E+02  0.38445580981E+03  0.40681890446E+03  0.91121774030E+02 0.  0.
          5    1    3    3  502    0  0.82510306560E+02 -0.30017758628E+02 -0.28573558738E+02  0.92428010801E+02  0.41800000000E+01 0. -1.
         -5    1    3    3    0  502  0.13842906975E+02  0.19614303905E+02  0.65751802842E+02  0.70122171730E+02  0.41800000000E+01 0. -1.
        -11    1    4    4    0    0 -0.17048725171E+02  0.53138823004E+01  0.41958057991E+01  0.18343967983E+02  0.00000000000E+00 0.  1.
         11    1    4    4    0    0 -0.79304488364E+02  0.50895724227E+01  0.38026000401E+03  0.38847493648E+03  0.00000000000E+00 0. -1.
</event>
<event>
 8    1  0.6692409E-009  0.1003919E+03  0.7561462E-02  0.1279474E+00
          1   -1    0    0  501    0  0.00000000000E+00  0.00000000000E+00  0.19307798713E+03  0.19307798713E+03  0.00000000000E+00 0. -1.
         -1   -1    0    0    0  501 -0.00000000000E+00 -0.00000000000E+00 -0.68180954789E+02  0.68180954789E+02  0.00000000000E+00 0.  1.
         25    2    1    2    0    0  0.15539396139E+02  0.91035393107E+01  0.33756567677E+02  0.13080990736E+03  0.12508948294E+03 0.  0.
         23    2    1    2    0    0 -0.15539396139E+02 -0.91035393107E+01  0.91140464664E+02  0.13044903456E+03  0.91575209838E+02 0.  0.
          5    1    3    3  502    0  0.46447354915E+02 -0.37457584289E+02 -0.87755451041E+01  0.60455851588E+02  0.41800000000E+01 0. -1.
         -5    1    3    3    0  502 -0.30907958776E+02  0.46561123599E+02  0.42532112781E+02  0.70354055776E+02  0.41800000000E+01 0. -1.
        -11    1    4    4    0    0  0.26648234302E+02  0.20302703646E+02  0.11061862229E+02  0.35280206387E+02  0.00000000000E+00 0.  1.
         11    1    4    4    0    0 -0.42187630441E+02 -0.29406242957E+02  0.80078602435E+02  0.95168828168E+02  0.00000000000E+00 0. -1.
</event>
<event>
 8    1  0.6692409E-009  0.2169978E+03  0.7561462E-02  0.1136141E+00
         -1   -1    0    0    0  501 -0.00000000000E+00  0.00000000000E+00  0.38773156463E+03  0.38773156463E+03  0.00000000000E+00 0.  1.
          1   -1    0    0  501    0  0.00000000000E+00 -0.00000000000E+00 -0.16206626535E+03  0.16206626535E+03  0.00000000000E+00 0. -1.
         25    2    1    2    0    0 -0.20646249533E+03 -0.48456160139E+02  0.31603170028E+02  0.24823776149E+03  0.12509382255E+03 0.  0.
         23    2    1    2    0    0  0.20646249533E+03  0.48456160139E+02  0.19406212925E+03  0.30156006849E+03  0.91124110231E+02 0.  0.
          5    1    3    3  502    0 -0.24084282071E+02  0.15103500309E+02 -0.33727951979E+02  0.44308187834E+02  0.41800000000E+01 0.  1.
         -5    1    3    3    0  502 -0.18237821326E+03 -0.63559660448E+02  0.65331122007E+02  0.20392957366E+03  0.41800000000E+01 0.  1.
        -11    1    4    4    0    0  0.18310403062E+02  0.48219743418E+01  0.68785754572E+02  0.71344252249E+02  0.00000000000E+00 0.  1.
         11    1    4    4    0    0  0.18815209227E+03  0.43634185797E+02  0.12527637468E+03  0.23021581624E+03  0.00000000000E+00 0. -1.
</event>
<event>
 8    1  0.6692409E-009  0.9949767E+02  0.7561462E-02  0.1281356E+00
          1   -1    0    0  501    0  0.00000000000E+00  0.00000000000E+00  0.83523192159E+03  0.83523192159E+03  0.00000000000E+00 0. -1.
         -1   -1    0    0    0  501 -0.00000000000E+00 -0.00000000000E+00 -0.16977648477E+02  0.16977648477E+02  0.00000000000E+00 0.  1.
         25    2    1    2    0    0  0.19507492362E+02 -0.17685603698E+02  0.61184741018E+03  0.62505342244E+03  0.12506480213E+03 0.  0.
         23    2    1    2    0    0 -0.19507492362E+02  0.17685603698E+02  0.20640686294E+03  0.22715614763E+03  0.91119698744E+02 0.  0.
          5    1    3    3  502    0  0.70855604825E+02 -0.17651485230E+02  0.42434828475E+03  0.43060542360E+03  0.41800000000E+01 0. -1.
         -5    1    3    3    0  502 -0.51348112463E+02 -0.34118468360E-01  0.18749912542E+03  0.19444799884E+03  0.41800000000E+01 0. -1.
        -11    1    4    4    0    0  0.19938098960E+02  0.27233540088E+02  0.16773451114E+03  0.17109663855E+03  0.00000000000E+00 0. -1.
         11    1    4    4    0    0 -0.39445591322E+02 -0.95479363899E+01  0.38672351800E+02  0.56059509076E+02  0.00000000000E+00 0.  1.
</event>
<event>
 8    1  0.6692409E-009  0.7525422E+02  0.7561462E-02  0.1343086E+00
          1   -1    0    0  501    0  0.00000000000E+00  0.00000000000E+00  0.28013262387E+02  0.28013262387E+02  0.00000000000E+00 0. -1.
         -1   -1    0    0    0  501 -0.00000000000E+00 -0.00000000000E+00 -0.56802296100E+03  0.56802296100E+03  0.00000000000E+00 0.  1.
         25    2    1    2    0    0 -0.24818830852E+02  0.13041677658E+02 -0.43895007494E+03  0.45728619871E+03  0.12508972586E+03 0.  0.
         23    2    1    2    0    0  0.24818830852E+02 -0.13041677658E+02 -0.10105962367E+03  0.13875002467E+03  0.90843062974E+02 0.  0.
          5    1    3    3  502    0 -0.40513093056E+02 -0.24742090203E+01 -0.43178615311E+03  0.43370979564E+03  0.41800000000E+01 0. -1.
         -5    1    3    3    0  502  0.15694262204E+02  0.15515886678E+02 -0.71639218343E+01  0.23576403067E+02  0.41800000000E+01 0. -1.
        -11    1    4    4    0    0  0.49571638031E+02 -0.29342975927E+02 -0.37823577607E+02  0.68912847542E+02  0.00000000000E+00 0.  1.
         11    1    4    4    0    0 -0.24752807180E+02  0.16301298269E+02 -0.63236046059E+02  0.69837177131E+02  0.00000000000E+00 0. -1.
</event>
<event>
 8    1  0.6692409E-009  0.1957994E+03  0.7561462E-02  0.1153332E+00
          2   -1    0    0  501    0  0.00000000000E+00  0.00000000000E+00  0.93575825409E+03  0.93575825409E+03  0.00000000000E+00 0. -1.
         -2   -1    0    0    0  501 -0.00000000000E+00 -0.00000000000E+00 -0.48300520710E+02  0.48300520710E+02  0.00000000000E+00 0.  1.
         25    2    1    2    0    0  0.16121731974E+03  0.85356389474E+02  0.47857375057E+03  0.52721782329E+03  0.12509620719E+03 0.  0.
         23    2    1    2    0    0 -0.16121731974E+03 -0.85356389474E+02  0.40888398281E+03  0.45684095151E+03  0.90778886152E+02 0.  0.
          5    1    3    3  502    0  0.46407452691E+02  0.78475732892E+02  0.30959759931E+03  0.32276963646E+03  0.41800000000E+01 0. -1.
         -5    1    3    3    0  502  0.11480986704E+03  0.68806565819E+01  0.16897615126E+03  0.20444818683E+03  0.41800000000E+01 0. -1.
        -11    1    4    4    0    0 -0.78117780314E+02 -0.59546251914E+02  0.30966900706E+03  0.32487387961E+03  0.00000000000E+00 0. -1.
         11    1    4    4    0    0 -0.83099539421E+02 -0.25810137560E+02  0.99214975745E+02  0.13196707190E+03  0.00000000000E+00 0.  1.
</event>
<event>
 8    1  0.6692409E-009  0.1345944E+03  0.7561462E-02  0.1220793E+00
         -2   -1    0    0    0  501 -0.00000000000E+00  0.00000000000E+00  0.13048832067E+03  0.13048832067E+03  0.00000000000E+00 0.  1.
          2   -1    0    0  501    0  0.00000000000E+00 -0.00000000000E+00 -0.32370249128E+03  0.32370249128E+03  0.00000000000E+00 0. -1.
         25    2    1    2    0    0  0.36968319662E+02  0.77056401947E+02 -0.26773047900E+03  0.30762226478E+03  0.12508997827E+03 0.  0.
         23    2    1    2    0    0 -0.36968319662E+02 -0.77056401947E+02  0.74516308386E+02  0.14656854716E+03  0.92872563562E+02 0.  0.
          5    1    3    3  502    0 -0.28054946283E+02  0.74945795484E+02 -0.18977780931E+03  0.20600252809E+03  0.41800000000E+01 0. -1.
         -5    1    3    3    0  502  0.65023265945E+02  0.21106064634E+01 -0.77952669689E+02  0.10161973669E+03  0.41800000000E+01 0. -1.
        -11    1    4    4    0    0 -0.57551405206E+02 -0.16448696891E+02  0.50121979656E+02  0.78070075671E+02  0.00000000000E+00 0. -1.
         11    1    4    4    0    0  0.20583085544E+02 -0.60607705056E+02  0.24394328730E+02  0.68498471493E+02  0.00000000000E+00 0.  1.
</event>
<event>
 7    1  0.6692409E-009  0.1065870E+03  0.7561462E-02  0.1267024E+00
          3   -1    0    0  501    0  0.00000000000E+00  0.00000000000E+00  0.19097011659E+03  0.19097011659E+03  0.00000000000E+00 0. -1.
         -3   -1    0    0    0  501 -0.00000000000E+00 -0.00000000000E+00 -0.71281780185E+02  0.71281780185E+02  0.00000000000E+00 0.  1.
         23    2    1    2    0    0 -0.29741698793E+02  0.12335460686E+02  0.19642287381E+02  0.10087118998E+03  0.93554504308E+02 0.  0.
          5    1    1    2  502    0 -0.51363962882E+01  0.47853226096E+02  0.13296442252E+02  0.50105704178E+02  0.41800000000E+01 0. -1.
         -5    1    1    2    0  502  0.34878095081E+02 -0.60188686783E+02  0.86749606773E+02  0.11127500262E+03  0.41800000000E+01 0. -1.
        -11    1    3    3    0    0 -0.33723698848E+02  0.48345545917E+02 -0.14227590003E+01  0.58962733291E+02  0.00000000000E+00 0.  1.
         11    1    3    3    0    0  0.39820000558E+01 -0.36010085230E+02  0.21065046381E+02  0.41908456686E+02  0.00000000000E+00 0. -1.
</event>
<event>
 8    1  0.6692409E-009  0.1099486E+03  0.7561462E-02  0.1260665E+00
          1   -1    0    0  501    0  0.00000000000E+00  0.00000000000E+00  0.11935450050E+04  0.11935450050E+04  0.00000000000E+00 0. -1.
         -1   -1    0    0    0  501 -0.00000000000E+00 -0.00000000000E+00 -0.14243502377E+02  0.14243502377E+02  0.00000000000E+00 0.  1.
         25    2    1    2    0    0  0.46641237576E+02 -0.53478049707E+02  0.72558200032E+03  0.73969770016E+03  0.12509253213E+03 0.  0.
         23    2    1    2    0    0 -0.46641237576E+02  0.53478049707E+02  0.45371950228E+03  0.46809080719E+03  0.90621797516E+02 0.  0.
          5    1    3    3  502    0  0.33399579899E+00  0.26736832994E+02  0.42726758822E+02  0.50576853512E+02  0.41800000000E+01 0. -1.
         -5    1    3    3    0  502  0.46307241777E+02 -0.80214882700E+02  0.68285524150E+03  0.68912084665E+03  0.41800000000E+01 0. -1.
        -11    1    4    4    0    0 -0.18138161937E+02  0.66392302424E+02  0.40035852102E+03  0.40623130861E+03  0.00000000000E+00 0. -1.
         11    1    4    4    0    0 -0.28503075639E+02 -0.12914252717E+02  0.53360981264E+02  0.61859498589E+02  0.00000000000E+00 0.  1.
</event>
<event>
 8    1  0.6692409E-009  0.1881557E+03  0.7561462E-02  0.1160135E+00
          2   -1    0    0  501    0  0.00000000000E+00  0.00000000000E+00  0.57070166652E+02  0.57070166652E+02  0.00000000000E+00 0. -1.
         -2   -1    0    0    0  501 -0.00000000000E+00 -0.00000000000E+00 -0.69696470431E+03  0.69696470431E+03  0.00000000000E+00 0.  1.
         25    2    1    2    0    0  0.11301978178E+03 -0.12121689389E+03 -0.36479651686E+03  0.41975115536E+03  0.12509007666E+03 0.  0.
         23    2    1    2    0    0 -0.11301978178E+03  0.12121689389E+03 -0.27509802080E+03  0.33428371560E+03  0.92734432806E+02 0.  0.
          5    1    3    3  502    0  0.11481550457E+03 -0.14317344943E+03 -0.30620667537E+03  0.35701713846E+03  0.41800000000E+01 0. -1.
         -5    1    3    3    0  502 -0.17957227912E+01  0.21956555538E+02 -0.58589841488E+02  0.62734016905E+02  0.41800000000E+01 0. -1.
        -11    1    4    4    0    0 -0.46847751635E+02  0.23789782126E+02 -0.25732521159E+02  0.58504941775E+02  0.00000000000E+00 0. -1.
         11    1    4    4    0    0 -0.66172030148E+02  0.97427111765E+02 -0.24936549964E+03  0.27577877383E+03  0.00000000000E+00 0.  1.
</event>
<event>
 8    1  0.6692409E-009  0.1016200E+03  0.7561462E-02  0.1276926E+00
         -1   -1    0    0    0  501 -0.00000000000E+00  0.00000000000E+00  0.12735695539E+03  0.12735695539E+03  0.00000000000E+00 0.  1.
          1   -1    0    0  501    0  0.00000000000E+00 -0.00000000000E+00 -0.12565299476E+03  0.12565299476E+03  0.00000000000E+00 0. -1.
         25    2    1    2    0    0  0.23647238650E+02  0.27269354598E+02 -0.55662816130E+02  0.14158931647E+03  0.12508547415E+03 0.  0.
         23    2    1    2    0    0 -0.23647238650E+02 -0.27269354598E+02  0.57366776759E+02  0.11142063367E+03  0.88435292370E+02 0.  0.
          5    1    3    3  502    0  0.11603214893E+01  0.72868629550E+02 -0.11068934467E+02  0.73832088069E+02  0.41800000000E+01 0.  1.
         -5    1    3    3    0  502  0.22486917161E+02 -0.45599274952E+02 -0.44593881663E+02  0.67757228406E+02  0.41800000000E+01 0.  1.
        -11    1    4    4    0    0  0.21875822502E+02 -0.25601505042E+02 -0.51514716585E+01  0.34066498658E+02  0.00000000000E+00 0.  1.
         11    1    4    4    0    0 -0.45523061152E+02 -0.16678495557E+01  0.62518248417E+02  0.77354135016E+02  0.00000000000E+00 0. -1.
</event>
<event>
 8    1  0.6692409E-009  0.1931203E+03  0.7561462E-02  0.1155677E+00
          1   -1    0    0  501    0  0.00000000000E+00  0.00000000000E+00  0.35857745648E+03  0.35857745648E+03  0.00000000000E+00 0. -1.
         -1   -1    0    0    0  501 -0.00000000000E+00 -0.00000000000E+00 -0.12249668379E+03  0.12249668379E+03  0.00000000000E+00 0.  1.
         25    2    1    2    0    0  0.12204240169E+03  0.12332572770E+03  0.69740458667E+02  0.22498133433E+03  0.12509710747E+03 0.  0.
         23    2    1    2    0    0 -0.12204240169E+03 -0.12332572770E+03  0.16634031402E+03  0.25609280593E+03  0.88378969531E+02 0.  0.
          5    1    3    3  502    0  0.60073856555E+02 -0.11221488108E+02  0.13078311460E+00  0.61255853116E+02  0.41800000000E+01 0. -1.
         -5    1    3    3    0  502  0.61968545136E+02  0.13454721581E+03  0.69609675553E+02  0.16372548122E+03  0.41800000000E+01 0. -1.
        -11    1    4    4    0    0 -0.68997129072E+02 -0.45642325905E+02  0.25204055812E+02  0.86481617489E+02  0.00000000000E+00 0. -1.
         11    1    4    4    0    0 -0.53045272619E+02 -0.77683401799E+02  0.14113625821E+03  0.16961118844E+03  0.00000000000E+00 0.  1.
</event>
<event>
 8    1  0.6692409E-009  0.1421864E+03  0.7561462E-02  0.1210417E+00
         -1   -1    0    0    0  501 -0.00000000000E+00  0.00000000000E+00  0.15157978361E+03  0.15157978361E+03  0.00000000000E+00 0.  1.
          1   -1    0    0  501    0  0.00000000000E+00 -0.00000000000E+00 -0.18403617214E+03  0.18403617214E+03  0.00000000000E+00 0. -1.
         25    2    1    2    0    0 -0.11856325705E+03  0.18414774223E+02 -0.57225327617E+02  0.18253286142E+03  0.12508859878E+03 0.  0.
         23    2    1    2    0    0  0.11856325705E+03 -0.18414774223E+02  0.24768939088E+02  0.15308309433E+03  0.91785530419E+02 0.  0.
          5    1    3    3  502    0 -0.24476955369E+02 -0.44614297777E+02 -0.45876754524E+02  0.68641867077E+02  0.41800000000E+01 0.  1.
         -5    1    3    3    0  502 -0.94086301683E+02  0.63029072000E+02 -0.11348573094E+02  0.11389099434E+03  0.41800000000E+01 0.  1.
        -11    1    4    4    0    0  0.11404294419E+02 -0.20926005068E+01  0.41782191284E+02  0.43361139475E+02  0.00000000000E+00 0.  1.
         11    1    4    4    0    0  0.10715896263E+03 -0.16322173716E+02 -0.17013252196E+02  0.10972195486E+03  0.00000000000E+00 0. -1.
</event>
<event>
 8    1  0.6692409E-009  0.1013071E+03  0.7561462E-02  0.1277571E+00
          2   -1    0    0  501    0  0.00000000000E+00  0.00000000000E+00  0.13869790826E+03  0.13869790826E+03  0.00000000000E+00 0. -1.
         -2   -1    0    0    0  501 -0.00000000000E+00 -0.00000000000E+00 -0.12892311469E+03  0.12892311469E+03  0.00000000000E+00 0.  1.
         25    2    1    2    0    0 -0.12254241946E+02  0.65893430396E+02  0.43470611763E+02  0.14842232781E+03  0.12508949872E+03 0.  0.
         23    2    1    2    0    0  0.12254241946E+02 -0.65893430396E+02 -0.33695818194E+02  0.11919869514E+03  0.92632662405E+02 0.  0.
          5    1    3    3  502    0 -0.55185980335E+02  0.57355713976E+02 -0.87181959409E+01  0.80178860628E+02  0.41800000000E+01 0.  1.
         -5    1    3    3    0  502  0.42931738390E+02  0.85377164202E+01  0.52188807704E+02  0.68243467177E+02  0.41800000000E+01 0.  1.
        -11    1    4    4    0    0  0.18412852783E+01 -0.68240122367E+02  0.14539752241E+02  0.69796196368E+02  0.00000000000E+00 0. -1.
         11    1    4    4    0    0  0.10412956667E+02  0.23466919717E+01 -0.48235570434E+02  0.49402498772E+02  0.00000000000E+00 0.  1.
</event>
<event>
 8    1  0.6692409E-009  0.8551373E+02  0.7561462E-02  0.1314095E+00
          2   -1    0    0  501    0  0.00000000000E+00  0.00000000000E+00  0.12902870026E+03  0.12902870026E+03  0.00000000000E+00 0. -1.
         -2   -1    0    0    0  501 -0.00000000000E+00 -0.00000000000E+00 -0.91430835682E+02  0.91430835682E+02  0.00000000000E+00 0.  1.
         25    2    1    2    0    0 -0.80473742753E+01  0.21158713262E+01  0.25944130576E+02  0.12802141615E+03  0.12508856038E+03 0.  0.
         23    2    1    2    0    0  0.80473742753E+01 -0.21158713262E+01  0.11653734004E+02  0.92438119792E+02  0.91322282770E+02 0.  0.
          5    1    3    3  502    0  0.16847899214E+02 -0.54857119078E+02  0.31257513004E+02  0.65480224042E+02  0.41800000000E+01 0. -1.
         -5    1    3    3    0  502 -0.24895273490E+02  0.56972990404E+02 -0.53133824280E+01  0.62541192110E+02  0.41800000000E+01 0. -1.
        -11    1    4    4    0    0 -0.16090711492E+02  0.14669310542E+02 -0.32663337811E+02  0.39255487579E+02  0.00000000000E+00 0.  1.
         11    1    4    4    0    0  0.24138085767E+02 -0.16785181868E+02  0.44317071815E+02  0.53182632213E+02  0.00000000000E+00 0. -1.
</event>
<event>
 8    1  0.6692409E-009  0.8286659E+02  0.7561462E-02  0.1321108E+00
          1   -1    0    0  501    0  0.00000000000E+00  0.00000000000E+00  0.14201122460E+03  0.14201122460E+03  0.00000000000E+00 0. -1.
         -1   -1    0    0    0  501 -0.00000000000E+00 -0.00000000000E+00 -0.73229963376E+02  0.73229963376E+02  0.00000000000E+00 0.  1.
         25    2    1    2    0    0 -0.46603827529E+01 -0.17839679861E+02  0.31900162605E+02  0.13040252072E+03  0.12508886318E+03 0.  0.
         23    2    1    2    0    0  0.46603827529E+01  0.17839679861E+02  0.36881098620E+02  0.84838667257E+02  0.74144525635E+02 0.  0.
          5    1    3    3  502    0 -0.33882137792E+02 -0.61853627704E+02  0.31626989705E+02  0.77405486882E+02  0.41800000000E+01 0.  1.
         -5    1    3    3    0  502  0.29221755039E+02  0.44013947843E+02  0.27317289976E+00  0.52997033839E+02  0.41800000000E+01 0.  1.
        -11    1    4    4    0    0  0.19737472492E+02  0.14092926292E+01 -0.17277302745E+02  0.26268976307E+02  0.00000000000E+00 0.  1.
         11    1    4    4    0    0 -0.15077089739E+02  0.16430387232E+02  0.54158401365E+02  0.58569690950E+02  0.00000000000E+00 0. -1.
</event>
<event>
 8    1  0.6692409E-009  0.1679660E+03  0.7561462E-02  0.1179986E+00
          1   -1    0    0  501    0  0.00000000000E+00  0.00000000000E+00  0.75092045707E+03  0.75092045707E+03  0.00000000000E+00 0. -1.
         -1   -1    0    0    0  501 -0.00000000000E+00 -0.00000000000E+00 -0.55059802347E+02  0.55059802347E+02  0.00000000000E+00 0.  1.
         25    2    1    2    0    0  0.84124908047E+02  0.10427258191E+03  0.15402053276E+03  0.23941284350E+03  0.12508562519E+03 0.  0.
         23    2    1    2    0    0 -0.84124908047E+02 -0.10427258191E+03  0.54184012197E+03  0.56656741592E+03  0.97253007740E+02 0.  0.
          5    1    3    3  502    0  0.38857269414E+02 -0.20615530359E+02  0.13977469520E+02  0.46343602929E+02  0.41800000000E+01 0. -1.
         -5    1    3    3    0  502  0.45267638633E+02  0.12488811227E+03  0.14004306324E+03  0.19306924057E+03  0.41800000000E+01 0. -1.
        -11    1    4    4    0    0 -0.47759210689E+02 -0.11191694608E+03  0.47228000208E+03  0.48770354253E+03  0.00000000000E+00 0.  1.
         11    1    4    4    0    0 -0.36365697359E+02  0.76443641711E+01  0.69560119884E+02  0.78863873391E+02  0.00000000000E+00 0. -1.
</event>
<event>
 8    1  0.6692409E-009  0.3522788E+03  0.7561462E-02  0.1061684E+00
         -2   -1    0    0    0  501 -0.00000000000E+00  0.00000000000E+00  0.43184668234E+03  0.43184668234E+03  0.00000000000E+00 0.  1.
          2   -1    0    0  501    0  0.00000000000E+00 -0.00000000000E+00 -0.42956352481E+03  0.42956352481E+03  0.00000000000E+00 0. -1.
         25    2    1    2    0    0 -0.25069274536E+03  0.24134816721E+03  0.23065435884E+03  0.43582732236E+03  0.12509289057E+03 0.  0.
         23    2    1    2    0    0  0.25069274536E+03 -0.24134816721E+03 -0.22837120132E+03  0.42558288479E+03  0.88722014396E+02 0.  0.
          5    1    3    3  502    0 -0.10331552049E+03  0.12832300593E+03  0.39903114808E+02  0.16956008256E+03  0.41800000000E+01 0.  1.
         -5    1    3    3    0  502 -0.14737722487E+03  0.11302516128E+03  0.19075124404E+03  0.26626723981E+03  0.41800000000E+01 0.  1.
        -11    1    4    4    0    0  0.14480373360E+03 -0.18207274720E+03 -0.11497123972E+03  0.25949372343E+03  0.00000000000E+00 0.  1.
         11    1    4    4    0    0  0.10588901176E+03 -0.59275420011E+02 -0.11339996160E+03  0.16608916135E+03  0.00000000000E+00 0. -1.
</event>
<event>
 8    1  0.6692409E-009  0.1387098E+03  0.7561462E-02  0.1215076E+00
          2   -1    0    0  501    0  0.00000000000E+00  0.00000000000E+00  0.89067795726E+03  0.89067795726E+03  0.00000000000E+00 0. -1.
         -2   -1    0    0    0  501 -0.00000000000E+00 -0.00000000000E+00 -0.22859992924E+02  0.22859992924E+02  0.00000000000E+00 0.  1.
         25    2    1    2    0    0  0.46029636039E+02 -0.74169973498E+02  0.37640209129E+03  0.40613569047E+03  0.12509097642E+03 0.  0.
         23    2    1    2    0    0 -0.46029636039E+02  0.74169973498E+02  0.49141587305E+03  0.50740225972E+03  0.91365094650E+02 0.  0.
          5    1    3    3  502    0  0.88187362684E+02 -0.61399418074E+02  0.24757705265E+03  0.26992363526E+03  0.41800000000E+01 0.  1.
         -5    1    3    3    0  502 -0.42157726645E+02 -0.12770555424E+02  0.12882503864E+03  0.13621205520E+03  0.41800000000E+01 0.  1.
        -11    1    4    4    0    0  0.18646541384E+02  0.55153819200E+02  0.25505924060E+03  0.26161967337E+03  0.00000000000E+00 0. -1.
         11    1    4    4    0    0 -0.64676177423E+02  0.19016154297E+02  0.23635663245E+03  0.24578258635E+03  0.00000000000E+00 0.  1.
</event>
<event>
 8    1  0.6692409E-009  0.1619012E+03  0.7561462E-02  0.1186567E+00
          2   -1    0    0  501    0  0.00000000000E+00  0.00000000000E+00  0.68405399688E+03  0.68405399688E+03  0.00000000000E+00 0. -1.
         -2   -1    0    0    0  501 -0.00000000000E+00 -0.00000000000E+00 -0.47861249708E+02  0.47861249708E+02  0.00000000000E+00 0.  1.
         25    2    1    2    0    0 -0.90716966609E+01  0.13623009456E+03  0.23907107588E+03  0.30239327323E+03  0.12508308450E+03 0.  0.
         23    2    1    2    0    0  0.90716966609E+01 -0.13623009456E+03  0.39712167130E+03  0.42952197336E+03  0.90236187015E+02 0.  0.
          5    1    3    3  502    0  0.57231278050E+02  0.52376379888E+02  0.11156062700E+03  0.13594833671E+03  0.41800000000E+01 0. -1.
         -5    1    3    3    0  502 -0.66302974711E+02  0.83853714667E+02  0.12751044888E+03  0.16644493652E+03  0.41800000000E+01 0. -1.
        -11    1    4    4    0    0 -0.95185960319E+01 -0.39784426688E+02  0.33517407892E+02  0.52884978104E+02  0.00000000000E+00 0.  1.
         11    1    4    4    0    0  0.18590292693E+02 -0.96445667868E+02  0.36360426340E+03  0.37663699526E+03  0.00000000000E+00 0. -1.
</event>
<event>
 8    1  0.6692409E-009  0.1468326E+03  0.7561462E-02  0.1204420E+00
          1   -1    0    0  501    0  0.00000000000E+00  0.00000000000E+00  0.79431352179E+03  0.79431352179E+03  0.00000000000E+00 0. -1.
         -1   -1    0    0    0  501 -0.00000000000E+00 -0.00000000000E+00 -0.39820111247E+02  0.39820111247E+02  0.00000000000E+00 0.  1.
         25    2    1    2    0    0  0.10768326371E+03 -0.84634972701E+02  0.32417099772E+03  0.37348688867E+03  0.12508739487E+03 0.  0.
         23    2    1    2    0    0 -0.10768326371E+03  0.84634972701E+02  0.43032241282E+03  0.46064674437E+03  0.90880582267E+02 0.  0.
          5    1    3    3  502    0  0.34027713881E+02 -0.64911660216E+01  0.32422455493E+01  0.35042903768E+02  0.41800000000E+01 0. -1.
         -5    1    3    3    0  502  0.73655549832E+02 -0.78143806679E+02  0.32092875217E+03  0.33844398490E+03  0.41800000000E+01 0. -1.
        -11    1    4    4    0    0 -0.11145998489E+03  0.60389910006E+02  0.40881170519E+03  0.42801551346E+03  0.00000000000E+00 0. -1.
         11    1    4    4    0    0  0.37767211725E+01  0.24245062695E+02  0.21510707631E+02  0.32631230910E+02  0.00000000000E+00 0.  1.
</event>
<event>
 8    1  0.6692409E-009  0.2499503E+03  0.7561462E-02  0.1113336E+00
          2   -1    0    0  501    0  0.00000000000E+00  0.00000000000E+00  0.31290086032E+03  0.31290086032E+03  0.00000000000E+00 0. -1.
         -2   -1    0    0    0  501 -0.00000000000E+00 -0.00000000000E+00 -0.22282978361E+03  0.22282978361E+03  0.00000000000E+00 0.  1.
         25    2    1    2    0    0 -0.23063796016E+03 -0.69977572343E+02  0.38741431353E+02  0.27429540926E+03  0.12508534582E+03 0.  0.
         23    2    1    2    0    0  0.23063796016E+03  0.69977572343E+02  0.51329645358E+02  0.26143523466E+03  0.87309335876E+02 0.  0.
          5    1    3    3  502    0 -0.38119423971E+02  0.92949216466E+01 -0.35636330258E+02  0.53168660756E+02  0.41800000000E+01 0. -1.
         -5    1    3    3    0  502 -0.19251853619E+03 -0.79272493990E+02  0.74377761612E+02  0.22112674850E+03  0.41800000000E+01 0. -1.
        -11    1    4    4    0    0  0.97349754705E+02 -0.81690941655E+01 -0.27666093925E+01  0.97731074731E+02  0.00000000000E+00 0. -1.
         11    1    4    4    0    0  0.13328820546E+03  0.78146666509E+02  0.54096254751E+02  0.16370415993E+03  0.00000000000E+00 0.  1.
</event>
<event>
 8    1  0.6692409E-009  0.9326741E+02  0.7561462E-02  0.1295127E+00
         -1   -1    0    0    0  501 -0.00000000000E+00  0.00000000000E+00  0.47926324512E+02  0.47926324512E+02  0.00000000000E+00 0.  1.
          1   -1    0    0  501    0  0.00000000000E+00 -0.00000000000E+00 -0.35787288201E+03  0.35787288201E+03  0.00000000000E+00 0. -1.
         25    2    1    2    0    0  0.44178655295E+02  0.55706608586E+02 -0.20389656722E+03  0.24955259066E+03  0.12509078926E+03 0.  0.
         23    2    1    2    0    0 -0.44178655295E+02 -0.55706608586E+02 -0.10604999027E+03  0.15624661586E+03  0.90063448226E+02 0.  0.
          5    1    3    3  502    0  0.66965396368E+02  0.17594507692E+02 -0.40813676249E+02  0.80480802560E+02  0.41800000000E+01 0.  1.
         -5    1    3    3    0  502 -0.22786741073E+02  0.38112100894E+02 -0.16308289097E+03  0.16907178810E+03  0.41800000000E+01 0.  1.
        -11    1    4    4    0    0 -0.27906940030E+02 -0.45454004332E+02 -0.12077252822E+03  0.13202601026E+03  0.00000000000E+00 0. -1.
         11    1    4    4    0    0 -0.16271715266E+02 -0.10252604254E+02  0.14722537953E+02  0.24220605597E+02  0.00000000000E+00 0.  1.
</event>
<event>
 8    1  0.6692409E-009  0.9285179E+02  0.7561462E-02  0.1296089E+00
         -2   -1    0    0    0  501 -0.00000000000E+00  0.00000000000E+00  0.14846460498E+03  0.14846460498E+03  0.00000000000E+00 0. -1.
          2   -1    0    0  501    0  0.00000000000E+00 -0.00000000000E+00 -0.12071849099E+03  0.12071849099E+03  0.00000000000E+00 0.  1.
         25    2    1    2    0    0 -0.60551799609E+02 -0.15141423565E+02 -0.32395297023E+02  0.14350028453E+03  0.12508834177E+03 0.  0.
         23    2    1    2    0    0  0.60551799609E+02  0.15141423565E+02  0.60141411005E+02  0.12568281144E+03  0.91013167349E+02 0.  0.
          5    1    3    3  502    0 -0.42048505607E+01  0.13880609753E+02  0.42614650535E+02  0.45208770561E+02  0.41800000000E+01 0. -1.
         -5    1    3    3    0  502 -0.56346949048E+02 -0.29022033318E+02 -0.75009947558E+02  0.98291513965E+02  0.41800000000E+01 0. -1.
        -11    1    4    4    0    0 -0.14540738173E+02  0.27385084871E+02  0.42938802279E+01  0.31301970343E+02  0.00000000000E+00 0. -1.
         11    1    4    4    0    0  0.75092537781E+02 -0.12243661305E+02  0.55847530777E+02  0.94380841099E+02  0.00000000000E+00 0.  1.
</event>
<event>
 8    1  0.6692409E-009  0.1374984E+03  0.7561462E-02  0.1216735E+00
          1   -1    0    0  501    0  0.00000000000E+00  0.00000000000E+00  0.15982862699E+03  0.15982862699E+03  0.00000000000E+00 0.  1.
         -1   -1    0    0    0  501 -0.00000000000E+00 -0.00000000000E+00 -0.24950269188E+03  0.24950269188E+03  0.00000000000E+00 0. -1.
         25    2    1    2    0    0  0.98689623518E+02 -0.48724465062E+02 -0.17671892952E+03  0.24288095880E+03  0.12509142581E+03 0.  0.
         23    2    1    2    0    0 -0.98689623518E+02  0.48724465062E+02  0.87044864622E+02  0.16645036008E+03  0.89527641689E+02 0.  0.
          5    1    3    3  502    0  0.84556919784E+02  0.12758593687E+02 -0.15305310666E+03  0.17537211938E+03  0.41800000000E+01 0. -1.
         -5    1    3    3    0  502  0.14132703734E+02 -0.61483058749E+02 -0.23665822853E+02  0.67508839416E+02  0.41800000000E+01 0. -1.
        -11    1    4    4    0    0 -0.47528406864E+02  0.57122904543E+02  0.87247358233E+02  0.11460400168E+03  0.00000000000E+00 0.  1.
         11    1    4    4    0    0 -0.51161216654E+02 -0.83984394810E+01 -0.20249361048E+00  0.51846358395E+02  0.00000000000E+00 0. -1.
</event>
<event>
 8    1  0.6692409E-009  0.1310391E+03  0.7561462E-02  0.1225922E+00
         -2   -1    0    0    0  501 -0.00000000000E+00  0.00000000000E+00  0.67493453306E+02  0.67493453306E+02  0.00000000000E+00 0. -1.
          2   -1    0    0  501    0  0.00000000000E+00 -0.00000000000E+00 -0.30055623194E+03  0.30055623194E+03  0.00000000000E+00 0.  1.
         25    2    1    2    0    0 -0.82715702647E+02 -0.31233807711E+02 -0.15826602878E+03  0.22025516759E+03  0.12508702881E+03 0.  0.
         23    2    1    2    0    0  0.82715702647E+02  0.31233807711E+02 -0.74796749858E+02  0.14779451766E+03  0.91821715580E+02 0.  0.
          5    1    3    3  502    0 -0.20135187093E+02  0.47909431519E+02 -0.50953761564E+02  0.72900600857E+02  0.41800000000E+01 0.  1.
         -5    1    3    3    0  502 -0.62580515554E+02 -0.79143239230E+02 -0.10731226722E+03  0.14735456674E+03  0.41800000000E+01 0.  1.
        -11    1    4    4    0    0  0.91733379138E+02  0.18866215177E+02 -0.26794315556E+02  0.97410893997E+02  0.00000000000E+00 0. -1.
         11    1    4    4    0    0 -0.90176764912E+01  0.12367592534E+02 -0.48002434301E+02  0.50383623661E+02  0.00000000000E+00 0.  1.
</event>
<event>
 8    1  0.6692409E-009  0.1678942E+03  0.7561462E-02  0.1180062E+00
          1   -1    0    0  501    0  0.00000000000E+00  0.00000000000E+00  0.20880501304E+04  0.20880501304E+04  0.00000000000E+00 0. -1.
         -1   -1    0    0    0  501 -0.00000000000E+00 -0.00000000000E+00 -0.15766257390E+02  0.15766257390E+02  0.00000000000E+00 0.  1.
         25    2    1    2    0    0 -0.12217590882E+03  0.17771033076E+00  0.13747571950E+04  0.13858321452E+04  0.12508559243E+03 0.  0.
         23    2    1    2    0    0  0.12217590882E+03 -0.17771033076E+00  0.69752667803E+03  0.71798424252E+03  0.11845219149E+03 0.  0.
          5    1    3    3  502    0 -0.60337918364E+02 -0.57126926898E+02  0.88019110075E+03  0.88411424399E+03  0.41800000000E+01 0.  1.
         -5    1    3    3    0  502 -0.61837990452E+02  0.57304637229E+02  0.49456609420E+03  0.50171790126E+03  0.41800000000E+01 0.  1.
        -11    1    4    4    0    0  0.10063248982E+03 -0.51118851558E+02  0.41385526687E+03  0.42897111430E+03  0.00000000000E+00 0.  1.
         11    1    4    4    0    0  0.21543418991E+02  0.50941141228E+02  0.28367141116E+03  0.28901312822E+03  0.00000000000E+00 0. -1.
</event>
<event>
 8    1  0.6692409E-009  0.8727438E+02  0.7561462E-02  0.1309590E+00
         -2   -1    0    0    0  501 -0.00000000000E+00  0.00000000000E+00  0.17805608283E+03  0.17805608283E+03  0.00000000000E+00 0.  1.
          2   -1    0    0  501    0  0.00000000000E+00 -0.00000000000E+00 -0.97514155426E+02  0.97514155426E+02  0.00000000000E+00 0. -1.
         25    2    1    2    0    0  0.28195738658E+02 -0.58614776536E+02  0.82175077631E+02  0.16319004445E+03  0.12509018954E+03 0.  0.
         23    2    1    2    0    0 -0.28195738658E+02  0.58614776536E+02 -0.16331502295E+01  0.11238019380E+03  0.91629411611E+02 0.  0.
          5    1    3    3  502    0  0.22362586301E+02 -0.81935356492E+02  0.10124825999E+03  0.13222015906E+03  0.41800000000E+01 0.  1.
         -5    1    3    3    0  502  0.58331523564E+01  0.23320579956E+02 -0.19073182363E+02  0.30969885395E+02  0.41800000000E+01 0.  1.
        -11    1    4    4    0    0 -0.21250054022E+02  0.41010510276E+02  0.43494814245E+02  0.63444665774E+02  0.00000000000E+00 0.  1.
         11    1    4    4    0    0 -0.69456846353E+01  0.17604266260E+02 -0.45127964474E+02  0.48935528026E+02  0.00000000000E+00 0. -1.
</event>
<event>
 8    1  0.6692409E-009  0.1053912E+03  0.7561462E-02  0.1269351E+00
         -2   -1    0    0    0  501 -0.00000000000E+00  0.00000000000E+00  0.80931556924E+02  0.80931556924E+02  0.00000000000E+00 0.  1.
          2   -1    0    0  501    0  0.00000000000E+00 -0.00000000000E+00 -0.19413035666E+03  0.19413035666E+03  0.00000000000E+00 0. -1.
         25    2    1    2    0    0 -0.42900188142E+02 -0.44502684813E+02 -0.69828156950E+02  0.15602859809E+03  0.12509211335E+03 0.  0.
         23    2    1    2    0    0  0.42900188142E+02  0.44502684813E+02 -0.43370642788E+02  0.11903331549E+03  0.92016316180E+02 0.  0.
          5    1    3    3  502    0  0.24822446962E+02  0.27411100132E+02 -0.35322643802E+02  0.51309685721E+02  0.41800000000E+01 0. -1.
         -5    1    3    3    0  502 -0.67722635104E+02 -0.71913784945E+02 -0.34505513147E+02  0.10471891237E+03  0.41800000000E+01 0. -1.
        -11    1    4    4    0    0  0.38729716703E+02  0.10077650517E+02  0.21534637480E+02  0.45445468501E+02  0.00000000000E+00 0.  1.
         11    1    4    4    0    0  0.41704714387E+01  0.34425034296E+02 -0.64905280268E+02  0.73587846993E+02  0.00000000000E+00 0. -1.
</event>
<event>
 8    1  0.6692409E-009  0.1003663E+03  0.7561462E-02  0.1279528E+00
          2   -1    0    0  501    0  0.00000000000E+00  0.00000000000E+00  0.27085056746E+03  0.27085056746E+03  0.00000000000E+00 0. -1.
         -2   -1    0    0    0  501 -0.00000000000E+00 -0.00000000000E+00 -0.59332066635E+02  0.59332066635E+02  0.00000000000E+00 0.  1.
         25    2    1    2    0    0 -0.35651921678E+02  0.50476218795E+02  0.87782544579E+02  0.16484737171E+03  0.12509985070E+03 0.  0.
         23    2    1    2    0    0  0.35651921678E+02 -0.50476218795E+02  0.12373595624E+03  0.16533526238E+03  0.90588376384E+02 0.  0.
          5    1    3    3  502    0 -0.45488418035E+02 -0.17266509885E+02  0.82746355057E+02  0.96082049386E+02  0.41800000000E+01 0.  1.
         -5    1    3    3    0  502  0.98364963575E+01  0.67742728680E+02  0.50361895217E+01  0.68765322325E+02  0.41800000000E+01 0.  1.
        -11    1    4    4    0    0 -0.15309848744E+02 -0.12420703968E+02 -0.62010554267E+01  0.20666844075E+02  0.00000000000E+00 0.  1.
         11    1    4    4    0    0  0.50961770422E+02 -0.38055514827E+02  0.12993701167E+03  0.14466841830E+03  0.00000000000E+00 0. -1.
</event>
<event>
 8    1  0.6692409E-009  0.1721628E+03  0.7561462E-02  0.1175611E+00
          3   -1    0    0  501    0  0.00000000000E+00  0.00000000000E+00  0.13312331758E+03  0.13312331758E+03  0.00000000000E+00 0. -1.
         -3   -1    0    0    0  501 -0.00000000000E+00 -0.00000000000E+00 -0.30383338735E+03  0.30383338735E+03  0.00000000000E+00 0.  1.
         25    2    1    2    0    0 -0.15886776738E+03  0.56657589278E+02 -0.79066926107E+02  0.22438722206E+03  0.12509594990E+03 0.  0.
         23    2    1    2    0    0  0.15886776738E+03 -0.56657589278E+02 -0.91643143660E+02  0.21256948287E+03  0.91314124487E+02 0.  0.
          5    1    3    3  502    0  0.20401054025E+01  0.14062394851E+01 -0.51810011657E+02  0.52037383173E+02  0.41800000000E+01 0. -1.
         -5    1    3    3    0  502 -0.16090787278E+03  0.55251349793E+02 -0.27256914449E+02  0.17234983888E+03  0.41800000000E+01 0. -1.
        -11    1    4    4    0    0  0.10347178295E+02 -0.62798936948E-01 -0.46082780114E+02  0.47230188073E+02  0.00000000000E+00 0.  1.
         11    1    4    4    0    0  0.14852058909E+03 -0.56594790341E+02 -0.45560363546E+02  0.16533929479E+03  0.00000000000E+00 0. -1.
</event>
<event>
 8    1  0.6692409E-009  0.7935402E+02  0.7561462E-02  0.1330895E+00
          2   -1    0    0  501    0  0.00000000000E+00  0.00000000000E+00  0.50464405104E+02  0.50464405104E+02  0.00000000000E+00 0. -1.
         -2   -1    0    0    0  501 -0.00000000000E+00 -0.00000000000E+00 -0.28284771692E+03  0.28284771692E+03  0.00000000000E+00 0.  1.
         25    2    1    2    0    0 -0.13382078906E+02  0.46411224521E+02 -0.11533748048E+03  0.17686667759E+03  0.12508399354E+03 0.  0.
         23    2    1    2    0    0  0.13382078906E+02 -0.46411224521E+02 -0.11704583134E+03  0.15644544444E+03  0.91882363138E+02 0.  0.
          5    1    3    3  502    0  0.55172538875E+01  0.65143743743E+02 -0.13045371364E+03  0.14597873558E+03  0.41800000000E+01 0.  1.
         -5    1    3    3    0  502 -0.18899332793E+02 -0.18732519222E+02  0.15116233159E+02  0.30887942005E+02  0.41800000000E+01 0.  1.
        -11    1    4    4    0    0  0.20510179870E+02 -0.12578268466E+01  0.89501405642E+01  0.22413268901E+02  0.00000000000E+00 0.  1.
         11    1    4    4    0    0 -0.71281009649E+01 -0.45153397674E+02 -0.12599597190E+03  0.13403217554E+03  0.00000000000E+00 0. -1.
</event>
<event>
 8    1  0.6692409E-009  0.1160883E+03  0.7561462E-02  0.1249693E+00
         -1   -1    0    0    0  501 -0.00000000000E+00  0.00000000000E+00  0.90572191667E+02  0.90572191667E+02  0.00000000000E+00 0.  1.
          1   -1    0    0  501    0  0.00000000000E+00 -0.00000000000E+00 -0.15990419015E+03  0.15990419015E+03  0.00000000000E+00 0. -1.
         25    2    1    2    0    0  0.48511735200E+02  0.17920170739E+02 -0.31886442713E+02  0.13906240155E+03  0.12508831010E+03 0.  0.
         23    2    1    2    0    0 -0.48511735200E+02 -0.17920170739E+02 -0.37445555771E+02  0.11141398027E+03  0.91303802669E+02 0.  0.
          5    1    3    3  502    0  0.30379667360E+01  0.65053649579E+02  0.18233258198E+01  0.65284021647E+02  0.41800000000E+01 0.  1.
         -5    1    3    3    0  502  0.45473768464E+02 -0.47133478840E+02 -0.33709768533E+02  0.73778379898E+02  0.41800000000E+01 0.  1.
        -11    1    4    4    0    0 -0.40764015003E+02 -0.52152172930E+02 -0.10183333082E+02  0.66972041429E+02  0.00000000000E+00 0.  1.
         11    1    4    4    0    0 -0.77477201970E+01  0.34232002191E+02 -0.27262222689E+02  0.44441938844E+02  0.00000000000E+00 0. -1.
</event>
<event>
 8    1  0.6692409E-009  0.1610408E+03  0.7561462E-02  0.1187527E+00
          2   -1    0    0  501    0  0.00000000000E+00  0.00000000000E+00  0.40576646417E+02  0.40576646417E+02  0.00000000000E+00 0. -1.
         -2   -1    0    0    0  501 -0.00000000000E+00 -0.00000000000E+00 -0.80152059589E+03  0.80152059589E+03  0.00000000000E+00 0.  1.
         25    2    1    2    0    0 -0.70410619036E+02 -0.11945681060E+03 -0.49268242797E+03  0.52688607142E+03  0.12508146368E+03 0.  0.
         23    2    1    2    0    0  0.70410619036E+02  0.11945681060E+03 -0.26826152150E+03  0.31521117088E+03  0.90367325167E+02 0.  0.
          5    1    3    3  502    0 -0.11068090380E+01 -0.96970708292E+02 -0.16730317937E+03  0.19342277405E+03  0.41800000000E+01 0. -1.
         -5    1    3    3    0  502 -0.69303809998E+02 -0.22486102313E+02 -0.32537924860E+03  0.33346329737E+03  0.41800000000E+01 0. -1.
        -11    1    4    4    0    0  0.66206460726E+02  0.51319504684E+02 -0.20768849526E+03  0.22394530150E+03  0.00000000000E+00 0.  1.
         11    1    4    4    0    0  0.42041583102E+01  0.68137305921E+02 -0.60573026243E+02  0.91265869378E+02  0.00000000000E+00 0. -1.
</event>
<event>
 8    1  0.6692409E-009  0.8487624E+02  0.7561462E-02  0.1315757E+00
         -1   -1    0    0    0  501 -0.00000000000E+00  0.00000000000E+00  0.70432495573E+02  0.70432495573E+02  0.00000000000E+00 0.  1.
          1   -1    0    0  501    0  0.00000000000E+00 -0.00000000000E+00 -0.20833623791E+03  0.20833623791E+03  0.00000000000E+00 0. -1.
         25    2    1    2    0    0 -0.49837778936E+02  0.96235670939E+01 -0.53419822161E+02  0.14517909645E+03  0.12508747097E+03 0.  0.
         23    2    1    2    0    0  0.49837778936E+02 -0.96235670939E+01 -0.84483920173E+02  0.13358963703E+03  0.90178939341E+02 0.  0.
          5    1    3    3  502    0 -0.55976068965E+02  0.13739515866E+02  0.27371062778E+02  0.63943272286E+02  0.41800000000E+01 0.  1.
         -5    1    3    3    0  502  0.61382900290E+01 -0.41159487721E+01 -0.80790884939E+02  0.81235824166E+02  0.41800000000E+01 0.  1.
        -11    1    4    4    0    0  0.30584996150E+01  0.37176555211E+02 -0.29573314068E+02  0.47602852670E+02  0.00000000000E+00 0. -1.
         11    1    4    4    0    0  0.46779279321E+02 -0.46800122305E+02 -0.54910606105E+02  0.85986784359E+02  0.00000000000E+00 0.  1.
</event>
<event>
 8    1  0.6692409E-009  0.1214594E+03  0.7561462E-02  0.1240709E+00
         -1   -1    0    0    0  501 -0.00000000000E+00  0.00000000000E+00  0.13924543223E+03  0.13924543223E+03  0.00000000000E+00 0.  1.
          1   -1    0    0  501    0  0.00000000000E+00 -0.00000000000E+00 -0.12640481188E+03  0.12640481188E+03  0.00000000000E+00 0. -1.
         25    2    1    2    0    0 -0.49604551552E+02 -0.52432746559E+02  0.31941617401E+02  0.14791018855E+03  0.12508937808E+03 0.  0.
         23    2    1    2    0    0  0.49604551552E+02  0.52432746559E+02 -0.19100997056E+02  0.11774005556E+03  0.91038827691E+02 0.  0.
          5    1    3    3  502    0 -0.29819852403E+02 -0.84048890215E+02 -0.12045018047E+02  0.90088813975E+02  0.41800000000E+01 0.  1.
         -5    1    3    3    0  502 -0.19784699149E+02  0.31616143655E+02  0.43986635447E+02  0.57821374578E+02  0.41800000000E+01 0.  1.
        -11    1    4    4    0    0  0.76249064504E+02  0.44609044988E+02 -0.16286541105E+02  0.89828381671E+02  0.00000000000E+00 0. -1.
         11    1    4    4    0    0 -0.26644512952E+02  0.78237015711E+01 -0.28144559509E+01  0.27911673884E+02  0.00000000000E+00 0.  1.
</event>
<event>
 8    1  0.6692409E-009  0.6789382E+02  0.7561462E-02  0.1367405E+00
         -1   -1    0    0    0  501 -0.00000000000E+00  0.00000000000E+00  0.46262260574E+02  0.46262260574E+02  0.00000000000E+00 0.  1.
          1   -1    0    0  501    0  0.00000000000E+00 -0.00000000000E+00 -0.52780263153E+03  0.52780263153E+03  0.00000000000E+00 0. -1.
         25    2    1    2    0    0 -0.17221725180E+02  0.51919375987E+02 -0.44175621838E+03  0.46237029859E+03  0.12508208154E+03 0.  0.
         23    2    1    2    0    0  0.17221725180E+02 -0.51919375987E+02 -0.39784152576E+02  0.11169459351E+03  0.88885848155E+02 0.  0.
          5    1    3    3  502    0 -0.20266013259E+02  0.48233876371E+01 -0.39578265285E+03  0.39635256661E+03  0.41800000000E+01 0. -1.
         -5    1    3    3    0  502  0.30442880796E+01  0.47095988350E+02 -0.45973565527E+02  0.66017731981E+02  0.41800000000E+01 0. -1.
        -11    1    4    4    0    0  0.29763514764E+02 -0.32755361356E+02 -0.64354975503E+02  0.78104694998E+02  0.00000000000E+00 0. -1.
         11    1    4    4    0    0 -0.12541789585E+02 -0.19164014630E+02  0.24570822927E+02  0.33589898512E+02  0.00000000000E+00 0.  1.
</event>
<event>
 8    1  0.6692409E-009  0.2158822E+03  0.7561462E-02  0.1136991E+00
          3   -1    0    0  501    0  0.00000000000E+00  0.00000000000E+00  0.12891036938E+04  0.12891036938E+04  0.00000000000E+00 0. -1.
         -3   -1    0    0    0  501 -0.00000000000E+00 -0.00000000000E+00 -0.38001844431E+02  0.38001844431E+02  0.00000000000E+00 0.  1.
         25    2    1    2    0    0 -0.14742906451E+03  0.12360619621E+03  0.67230399903E+03  0.71038983365E+03  0.12508887975E+03 0.  0.
         23    2    1    2    0    0  0.14742906451E+03 -0.12360619621E+03  0.57879785034E+03  0.61671570459E+03  0.91200262719E+02 0.  0.
          5    1    3    3  502    0 -0.16820138105E+03  0.11438952615E+03  0.56206162389E+03  0.59775196339E+03  0.41800000000E+01 0.  1.
         -5    1    3    3    0  502  0.20772316540E+02  0.92166700578E+01  0.11024237514E+03  0.11263787026E+03  0.41800000000E+01 0.  1.
        -11    1    4    4    0    0  0.11504638583E+03 -0.12847332592E+03  0.41037544819E+03  0.44513938810E+03  0.00000000000E+00 0.  1.
         11    1    4    4    0    0  0.32382678675E+02  0.48671297156E+01  0.16842240216E+03  0.17157631649E+03  0.00000000000E+00 0. -1.
</event>
<event>
 8    1  0.6692409E-009  0.2556110E+03  0.7561462E-02  0.1109809E+00
         -2   -1    0    0    0  501 -0.00000000000E+00  0.00000000000E+00  0.45165396243E+02  0.45165396243E+02  0.00000000000E+00 0.  1.
          2   -1    0    0  501    0  0.00000000000E+00 -0.00000000000E+00 -0.17259523996E+04  0.17259523996E+04  0.00000000000E+00 0. -1.
         25    2    1    2    0    0 -0.23658200317E+03 -0.38562196002E+02 -0.11521382357E+04  0.11834390361E+04  0.12508937098E+03 0.  0.
         23    2    1    2    0    0  0.23658200317E+03  0.38562196002E+02 -0.52864876762E+03  0.58767875974E+03  0.91862494865E+02 0.  0.
          5    1    3    3  502    0 -0.55672240510E+02 -0.48630297822E+02 -0.18141446251E+03  0.19594127650E+03  0.41800000000E+01 0. -1.
         -5    1    3    3    0  502 -0.18090976266E+03  0.10068101821E+02 -0.97072377322E+03  0.98749775959E+03  0.41800000000E+01 0. -1.
        -11    1    4    4    0    0  0.24677368672E+01 -0.15479057018E+02 -0.44675881319E+02  0.47345805549E+02  0.00000000000E+00 0. -1.
         11    1    4    4    0    0  0.23411426630E+03  0.54041253019E+02 -0.48397288630E+03  0.54033295419E+03  0.00000000000E+00 0.  1.
</event>
<event>
 8    1  0.6692409E-009  0.1003498E+03  0.7561462E-02  0.1279562E+00
         -2   -1    0    0    0  501 -0.00000000000E+00  0.00000000000E+00  0.29285959138E+02  0.29285959138E+02  0.00000000000E+00 0.  1.
          2   -1    0    0  501    0  0.00000000000E+00 -0.00000000000E+00 -0.68765513763E+03  0.68765513763E+03  0.00000000000E+00 0. -1.
         25    2    1    2    0    0 -0.61023584444E+02  0.38320335866E+02 -0.50297550730E+03  0.52328216443E+03  0.12509011421E+03 0.  0.
         23    2    1    2    0    0  0.61023584444E+02 -0.38320335866E+02 -0.15539367119E+03  0.19365893234E+03  0.90356311494E+02 0.  0.
          5    1    3    3  502    0  0.78787084558E+01  0.11568808391E+02 -0.37612911047E+03  0.37641266121E+03  0.41800000000E+01 0. -1.
         -5    1    3    3    0  502 -0.68902292900E+02  0.26751527474E+02 -0.12684639682E+03  0.14686950322E+03  0.41800000000E+01 0. -1.
        -11    1    4    4    0    0  0.17197148573E+02  0.27826797884E+02 -0.68965048987E+02  0.76329880003E+02  0.00000000000E+00 0. -1.
         11    1    4    4    0    0  0.43826435871E+02 -0.66147133750E+02 -0.86428622208E+02  0.11732905233E+03  0.00000000000E+00 0.  1.
</event>
<event>
 8    1  0.6692409E-009  0.1807505E+03  0.7561462E-02  0.1167079E+00
         -3   -1    0    0    0  501 -0.00000000000E+00  0.00000000000E+00  0.11762967903E+03  0.11762967903E+03  0.00000000000E+00 0.  1.
          3   -1    0    0  501    0  0.00000000000E+00 -0.00000000000E+00 -0.36024188585E+03  0.36024188585E+03  0.00000000000E+00 0. -1.
         25    2    1    2    0    0 -0.12340480001E+03  0.12260235741E+03 -0.10757705494E+03  0.23974433393E+03  0.12507773660E+03 0.  0.
         23    2    1    2    0    0  0.12340480001E+03 -0.12260235741E+03 -0.13503515187E+03  0.23812723094E+03  0.90609067790E+02 0.  0.
          5    1    3    3  502    0 -0.33301234611E+02  0.60152681249E+02 -0.11025371829E+03  0.13000258491E+03  0.41800000000E+01 0.  1.
         -5    1    3    3    0  502 -0.90103565401E+02  0.62449676160E+02  0.26766633438E+01  0.10974174902E+03  0.41800000000E+01 0.  1.
        -11    1    4    4    0    0  0.11414321475E+03 -0.80185865111E+02 -0.60885310287E+02  0.15220206124E+03  0.00000000000E+00 0.  1.
         11    1    4    4    0    0  0.92615852593E+01 -0.42416492298E+02 -0.74149841587E+02  0.85925169698E+02  0.00000000000E+00 0. -1.
</event>
<event>
 8    1  0.6692409E-009  0.1121381E+03  0.7561462E-02  0.1256661E+00
         -4   -1    0    0    0  501 -0.00000000000E+00  0.00000000000E+00  0.89774357796E+02  0.89774357796E+02  0.00000000000E+00 0.  1.
          4   -1    0    0  501    0  0.00000000000E+00 -0.00000000000E+00 -0.17706103504E+03  0.17706103504E+03  0.00000000000E+00 0. -1.
         25    2    1    2    0    0  0.10757597603E+02  0.35131427222E+02 -0.10416608355E+03  0.16687317980E+03  0.12508453976E+03 0.  0.
         23    2    1    2    0    0 -0.10757597603E+02 -0.35131427222E+02  0.16879406307E+02  0.99962213044E+02  0.91419836986E+02 0.  0.
          5    1    3    3  502    0 -0.27212262491E+01  0.80591623250E+02 -0.79279941758E+02  0.11316004761E+03  0.41800000000E+01 0. -1.
         -5    1    3    3    0  502  0.13478823852E+02 -0.45460196029E+02 -0.24886141796E+02  0.53713132183E+02  0.41800000000E+01 0. -1.
        -11    1    4    4    0    0 -0.13584354624E+02  0.28848985112E+02 -0.50171148292E+01  0.32279561238E+02  0.00000000000E+00 0.  1.
         11    1    4    4    0    0  0.28267570210E+01 -0.63980412333E+02  0.21896521136E+02  0.67682651806E+02  0.00000000000E+00 0. -1.
</event>
<event>
 8    1  0.6692409E-009  0.1287955E+03  0.7561462E-02  0.1229254E+00
         -1   -1    0    0    0  501 -0.00000000000E+00  0.00000000000E+00  0.57614041875E+02  0.57614041875E+02  0.00000000000E+00 0.  1.
          1   -1    0    0  501    0  0.00000000000E+00 -0.00000000000E+00 -0.35303845556E+03  0.35303845556E+03  0.00000000000E+00 0. -1.
         25    2    1    2    0    0 -0.88943179026E+02  0.17838648653E+02 -0.18518994435E+03  0.24118642067E+03  0.12508584072E+03 0.  0.
         23    2    1    2    0    0  0.88943179026E+02 -0.17838648653E+02 -0.11023446933E+03  0.16946607676E+03  0.91312685108E+02 0.  0.
          5    1    3    3  502    0 -0.98208749884E+02  0.56506942140E+02 -0.12331064689E+03  0.16751412209E+03  0.41800000000E+01 0. -1.
         -5    1    3    3    0  502  0.92655708577E+01 -0.38668293487E+02 -0.61879297455E+02  0.73672298580E+02  0.41800000000E+01 0. -1.
        -11    1    4    4    0    0  0.17400340898E+02  0.17285804502E+02  0.89328985356E+01  0.26103018540E+02  0.00000000000E+00 0.  1.
         11    1    4    4    0    0  0.71542838128E+02 -0.35124453155E+02 -0.11916736787E+03  0.14336305822E+03  0.00000000000E+00 0. -1.
</event>
<event>
 8    1  0.6692409E-009  0.1088285E+03  0.7561462E-02  0.1262755E+00
          2   -1    0    0  501    0  0.00000000000E+00  0.00000000000E+00  0.20726950367E+03  0.20726950367E+03  0.00000000000E+00 0. -1.
         -2   -1    0    0    0  501 -0.00000000000E+00 -0.00000000000E+00 -0.85886365071E+02  0.85886365071E+02  0.00000000000E+00 0.  1.
         25    2    1    2    0    0  0.17099753207E+01 -0.81720455492E+02  0.54746090692E+02  0.15914173671E+03  0.12509117098E+03 0.  0.
         23    2    1    2    0    0 -0.17099753207E+01  0.81720455492E+02  0.66637047903E+02  0.13401413202E+03  0.82693014015E+02 0.  0.
          5    1    3    3  502    0 -0.39166265855E+02 -0.74740515762E+02  0.74846483309E+02  0.11286987880E+03  0.41800000000E+01 0.  1.
         -5    1    3    3    0  502  0.40876241176E+02 -0.69799397305E+01 -0.20100392616E+02  0.46271857912E+02  0.41800000000E+01 0.  1.
        -11    1    4    4    0    0 -0.21355852280E+02  0.38722365980E+02 -0.87044866079E+01  0.45069525633E+02  0.00000000000E+00 0.  1.
         11    1    4    4    0    0  0.19645876959E+02  0.42998089512E+02  0.75341534511E+02  0.88944606389E+02  0.00000000000E+00 0. -1.
</event>
<event>
 8    1  0.6692409E-009  0.2123637E+03  0.7561462E-02  0.1139708E+00
          2   -1    0    0  501    0  0.00000000000E+00  0.00000000000E+00  0.98411990664E+03  0.98411990664E+03  0.00000000000E+00 0. -1.
         -2   -1    0    0    0  501 -0.00000000000E+00 -0.00000000000E+00 -0.83064867165E+02  0.83064867165E+02  0.00000000000E+00 0.  1.
         25    2    1    2    0    0 -0.70526084637E+02 -0.19205669104E+03  0.15658880063E+03  0.28640376005E+03  0.12508940844E+03 0.  0.
         23    2    1    2    0    0  0.70526084637E+02  0.19205669104E+03  0.74446623884E+03  0.78078101375E+03  0.11631555988E+03 0.  0.
          5    1    3    3  502    0 -0.18687635150E+02  0.19719166586E+01 -0.13234021198E+02  0.23360819333E+02  0.41800000000E+01 0.  1.
         -5    1    3    3    0  502 -0.51838449486E+02 -0.19402860769E+03  0.16982282183E+03  0.26304294072E+03  0.41800000000E+01 0.  1.
        -11    1    4    4    0    0  0.35072884012E+02  0.93978571411E+02  0.55966742127E+03  0.56858570287E+03  0.00000000000E+00 0. -1.
         11    1    4    4    0    0  0.35453200624E+02  0.98078119624E+02  0.18479881758E+03  0.21219531088E+03  0.00000000000E+00 0.  1.
</event>
<event>
 8    1  0.6692409E-009  0.9400852E+02  0.7561462E-02  0.1293425E+00
         -1   -1    0    0    0  501 -0.00000000000E+00  0.00000000000E+00  0.13840005336E+02  0.13840005336E+02  0.00000000000E+00 0.  1.
          1   -1    0    0  501    0  0.00000000000E+00 -0.00000000000E+00 -0.91012424401E+03  0.91012424401E+03  0.00000000000E+00 0. -1.
         25    2    1    2    0    0 -0.18433876805E+02 -0.10855152088E+02 -0.52302821270E+03  0.53820373624E+03  0.12508840184E+03 0.  0.
         23    2    1    2    0    0  0.18433876805E+02  0.10855152088E+02 -0.37325602597E+03  0.38576051311E+03  0.95044570653E+02 0.  0.
          5    1    3    3  502    0 -0.49130365146E+02 -0.28137500863E+02 -0.11122950663E+03  0.12487989141E+03  0.41800000000E+01 0.  1.
         -5    1    3    3    0  502  0.30696488341E+02  0.17282348775E+02 -0.41179870607E+03  0.41332384482E+03  0.41800000000E+01 0.  1.
        -11    1    4    4    0    0  0.33528206174E+02  0.46347072737E+02 -0.25642643122E+03  0.26272934055E+03  0.00000000000E+00 0.  1.
         11    1    4    4    0    0 -0.15094329369E+02 -0.35491920650E+02 -0.11682959475E+03  0.12303117255E+03  0.00000000000E+00 0. -1.
</event>
<event>
 8    1  0.6692409E-009  0.1242653E+03  0.7561462E-02  0.1236222E+00
         -2   -1    0    0    0  501 -0.00000000000E+00  0.00000000000E+00  0.20338798666E+02  0.20338798666E+02  0.00000000000E+00 0.  1.
          2   -1    0    0  501    0  0.00000000000E+00 -0.00000000000E+00 -0.96023839770E+03  0.96023839770E+03  0.00000000000E+00 0. -1.
         25    2    1    2    0    0 -0.66227442759E+02  0.23000757306E+02 -0.70195589776E+03  0.71645254517E+03  0.12508820113E+03 0.  0.
         23    2    1    2    0    0  0.66227442759E+02 -0.23000757306E+02 -0.23794370127E+03  0.26412465120E+03  0.90716687467E+02 0.  0.
          5    1    3    3  502    0 -0.60429669769E+02 -0.38810576987E+02 -0.24706973438E+03  0.25733039447E+03  0.41800000000E+01 0. -1.
         -5    1    3    3    0  502 -0.57977729908E+01  0.61811334293E+02 -0.45488616339E+03  0.45912215069E+03  0.41800000000E+01 0. -1.
        -11    1    4    4    0    0  0.81260043108E+02 -0.40916091495E+02 -0.18144233305E+03  0.20297448453E+03  0.00000000000E+00 0.  1.
         11    1    4    4    0    0 -0.15032600348E+02  0.17915334188E+02 -0.56501368220E+02  0.61150166664E+02  0.00000000000E+00 0. -1.
</event>
<event>
 8    1  0.6692409E-009  0.1019758E+03  0.7561462E-02  0.1276195E+00
         -1   -1    0    0    0  501 -0.00000000000E+00  0.00000000000E+00  0.17335653082E+03  0.17335653082E+03  0.00000000000E+00 0.  1.
          1   -1    0    0  501    0  0.00000000000E+00 -0.00000000000E+00 -0.11447959857E+03  0.11447959857E+03  0.00000000000E+00 0. -1.
         25    2    1    2    0    0 -0.54189105582E+02 -0.33313641667E+02  0.94980364725E+02  0.16945440532E+03  0.12508903995E+03 0.  0.
         23    2    1    2    0    0  0.54189105582E+02  0.33313641667E+02 -0.36103432475E+02  0.11838172406E+03  0.93083386649E+02 0.  0.
          5    1    3    3  502    0  0.25249763034E+02  0.29441851662E+02  0.26543429519E+02  0.47184734960E+02  0.41800000000E+01 0. -1.
         -5    1    3    3    0  502 -0.79438868616E+02 -0.62755493329E+02  0.68436935206E+02  0.12226967036E+03  0.41800000000E+01 0. -1.
        -11    1    4    4    0    0  0.12180943712E+02  0.69977858934E+01 -0.61220275482E+02  0.62811356674E+02  0.00000000000E+00 0. -1.
         11    1    4    4    0    0  0.42008161870E+02  0.26315855773E+02  0.25116843007E+02  0.55570367386E+02  0.00000000000E+00 0.  1.
</event>
<event>
 8    1  0.6692409E-009  0.1283402E+03  0.7561462E-02  0.1229940E+00
          1   -1    0    0  501    0  0.00000000000E+00  0.00000000000E+00  0.11916317413E+04  0.11916317413E+04  0.00000000000E+00 0. -1.
         -1   -1    0    0    0  501 -0.00000000000E+00 -0.00000000000E+00 -0.16334209752E+02  0.16334209752E+02  0.00000000000E+00 0.  1.
         25    2    1    2    0    0  0.21626725284E+01  0.92566248376E+02  0.83241846751E+03  0.84684199040E+03  0.12509062382E+03 0.  0.
         23    2    1    2    0    0 -0.21626725284E+01 -0.92566248376E+02  0.34287906405E+03  0.36112396066E+03  0.65354991455E+02 0.  0.
          5    1    3    3  502    0 -0.26482175848E+01 -0.30786322058E+02  0.13350567668E+03  0.13709868266E+03  0.41800000000E+01 0.  1.
         -5    1    3    3    0  502  0.48108901132E+01  0.12335257043E+03  0.69891279083E+03  0.70974330774E+03  0.41800000000E+01 0.  1.
        -11    1    4    4    0    0 -0.15139200526E+02 -0.94233377112E+01  0.17297078467E+02  0.24843180346E+02  0.00000000000E+00 0.  1.
         11    1    4    4    0    0  0.12976527998E+02 -0.83142910665E+02  0.32558198558E+03  0.33628078031E+03  0.00000000000E+00 0. -1.
</event>
<event>
 8    1  0.6692409E-009  0.9963860E+02  0.7561462E-02  0.1281058E+00
          2   -1    0    0  501    0  0.00000000000E+00  0.00000000000E+00  0.11277680615E+03  0.11277680615E+03  0.00000000000E+00 0.  1.
         -2   -1    0    0    0  501 -0.00000000000E+00 -0.00000000000E+00 -0.14358088208E+03  0.14358088208E+03  0.00000000000E+00 0. -1.
         25    2    1    2    0    0 -0.57231160367E+02 -0.28192922987E+02 -0.17413344526E+00  0.14039522251E+03  0.12506215078E+03 0.  0.
         23    2    1    2    0    0  0.57231160367E+02  0.28192922987E+02 -0.30629942477E+02  0.11596246572E+03  0.91863232341E+02 0.  0.
          5    1    3    3  502    0 -0.23411364035E+02  0.32909641314E+02 -0.42377109932E+02  0.58689252028E+02  0.41800000000E+01 0.  1.
         -5    1    3    3    0  502 -0.33819796332E+02 -0.61102564300E+02  0.42202976487E+02  0.81705970482E+02  0.41800000000E+01 0.  1.
        -11    1    4    4    0    0  0.56109998416E+02 -0.42299625475E+01  0.16597115686E+02  0.58665907941E+02  0.00000000000E+00 0.  1.
         11    1    4    4    0    0  0.11211619504E+01  0.32422885534E+02 -0.47227058164E+02  0.57296557779E+02  0.00000000000E+00 0. -1.
</event>
<event>
 8    1  0.6692409E-009  0.2742086E+03  0.7561462E-02  0.1098895E+00
          1   -1    0    0  501    0  0.00000000000E+00  0.00000000000E+00  0.87141914844E+02  0.87141914844E+02  0.00000000000E+00 0. -1.
         -1   -1    0    0    0  501 -0.00000000000E+00 -0.00000000000E+00 -0.93511142431E+03  0.93511142431E+03  0.00000000000E+00 0.  1.
         25    2    1    2    0    0  0.11405631648E+03  0.23779835460E+03 -0.42118305665E+03  0.51244487550E+03  0.12509069686E+03 0.  0.
         23    2    1    2    0    0 -0.11405631648E+03 -0.23779835460E+03 -0.42678645281E+03  0.50980846365E+03  0.90559883653E+02 0.  0.
          5    1    3    3  502    0  0.69596993698E+02  0.75567212957E+02 -0.74139575850E+02  0.12676077593E+03  0.41800000000E+01 0.  1.
         -5    1    3    3    0  502  0.44459322777E+02  0.16223114164E+03 -0.34704348080E+03  0.38568409958E+03  0.41800000000E+01 0.  1.
        -11    1    4    4    0    0 -0.11076994094E+03 -0.13564218474E+03 -0.24325932343E+03  0.29973968795E+03  0.00000000000E+00 0. -1.
         11    1    4    4    0    0 -0.32863755339E+01 -0.10215616986E+03 -0.18352712938E+03  0.21006877570E+03  0.00000000000E+00 0.  1.
</event>
<event>
 8    1  0.6692409E-009  0.1255254E+03  0.7561462E-02  0.1234250E+00
          1   -1    0    0  501    0  0.00000000000E+00  0.00000000000E+00  0.65542111642E+02  0.65542111642E+02  0.00000000000E+00 0. -1.
         -1   -1    0    0    0  501 -0.00000000000E+00 -0.00000000000E+00 -0.45143685253E+03  0.45143685253E+03  0.00000000000E+00 0.  1.
         25    2    1    2    0    0 -0.10905872323E+02  0.98323262116E+02 -0.70654440227E+02  0.17442402842E+03  0.12508113304E+03 0.  0.
         23    2    1    2    0    0  0.10905872323E+02 -0.98323262116E+02 -0.31524030066E+03  0.34255493575E+03  0.90449073627E+02 0.  0.
          5    1    3    3  502    0  0.30832033151E+01 -0.21361590913E+02  0.14921617409E+02  0.26569734194E+02  0.41800000000E+01 0. -1.
         -5    1    3    3    0  502 -0.13989075638E+02  0.11968485303E+03 -0.85576057637E+02  0.14785429423E+03  0.41800000000E+01 0. -1.
        -11    1    4    4    0    0  0.28384585887E+02 -0.61373063785E+02 -0.28163452127E+03  0.28963829382E+03  0.00000000000E+00 0.  1.
         11    1    4    4    0    0 -0.17478713563E+02 -0.36950198331E+02 -0.33605779385E+02  0.52916641925E+02  0.00000000000E+00 0. -1.
</event>
<event>
 8    1  0.6692409E-009  0.1768275E+03  0.7561462E-02  0.1170909E+00
          2   -1    0    0  501    0  0.00000000000E+00  0.00000000000E+00  0.10775380090E+04  0.10775380090E+04  0.00000000000E+00 0.  1.
         -2   -1    0    0    0  501 -0.00000000000E+00 -0.00000000000E+00 -0.38237451449E+02  0.38237451449E+02  0.00000000000E+00 0. -1.
         25    2    1    2    0    0 -0.62224568119E+02 -0.14179714455E+03  0.74105701598E+03  0.76732721050E+03  0.12508884829E+03 0.  0.
         23    2    1    2    0    0  0.62224568119E+02  0.14179714455E+03  0.29824354154E+03  0.34844824991E+03  0.92133846759E+02 0.  0.
          5    1    3    3  502    0 -0.60331455522E+02 -0.15616370221E+02  0.14233962264E+03  0.15544065143E+03  0.41800000000E+01 0. -1.
         -5    1    3    3    0  502 -0.18931125970E+01 -0.12618077433E+03  0.59871739334E+03  0.61188655907E+03  0.41800000000E+01 0. -1.
        -11    1    4    4    0    0  0.73227283785E+02  0.12397240544E+03  0.29358165322E+03  0.32698865348E+03  0.00000000000E+00 0.  1.
         11    1    4    4    0    0 -0.11002715666E+02  0.17824739107E+02  0.46618883236E+01  0.21459596431E+02  0.00000000000E+00 0. -1.
</event>
<event>
 8    1  0.6692409E-009  0.1507113E+03  0.7561462E-02  0.1199602E+00
          2   -1    0    0  501    0  0.00000000000E+00  0.00000000000E+00  0.12114191914E+04  0.12114191914E+04  0.00000000000E+00 0. -1.
         -2   -1    0    0    0  501 -0.00000000000E+00 -0.00000000000E+00 -0.23760378937E+02  0.23760378937E+02  0.00000000000E+00 0.  1.
         25    2    1    2    0    0 -0.81036742306E+02 -0.10150084132E+03  0.60440994288E+03  0.63073676307E+03  0.12509240924E+03 0.  0.
         23    2    1    2    0    0  0.81036742306E+02  0.10150084132E+03  0.58324886955E+03  0.60444280723E+03  0.91117994860E+02 0.  0.
          5    1    3    3  502    0 -0.28605107537E+02  0.40580317343E+01  0.22127992651E+02  0.36631137814E+02  0.41800000000E+01 0. -1.
         -5    1    3    3    0  502 -0.52431634769E+02 -0.10555887305E+03  0.58228195023E+03  0.59410562526E+03  0.41800000000E+01 0. -1.
        -11    1    4    4    0    0  0.50044175609E+02  0.11109743057E+03  0.50958956356E+03  0.52395475175E+03  0.00000000000E+00 0. -1.
         11    1    4    4    0    0  0.30992566697E+02 -0.95965892546E+01  0.73659305990E+02  0.80488055479E+02  0.00000000000E+00 0.  1.
</event>
<event>
 8    1  0.6692409E-009  0.1044247E+03  0.7561462E-02  0.1271257E+00
         -1   -1    0    0    0  501 -0.00000000000E+00  0.00000000000E+00  0.51555851534E+02  0.51555851534E+02  0.00000000000E+00 0.  1.
          1   -1    0    0  501    0  0.00000000000E+00 -0.00000000000E+00 -0.36801678873E+03  0.36801678873E+03  0.00000000000E+00 0. -1.
         25    2    1    2    0    0  0.63853270157E+01 -0.83228790521E+02 -0.20573674612E+03  0.25484182599E+03  0.12509573771E+03 0.  0.
         23    2    1    2    0    0 -0.63853270157E+01  0.83228790521E+02 -0.11072419107E+03  0.16473081428E+03  0.88930257567E+02 0.  0.
          5    1    3    3  502    0  0.67348625838E+01 -0.42642891578E+00 -0.15991808659E+03  0.16011498067E+03  0.41800000000E+01 0.  1.
         -5    1    3    3    0  502 -0.34953556804E+00 -0.82802361606E+02 -0.45818659532E+02  0.94726845318E+02  0.41800000000E+01 0.  1.
        -11    1    4    4    0    0 -0.22328604892E+02 -0.92434947712E+01 -0.41866360640E+02  0.48340469022E+02  0.00000000000E+00 0. -1.
         11    1    4    4    0    0  0.15943277877E+02  0.92472285293E+02 -0.68857830432E+02  0.11639034525E+03  0.00000000000E+00 0.  1.
</event>
<event>
 8    1  0.6692409E-009  0.8928417E+02  0.7561462E-02  0.1304594E+00
          1   -1    0    0  501    0  0.00000000000E+00  0.00000000000E+00  0.54083178607E+03  0.54083178607E+03  0.00000000000E+00 0. -1.
         -1   -1    0    0    0  501 -0.00000000000E+00 -0.00000000000E+00 -0.35136341660E+02  0.35136341660E+02  0.00000000000E+00 0.  1.
         25    2    1    2    0    0 -0.26094666886E+02  0.18848235006E+02  0.43894038110E+03  0.45755054584E+03  0.12509059209E+03 0.  0.
         23    2    1    2    0    0  0.26094666886E+02 -0.18848235006E+02  0.66755063312E+02  0.11841758190E+03  0.92359610341E+02 0.  0.
          5    1    3    3  502    0 -0.52675487254E+02  0.45105898474E+02  0.14036609255E+03  0.15661852180E+03  0.41800000000E+01 0.  1.
         -5    1    3    3    0  502  0.26580820368E+02 -0.26257663468E+02  0.29857428856E+03  0.30093202403E+03  0.41800000000E+01 0.  1.
        -11    1    4    4    0    0  0.84841513430E+01 -0.41752461759E+02 -0.32053558114E+01  0.42726141797E+02  0.00000000000E+00 0.  1.
         11    1    4    4    0    0  0.17610515543E+02  0.22904226753E+02  0.69960419123E+02  0.75691440102E+02  0.00000000000E+00 0. -1.
</event>
<event>
 8    1  0.6692409E-009  0.1112085E+03  0.7561462E-02  0.1258348E+00
          1   -1    0    0  501    0  0.00000000000E+00  0.00000000000E+00  0.43876678507E+03  0.43876678507E+03  0.00000000000E+00 0. -1.
         -1   -1    0    0    0  501 -0.00000000000E+00 -0.00000000000E+00 -0.31572638799E+02  0.31572638799E+02  0.00000000000E+00 0.  1.
         25    2    1    2    0    0  0.42759261700E+01  0.43697344177E+02  0.26971991259E+03  0.30054138185E+03  0.12509416263E+03 0.  0.
         23    2    1    2    0    0 -0.42759261700E+01 -0.43697344177E+02  0.13747423368E+03  0.16979804202E+03  0.89467696486E+02 0.  0.
          5    1    3    3  502    0 -0.56307887030E+02  0.11592238336E+02  0.16955864268E+03  0.17908814545E+03  0.41800000000E+01 0. -1.
         -5    1    3    3    0  502  0.60583813200E+02  0.32105105841E+02  0.10016126990E+03  0.12145323640E+03  0.41800000000E+01 0. -1.
        -11    1    4    4    0    0  0.35415186612E+02 -0.43885170658E+02  0.57622635746E+02  0.80625751449E+02  0.00000000000E+00 0.  1.
         11    1    4    4    0    0 -0.39691112782E+02  0.18782648138E+00  0.79851597938E+02  0.89172290572E+02  0.00000000000E+00 0. -1.
</event>
<event>
 8    1  0.6692409E-009  0.9423032E+02  0.7561462E-02  0.1292919E+00
         -4   -1    0    0    0  501 -0.00000000000E+00  0.00000000000E+00  0.19848263517E+03  0.19848263517E+03  0.00000000000E+00 0.  1.
          4   -1    0    0  501    0  0.00000000000E+00 -0.00000000000E+00 -0.75374146527E+02  0.75374146527E+02  0.00000000000E+00 0. -1.
         25    2    1    2    0    0  0.46659297912E+02 -0.31889642840E+02  0.81949666532E+02  0.15987014585E+03  0.12509466930E+03 0.  0.
         23    2    1    2    0    0 -0.46659297912E+02  0.31889642840E+02  0.41158822110E+02  0.11398663585E+03  0.90027024348E+02 0.  0.
          5    1    3    3  502    0  0.66396723706E+02 -0.47024996442E+01  0.10099212798E+03  0.12102694219E+03  0.41800000000E+01 0. -1.
         -5    1    3    3    0  502 -0.19737425794E+02 -0.27187143196E+02 -0.19042461450E+02  0.38843203655E+02  0.41800000000E+01 0. -1.
        -11    1    4    4    0    0  0.10871893721E+02  0.28244503106E+02 -0.14762147346E+02  0.33673001397E+02  0.00000000000E+00 0. -1.
         11    1    4    4    0    0 -0.57531191632E+02  0.36451397334E+01  0.55920969456E+02  0.80313634454E+02  0.00000000000E+00 0.  1.
</event>
<event>
 8    1  0.6692409E-009  0.1329084E+03  0.7561462E-02  0.1223203E+00
          2   -1    0    0  501    0  0.00000000000E+00  0.00000000000E+00  0.55015957453E+03  0.55015957453E+03  0.00000000000E+00 0. -1.
         -2   -1    0    0    0  501 -0.00000000000E+00 -0.00000000000E+00 -0.38652380099E+02  0.38652380099E+02  0.00000000000E+00 0.  1.
         25    2    1    2    0    0  0.17693881967E+02  0.85111809929E+02  0.36664766554E+03  0.39703260750E+03  0.12508911673E+03 0.  0.
         23    2    1    2    0    0 -0.17693881967E+02 -0.85111809929E+02  0.14485952889E+03  0.19177934713E+03  0.90763104983E+02 0.  0.
          5    1    3    3  502    0  0.23365258400E+02  0.11713353937E+03  0.28455414831E+03  0.30863366159E+03  0.41800000000E+01 0.  1.
         -5    1    3    3    0  502 -0.56713764326E+01 -0.32021729440E+02  0.82093517231E+02  0.88398945912E+02  0.41800000000E+01 0.  1.
        -11    1    4    4    0    0  0.13652749429E+02  0.76150198604E+01 -0.15009507890E+01  0.15704742842E+02  0.00000000000E+00 0.  1.
         11    1    4    4    0    0 -0.31346631396E+02 -0.92726829789E+02  0.14636047968E+03  0.17607460429E+03  0.00000000000E+00 0. -1.
</event>
<event>
 8    1  0.6692409E-009  0.8200422E+02  0.7561462E-02  0.1323458E+00
         -1   -1    0    0    0  501 -0.00000000000E+00  0.00000000000E+00  0.44154968221E+02  0.44154968221E+02  0.00000000000E+00 0.  1.
          1   -1    0    0  501    0  0.00000000000E+00 -0.00000000000E+00 -0.37132983407E+03  0.37132983407E+03  0.00000000000E+00 0. -1.
         25    2    1    2    0    0 -0.25348958293E+02 -0.62107191268E+02 -0.20852394556E+03  0.25224918960E+03  0.12509014704E+03 0.  0.
         23    2    1    2    0    0  0.25348958293E+02  0.62107191268E+02 -0.11865092029E+03  0.16323561269E+03  0.89821776156E+02 0.  0.
          5    1    3    3  502    0  0.15803296852E+02 -0.37182440924E+02 -0.25582992484E+01  0.40697609261E+02  0.41800000000E+01 0.  1.
         -5    1    3    3    0  502 -0.41152255145E+02 -0.24924750344E+02 -0.20596564631E+03  0.21155158034E+03  0.41800000000E+01 0.  1.
        -11    1    4    4    0    0  0.16868945594E+02  0.53295789196E+01 -0.10191419836E+03  0.10343824034E+03  0.00000000000E+00 0. -1.
         11    1    4    4    0    0  0.84800126986E+01  0.56777612349E+02 -0.16736721927E+02  0.59797372352E+02  0.00000000000E+00 0.  1.
</event>
<event>
 8    1  0.6692409E-009  0.1151369E+03  0.7561462E-02  0.1251342E+00
         -2   -1    0    0    0  501 -0.00000000000E+00  0.00000000000E+00  0.33235479668E+02  0.33235479668E+02  0.00000000000E+00 0. -1.
          2   -1    0    0  501    0  0.00000000000E+00 -0.00000000000E+00 -0.49824269296E+03  0.49824269296E+03  0.00000000000E+00 0.  1.
         25    2    1    2    0    0 -0.68935709968E+02  0.12957021533E+02 -0.25468514886E+03  0.29228745425E+03  0.12508962525E+03 0.  0.
         23    2    1    2    0    0  0.68935709968E+02 -0.12957021533E+02 -0.21032206443E+03  0.23919071838E+03  0.89759748533E+02 0.  0.
          5    1    3    3  502    0 -0.31045166239E+02  0.52757689273E+02 -0.46652328472E+02  0.77078455331E+02  0.41800000000E+01 0.  1.
         -5    1    3    3    0  502 -0.37890543729E+02 -0.39800667740E+02 -0.20803282039E+03  0.21520899892E+03  0.41800000000E+01 0.  1.
        -11    1    4    4    0    0  0.31425596657E+02  0.38771966811E+02 -0.87042638058E+02  0.10033570838E+03  0.00000000000E+00 0.  1.
         11    1    4    4    0    0  0.37510113310E+02 -0.51728988344E+02 -0.12327942637E+03  0.13885501000E+03  0.00000000000E+00 0. -1.
</event>
<event>
 8    1  0.6692409E-009  0.6868271E+02  0.7561462E-02  0.1364631E+00
          1   -1    0    0  501    0  0.00000000000E+00  0.00000000000E+00  0.21093242824E+03  0.21093242824E+03  0.00000000000E+00 0. -1.
         -1   -1    0    0    0  501 -0.00000000000E+00 -0.00000000000E+00 -0.66176184394E+02  0.66176184394E+02  0.00000000000E+00 0.  1.
         25    2    1    2    0    0  0.14308716448E+02 -0.40011187921E+02  0.10420090442E+03  0.16825748726E+03  0.12508844476E+03 0.  0.
         23    2    1    2    0    0 -0.14308716448E+02  0.40011187921E+02  0.40555339429E+02  0.10885112538E+03  0.91641679460E+02 0.  0.
          5    1    3    3  502    0  0.36115211999E+02 -0.21443764008E+02 -0.15607605539E+02  0.45002369974E+02  0.41800000000E+01 0.  1.
         -5    1    3    3    0  502 -0.21806495552E+02 -0.18567423913E+02  0.11980850996E+03  0.12325511729E+03  0.41800000000E+01 0.  1.
        -11    1    4    4    0    0  0.94667823882E+01  0.41330013651E+02  0.63124620495E+02  0.76042801828E+02  0.00000000000E+00 0. -1.
         11    1    4    4    0    0 -0.23775498836E+02 -0.13188257297E+01 -0.22569281066E+02  0.32808323548E+02  0.00000000000E+00 0.  1.
</event>
<event>
 8    1  0.6692409E-009  0.2305502E+03  0.7561462E-02  0.1126253E+00
         -2   -1    0    0    0  501 -0.00000000000E+00  0.00000000000E+00  0.74824938581E+02  0.74824938581E+02  0.00000000000E+00 0.  1.
          2   -1    0    0  501    0  0.00000000000E+00 -0.00000000000E+00 -0.88140931977E+03  0.88140931977E+03  0.00000000000E+00 0. -1.
         25    2    1    2    0    0  0.17908327411E+03 -0.12440987488E+03 -0.55472320993E+03  0.60902755800E+03  0.12509232883E+03 0.  0.
         23    2    1    2    0    0 -0.17908327411E+03  0.12440987488E+03 -0.25186117126E+03  0.34720670035E+03  0.97825391110E+02 0.  0.
          5    1    3    3  502    0  0.97898024291E+01  0.65545278851E+01 -0.15572777245E+03  0.15622872200E+03  0.41800000000E+01 0. -1.
         -5    1    3    3    0  502  0.16929347169E+03 -0.13096440276E+03 -0.39899543748E+03  0.45279883599E+03  0.41800000000E+01 0. -1.
        -11    1    4    4    0    0 -0.12722904541E+03  0.36335510952E+02 -0.10833464123E+03  0.17100846132E+03  0.00000000000E+00 0.  1.
         11    1    4    4    0    0 -0.51854228701E+02  0.88074363928E+02 -0.14352653002E+03  0.17619823903E+03  0.00000000000E+00 0. -1.
</event>
<event>
 8    1  0.6692409E-009  0.1626531E+03  0.7561462E-02  0.1185734E+00
          1   -1    0    0  501    0  0.00000000000E+00  0.00000000000E+00  0.41070669436E+03  0.41070669436E+03  0.00000000000E+00 0. -1.
         -1   -1    0    0    0  501 -0.00000000000E+00 -0.00000000000E+00 -0.10236548051E+03  0.10236548051E+03  0.00000000000E+00 0.  1.
         25    2    1    2    0    0 -0.43557104310E+02 -0.14520544022E+03  0.53977345522E+02  0.20381946625E+03  0.12508788826E+03 0.  0.
         23    2    1    2    0    0  0.43557104310E+02  0.14520544022E+03  0.25436386832E+03  0.30925270862E+03  0.89187550000E+02 0.  0.
          5    1    3    3  502    0  0.14255016206E+02 -0.36792811226E+02 -0.34319143105E+02  0.52461342229E+02  0.41800000000E+01 0.  1.
         -5    1    3    3    0  502 -0.57812120516E+02 -0.10841262900E+03  0.88296488628E+02  0.15135812403E+03  0.41800000000E+01 0.  1.
        -11    1    4    4    0    0  0.20124791682E+02  0.13605775537E+03  0.24754928166E+03  0.28319139621E+03  0.00000000000E+00 0. -1.
         11    1    4    4    0    0  0.23432312628E+02  0.91476848484E+01  0.68145866647E+01  0.26061312411E+02  0.00000000000E+00 0.  1.
</event>
<event>
 8    1  0.6692409E-009  0.1452884E+03  0.7561462E-02  0.1206385E+00
         -2   -1    0    0    0  501 -0.00000000000E+00  0.00000000000E+00  0.29860401855E+02  0.29860401855E+02  0.00000000000E+00 0. -1.
          2   -1    0    0  501    0  0.00000000000E+00 -0.00000000000E+00 -0.18550109671E+04  0.18550109671E+04  0.00000000000E+00 0.  1.
         25    2    1    2    0    0 -0.15803761288E+02  0.10211148784E+03 -0.16723460815E+04  0.16801981313E+04  0.12509128430E+03 0.  0.
         23    2    1    2    0    0  0.15803761288E+02 -0.10211148784E+03 -0.15280448375E+03  0.20467323763E+03  0.88687141829E+02 0.  0.
          5    1    3    3  502    0  0.24634949727E+02  0.11607636402E+03 -0.11654834933E+04  0.11715160471E+04  0.41800000000E+01 0.  1.
         -5    1    3    3    0  502 -0.40438711015E+02 -0.13964876174E+02 -0.50686258818E+03  0.50868208423E+03  0.41800000000E+01 0.  1.
        -11    1    4    4    0    0  0.46872775423E+02 -0.53122256844E+02 -0.11615552734E+03  0.13605564222E+03  0.00000000000E+00 0. -1.
         11    1    4    4    0    0 -0.31069014136E+02 -0.48989231000E+02 -0.36648956406E+02  0.68617595404E+02  0.00000000000E+00 0.  1.
</event>
<event>
 8    1  0.6692409E-009  0.2274421E+03  0.7561462E-02  0.1128453E+00
         -1   -1    0    0    0  501 -0.00000000000E+00  0.00000000000E+00  0.52236116990E+02  0.52236116990E+02  0.00000000000E+00 0.  1.
          1   -1    0    0  501    0  0.00000000000E+00 -0.00000000000E+00 -0.10793448050E+04  0.10793448050E+04  0.00000000000E+00 0. -1.
         25    2    1    2    0    0  0.20745134659E+03  0.22751457744E+02 -0.60301355269E+03  0.65025261471E+03  0.12509767451E+03 0.  0.
         23    2    1    2    0    0 -0.20745134659E+03 -0.22751457744E+02 -0.42409513528E+03  0.48132830724E+03  0.90920655285E+02 0.  0.
          5    1    3    3  502    0  0.15658806252E+03  0.63920672861E+02 -0.34802602933E+03  0.38696933113E+03  0.41800000000E+01 0. -1.
         -5    1    3    3    0  502  0.50863284069E+02 -0.41169215117E+02 -0.25498752336E+03  0.26328328358E+03  0.41800000000E+01 0. -1.
        -11    1    4    4    0    0 -0.48677686543E+02  0.24471633543E+02 -0.58412846509E+02  0.79877648017E+02  0.00000000000E+00 0.  1.
         11    1    4    4    0    0 -0.15877366005E+03 -0.47223091287E+02 -0.36568228877E+03  0.40145065923E+03  0.00000000000E+00 0. -1.
</event>
<event>
 8    1  0.6692409E-009  0.1122016E+03  0.7561462E-02  0.1256546E+00
          2   -1    0    0  501    0  0.00000000000E+00  0.00000000000E+00  0.19670201936E+03  0.19670201936E+03  0.00000000000E+00 0. -1.
         -2   -1    0    0    0  501 -0.00000000000E+00 -0.00000000000E+00 -0.82687082553E+02  0.82687082553E+02  0.00000000000E+00 0.  1.
         25    2    1    2    0    0  0.57082207084E+00  0.45552731477E+02  0.11925678515E+02  0.13366444336E+03  0.12509430214E+03 0.  0.
         23    2    1    2    0    0 -0.57082207084E+00 -0.45552731477E+02  0.10208925829E+03  0.14572465855E+03  0.93477710011E+02 0.  0.
          5    1    3    3  502    0  0.49005151255E+02 -0.16161381258E+02 -0.85653331520E+01  0.52474111957E+02  0.41800000000E+01 0. -1.
         -5    1    3    3    0  502 -0.48434329184E+02  0.61714112735E+02  0.20491011667E+02  0.81190331403E+02  0.41800000000E+01 0. -1.
        -11    1    4    4    0    0  0.32547469585E+02  0.57061032272E+01  0.68526249068E+02  0.76077225250E+02  0.00000000000E+00 0. -1.
         11    1    4    4    0    0 -0.33118291656E+02 -0.51258834704E+02  0.33563009222E+02  0.69647433301E+02  0.00000000000E+00 0.  1.
</event>
<event>
 8    1  0.6692409E-009  0.1272615E+03  0.7561462E-02  0.1231577E+00
         -3   -1    0    0    0  501 -0.00000000000E+00  0.00000000000E+00  0.70136816746E+02  0.70136816746E+02  0.00000000000E+00 0.  1.
          3   -1    0    0  501    0  0.00000000000E+00 -0.00000000000E+00 -0.40342151374E+03  0.40342151374E+03  0.00000000000E+00 0. -1.
         25    2    1    2    0    0 -0.91569220419E+02 -0.43752218631E+02 -0.28441741115E+03  0.32686011022E+03  0.12508033069E+03 0.  0.
         23    2    1    2    0    0  0.91569220419E+02  0.43752218631E+02 -0.48867285849E+02  0.14669822027E+03  0.93984985185E+02 0.  0.
          5    1    3    3  502    0 -0.72055602098E+02 -0.57277901553E+02 -0.28809657954E+03  0.30247293985E+03  0.41800000000E+01 0. -1.
         -5    1    3    3    0  502 -0.19513618322E+02  0.13525682922E+02  0.36791683921E+01  0.24387170368E+02  0.41800000000E+01 0. -1.
        -11    1    4    4    0    0  0.34472825955E+02  0.68001282416E+02 -0.25034508864E+02  0.80245104359E+02  0.00000000000E+00 0.  1.
         11    1    4    4    0    0  0.57096394464E+02 -0.24249063785E+02 -0.23832776985E+02  0.66453115910E+02  0.00000000000E+00 0. -1.
</event>
<event>
 8    1  0.6692409E-009  0.1063082E+03  0.7561462E-02  0.1267563E+00
          1   -1    0    0  501    0  0.00000000000E+00  0.00000000000E+00  0.15302667979E+03  0.15302667979E+03  0.00000000000E+00 0. -1.
         -1   -1    0    0    0  501 -0.00000000000E+00 -0.00000000000E+00 -0.10221235947E+03  0.10221235947E+03  0.00000000000E+00 0.  1.
         25    2    1    2    0    0 -0.19450466684E+02 -0.33025067614E+02  0.79571705488E+02  0.15312776379E+03  0.12508988762E+03 0.  0.
         23    2    1    2    0    0  0.19450466684E+02  0.33025067614E+02 -0.28757385175E+02  0.10211127547E+03  0.90170669460E+02 0.  0.
          5    1    3    3  502    0  0.40344938446E+02  0.23427547995E+02  0.40791107136E+02  0.62112405240E+02  0.41800000000E+01 0. -1.
         -5    1    3    3    0  502 -0.59795405129E+02 -0.56452615609E+02  0.38780598351E+02  0.91015358551E+02  0.41800000000E+01 0. -1.
        -11    1    4    4    0    0 -0.14022519700E+02  0.45578161881E+02 -0.42436046899E+02  0.63834300933E+02  0.00000000000E+00 0.  1.
         11    1    4    4    0    0  0.33472986383E+02 -0.12553094267E+02  0.13678661724E+02  0.38276974537E+02  0.00000000000E+00 0. -1.
</event>
<event>
 8    1  0.6692409E-009  0.1040028E+03  0.7561462E-02  0.1272097E+00
          2   -1    0    0  501    0  0.00000000000E+00  0.00000000000E+00  0.47860551425E+03  0.47860551425E+03  0.00000000000E+00 0. -1.
         -2   -1    0    0    0  501 -0.00000000000E+00 -0.00000000000E+00 -0.25762146662E+02  0.25762146662E+02  0.00000000000E+00 0.  1.
         25    2    1    2    0    0 -0.22965851354E+02  0.57262992920E+01  0.23848473384E+03  0.27033904786E+03  0.12509201291E+03 0.  0.
         23    2    1    2    0    0  0.22965851354E+02 -0.57262992920E+01  0.21435863376E+03  0.23402861305E+03  0.90882050102E+02 0.  0.
          5    1    3    3  502    0  0.47343331527E+02 -0.20892582118E+02  0.10260483573E+03  0.11499180729E+03  0.41800000000E+01 0. -1.
         -5    1    3    3    0  502 -0.70309182881E+02  0.26618881410E+02  0.13587989810E+03  0.15534724057E+03  0.41800000000E+01 0. -1.
        -11    1    4    4    0    0  0.98143887557E+01 -0.41517755288E+02  0.52043244713E+02  0.67294468948E+02  0.00000000000E+00 0.  1.
         11    1    4    4    0    0  0.13151462598E+02  0.35791455996E+02  0.16231538904E+03  0.16673414411E+03  0.00000000000E+00 0. -1.
</event>
<event>
 8    1  0.6692409E-009  0.1487116E+03  0.7561462E-02  0.1202065E+00
         -1   -1    0    0    0  501 -0.00000000000E+00  0.00000000000E+00  0.97623315449E+02  0.97623315449E+02  0.00000000000E+00 0.  1.
          1   -1    0    0  501    0  0.00000000000E+00 -0.00000000000E+00 -0.35716092521E+03  0.35716092521E+03  0.00000000000E+00 0. -1.
         25    2    1    2    0    0  0.78135235708E+02 -0.12201224154E+03 -0.19112525690E+03  0.27049481189E+03  0.12508587966E+03 0.  0.
         23    2    1    2    0    0 -0.78135235708E+02  0.12201224154E+03 -0.68412352862E+02  0.18428942877E+03  0.91050762697E+02 0.  0.
          5    1    3    3  502    0  0.58872633751E+02 -0.65658694408E+02 -0.19141342035E+03  0.21079283918E+03  0.41800000000E+01 0.  1.
         -5    1    3    3    0  502  0.19262601958E+02 -0.56353547129E+02  0.28816345158E+00  0.59701972718E+02  0.41800000000E+01 0.  1.
        -11    1    4    4    0    0 -0.77490467691E+02  0.95808009729E+02 -0.14156709110E+02  0.12403370398E+03  0.00000000000E+00 0.  1.
         11    1    4    4    0    0 -0.64476801773E+00  0.26204231809E+02 -0.54255643751E+02  0.60255724785E+02  0.00000000000E+00 0. -1.
</event>
<event>
 8    1  0.6692409E-009  0.9553459E+02  0.7561462E-02  0.1289977E+00
         -1   -1    0    0    0  501 -0.00000000000E+00  0.00000000000E+00  0.23388017207E+03  0.23388017207E+03  0.00000000000E+00 0.  1.
          1   -1    0    0  501    0  0.00000000000E+00 -0.00000000000E+00 -0.66863356813E+02  0.66863356813E+02  0.00000000000E+00 0. -1.
         25    2    1    2    0    0 -0.55481616471E+02  0.13785892717E+02  0.15365693520E+03  0.20621843861E+03  0.12508928844E+03 0.  0.
         23    2    1    2    0    0  0.55481616471E+02 -0.13785892717E+02  0.13359880057E+02  0.94525090275E+02  0.74082694958E+02 0.  0.
          5    1    3    3  502    0  0.21589256007E+02  0.41974216775E+02  0.92005934586E+02  0.10349152259E+03  0.41800000000E+01 0. -1.
         -5    1    3    3    0  502 -0.77070872478E+02 -0.28188324058E+02  0.61651000613E+02  0.10272691602E+03  0.41800000000E+01 0. -1.
        -11    1    4    4    0    0  0.78799408265E+01 -0.11391357758E+02  0.38303277050E+02  0.40730793409E+02  0.00000000000E+00 0.  1.
         11    1    4    4    0    0  0.47601675644E+02 -0.23945349586E+01 -0.24943396993E+02  0.53794296866E+02  0.00000000000E+00 0. -1.
</event>
<event>
 8    1  0.6692409E-009  0.1088170E+03  0.7561462E-02  0.1262776E+00
         -2   -1    0    0    0  501 -0.00000000000E+00  0.00000000000E+00  0.33139194626E+02  0.33139194626E+02  0.00000000000E+00 0.  1.
          2   -1    0    0  501    0  0.00000000000E+00 -0.00000000000E+00 -0.45090027370E+03  0.45090027370E+03  0.00000000000E+00 0. -1.
         25    2    1    2    0    0  0.36664327929E+02  0.40293237678E+02 -0.27258873023E+03  0.30483104775E+03  0.12509809701E+03 0.  0.
         23    2    1    2    0    0 -0.36664327929E+02 -0.40293237678E+02 -0.14517234885E+03  0.17920842058E+03  0.89848924274E+02 0.  0.
          5    1    3    3  502    0 -0.32728395562E+02  0.31563400288E+02 -0.36175717686E+02  0.58254193530E+02  0.41800000000E+01 0.  1.
         -5    1    3    3    0  502  0.69392723491E+02  0.87298373899E+01 -0.23641301255E+03  0.24657685422E+03  0.41800000000E+01 0.  1.
        -11    1    4    4    0    0 -0.46201609274E+01 -0.62660615378E+02 -0.67237518843E+02  0.92024901775E+02  0.00000000000E+00 0. -1.
         11    1    4    4    0    0 -0.32044167002E+02  0.22367377701E+02 -0.77934830003E+02  0.87183518807E+02  0.00000000000E+00 0.  1.
</event>
<event>
 8    1  0.6692409E-009  0.2375721E+03  0.7561462E-02  0.1121421E+00
          2   -1    0    0  501    0  0.00000000000E+00  0.00000000000E+00  0.20096862786E+03  0.20096862786E+03  0.00000000000E+00 0. -1.
         -2   -1    0    0    0  501 -0.00000000000E+00 -0.00000000000E+00 -0.33976191194E+03  0.33976191194E+03  0.00000000000E+00 0.  1.
         25    2    1    2    0    0  0.22146860856E+03  0.85071415753E+02 -0.84379750010E+02  0.28116436388E+03  0.12509183406E+03 0.  0.
         23    2    1    2    0    0 -0.22146860856E+03 -0.85071415753E+02 -0.54413534069E+02  0.25956617591E+03  0.90156955540E+02 0.  0.
          5    1    3    3  502    0  0.17305895439E+03  0.69951824965E+02 -0.48796429762E+01  0.18677243593E+03  0.41800000000E+01 0. -1.
         -5    1    3    3    0  502  0.48409654177E+02  0.15119590788E+02 -0.79500107034E+02  0.94391927947E+02  0.41800000000E+01 0. -1.
        -11    1    4    4    0    0 -0.70061300151E+02 -0.20991183953E+02  0.24588140188E+02  0.77160820501E+02  0.00000000000E+00 0. -1.
         11    1    4    4    0    0 -0.15140730841E+03 -0.64080231800E+02 -0.79001674257E+02  0.18240535541E+03  0.00000000000E+00 0.  1.
</event>
<event>
 8    1  0.6692409E-009  0.9699171E+02  0.7561462E-02  0.1286752E+00
         -2   -1    0    0    0  501 -0.00000000000E+00  0.00000000000E+00  0.68187018603E+02  0.68187018603E+02  0.00000000000E+00 0.  1.
          2   -1    0    0  501    0  0.00000000000E+00 -0.00000000000E+00 -0.25840105327E+03  0.25840105327E+03  0.00000000000E+00 0. -1.
         25    2    1    2    0    0 -0.33781386428E+02  0.13408609763E+02 -0.21431665822E+02  0.13201463576E+03  0.12509026689E+03 0.  0.
         23    2    1    2    0    0  0.33781386428E+02 -0.13408609763E+02 -0.16878236884E+03  0.19457343611E+03  0.89723804662E+02 0.  0.
          5    1    3    3  502    0  0.17737909998E+02 -0.26354264734E+02 -0.51143538375E+02  0.60351591845E+02  0.41800000000E+01 0. -1.
         -5    1    3    3    0  502 -0.51519296427E+02  0.39762874497E+02  0.29711872553E+02  0.71663043915E+02  0.41800000000E+01 0. -1.
        -11    1    4    4    0    0  0.46976996726E+02  0.27025234361E+02 -0.98405029577E+02  0.11234211748E+03  0.00000000000E+00 0. -1.
         11    1    4    4    0    0 -0.13195610298E+02 -0.40433844124E+02 -0.70377339265E+02  0.82231318631E+02  0.00000000000E+00 0.  1.
</event>
<event>
 8    1  0.6692409E-009  0.7643354E+02  0.7561462E-02  0.1339488E+00
          3   -1    0    0  501    0  0.00000000000E+00  0.00000000000E+00  0.43352515702E+02  0.43352515702E+02  0.00000000000E+00 0. -1.
         -3   -1    0    0    0  501 -0.00000000000E+00 -0.00000000000E+00 -0.34629062915E+03  0.34629062915E+03  0.00000000000E+00 0.  1.
         25    2    1    2    0    0  0.56353180048E+02  0.19949533682E+00 -0.16126584415E+03  0.21172469180E+03  0.12507978226E+03 0.  0.
         23    2    1    2    0    0 -0.56353180048E+02 -0.19949533682E+00 -0.14167226930E+03  0.17791845305E+03  0.91696364961E+02 0.  0.
          5    1    3    3  502    0  0.59172348826E+02  0.11792209265E+02 -0.17956874894E+03  0.18948042395E+03  0.41800000000E+01 0. -1.
         -5    1    3    3    0  502 -0.28191687781E+01 -0.11592713928E+02  0.18302904787E+02  0.22244267856E+02  0.41800000000E+01 0. -1.
        -11    1    4    4    0    0 -0.23452396876E+02 -0.28104149192E+02 -0.12728209872E+03  0.13244089541E+03  0.00000000000E+00 0.  1.
         11    1    4    4    0    0 -0.32900783172E+02  0.27904653855E+02 -0.14390170582E+02  0.45477557646E+02  0.00000000000E+00 0. -1.
</event>
<event>
 8    1  0.6692409E-009  0.6675594E+02  0.7561462E-02  0.1371485E+00
         -2   -1    0    0    0  501 -0.00000000000E+00  0.00000000000E+00  0.56618864203E+02  0.56618864203E+02  0.00000000000E+00 0.  1.
          2   -1    0    0  501    0  0.00000000000E+00 -0.00000000000E+00 -0.29252440998E+03  0.29252440998E+03  0.00000000000E+00 0. -1.
         25    2    1    2    0    0 -0.43471638381E+02  0.36426671847E+02 -0.71723344146E+02  0.15495742359E+03  0.12510347423E+03 0.  0.
         23    2    1    2    0    0  0.43471638381E+02 -0.36426671847E+02 -0.16418220163E+03  0.19418585059E+03  0.86808199334E+02 0.  0.
          5    1    3    3  502    0  0.91051237189E+01  0.38642569729E+01 -0.89761440872E+02  0.90401462528E+02  0.41800000000E+01 0. -1.
         -5    1    3    3    0  502 -0.52576762100E+02  0.32562414875E+02  0.18038096726E+02  0.64555961064E+02  0.41800000000E+01 0. -1.
        -11    1    4    4    0    0  0.28157563705E+02 -0.93277931146E+01 -0.27605644927E+01  0.29790549416E+02  0.00000000000E+00 0.  1.
         11    1    4    4    0    0  0.15314074677E+02 -0.27098878733E+02 -0.16142163714E+03  0.16439530118E+03  0.00000000000E+00 0. -1.
</event>
<event>
 8    1  0.6692409E-009  0.1323580E+03  0.7561462E-02  0.1223998E+00
          1   -1    0    0  501    0  0.00000000000E+00  0.00000000000E+00  0.15212485342E+03  0.15212485342E+03  0.00000000000E+00 0. -1.
         -1   -1    0    0    0  501 -0.00000000000E+00 -0.00000000000E+00 -0.15854569700E+03  0.15854569700E+03  0.00000000000E+00 0.  1.
         25    2    1    2    0    0  0.10392898707E+03 -0.30500123963E+02  0.16540783949E+02  0.16629058145E+03  0.12508983984E+03 0.  0.
         23    2    1    2    0    0 -0.10392898707E+03  0.30500123963E+02 -0.22961627524E+02  0.14437996897E+03  0.92665242606E+02 0.  0.
          5    1    3    3  502    0 -0.15890956895E+02 -0.13790072432E+02  0.37726715860E+02  0.43398918170E+02  0.41800000000E+01 0.  1.
         -5    1    3    3    0  502  0.11981994396E+03 -0.16710051532E+02 -0.21185931911E+02  0.12289166328E+03  0.41800000000E+01 0.  1.
        -11    1    4    4    0    0 -0.10981971100E+03  0.22210248292E+02 -0.44503704617E+02  0.12055805149E+03  0.00000000000E+00 0.  1.
         11    1    4    4    0    0  0.58907239354E+01  0.82898756715E+01  0.21542077093E+02  0.23821917484E+02  0.00000000000E+00 0. -1.
</event>
<event>
 8    1  0.6692409E-009  0.1498979E+03  0.7561462E-02  0.1200599E+00
          2   -1    0    0  501    0  0.00000000000E+00  0.00000000000E+00  0.40050928287E+03  0.40050928287E+03  0.00000000000E+00 0. -1.
         -2   -1    0    0    0  501 -0.00000000000E+00 -0.00000000000E+00 -0.94541892582E+02  0.94541892582E+02  0.00000000000E+00 0.  1.
         25    2    1    2    0    0  0.31736611583E+02  0.98527178805E+02  0.31786009464E+03  0.35692792527E+03  0.12509071349E+03 0.  0.
         23    2    1    2    0    0 -0.31736611583E+02 -0.98527178805E+02 -0.11892704346E+02  0.13812325018E+03  0.90674022438E+02 0.  0.
          5    1    3    3  502    0 -0.37468987875E+02  0.83015040959E+02  0.17114870172E+03  0.19391950025E+03  0.41800000000E+01 0. -1.
         -5    1    3    3    0  502  0.69205599458E+02  0.15512137847E+02  0.14671139291E+03  0.16300842502E+03  0.41800000000E+01 0. -1.
        -11    1    4    4    0    0 -0.62890163531E+02 -0.52118640826E+02 -0.55195416243E+01  0.81865687136E+02  0.00000000000E+00 0. -1.
         11    1    4    4    0    0  0.31153551948E+02 -0.46408537979E+02 -0.63731627213E+01  0.56257563042E+02  0.00000000000E+00 0.  1.
</event>
<event>
 8    1  0.6692409E-009  0.1525690E+03  0.7561462E-02  0.1197351E+00
         -2   -1    0    0    0  501 -0.00000000000E+00  0.00000000000E+00  0.21153766643E+03  0.21153766643E+03  0.00000000000E+00 0.  1.
          2   -1    0    0  501    0  0.00000000000E+00 -0.00000000000E+00 -0.14946596932E+03  0.14946596932E+03  0.00000000000E+00 0. -1.
         25    2    1    2    0    0 -0.13394567801E+03 -0.12122482931E+02 -0.27936252895E+02  0.18578346340E+03  0.12508661717E+03 0.  0.
         23    2    1    2    0    0  0.13394567801E+03  0.12122482931E+02  0.90007950002E+02  0.17522017236E+03  0.67173495428E+02 0.  0.
          5    1    3    3  502    0 -0.36990810504E+02  0.44024928160E+02 -0.43994169540E+02  0.72522229107E+02  0.41800000000E+01 0. -1.
         -5    1    3    3    0  502 -0.96954867507E+02 -0.56147411091E+02  0.16057916645E+02  0.11326123429E+03  0.41800000000E+01 0. -1.
        -11    1    4    4    0    0  0.50042579135E+02 -0.29122231612E+01  0.72595373469E+02  0.88220343568E+02  0.00000000000E+00 0.  1.
         11    1    4    4    0    0  0.83903098875E+02  0.15034706093E+02  0.17412576533E+02  0.86999828791E+02  0.00000000000E+00 0. -1.
</event>
<event>
 8    1  0.6692409E-009  0.1695801E+03  0.7561462E-02  0.1178286E+00
         -2   -1    0    0    0  501 -0.00000000000E+00  0.00000000000E+00  0.26631381956E+02  0.26631381956E+02  0.00000000000E+00 0.  1.
          2   -1    0    0  501    0  0.00000000000E+00 -0.00000000000E+00 -0.11156785307E+04  0.11156785307E+04  0.00000000000E+00 0. -1.
         25    2    1    2    0    0  0.57861413589E+02  0.12059178961E+03 -0.55145673935E+03  0.58106968104E+03  0.12508843251E+03 0.  0.
         23    2    1    2    0    0 -0.57861413589E+02 -0.12059178961E+03 -0.53759040940E+03  0.56124023162E+03  0.89982367211E+02 0.  0.
          5    1    3    3  502    0  0.63662528255E+02  0.14378630221E+03 -0.44835589359E+03  0.47515039506E+03  0.41800000000E+01 0.  1.
         -5    1    3    3    0  502 -0.58011146655E+01 -0.23194512608E+02 -0.10310084576E+03  0.10591928598E+03  0.41800000000E+01 0.  1.
        -11    1    4    4    0    0  0.18816442106E+02 -0.49750759198E+02 -0.12924955588E+03  0.13976639163E+03  0.00000000000E+00 0.  1.
         11    1    4    4    0    0 -0.76677855695E+02 -0.70841030408E+02 -0.40834085352E+03  0.42147383999E+03  0.00000000000E+00 0. -1.
</event>
<event>
 8    1  0.6692409E-009  0.1036676E+03  0.7561462E-02  0.1272767E+00
         -1   -1    0    0    0  501 -0.00000000000E+00  0.00000000000E+00  0.42854235638E+02  0.42854235638E+02  0.00000000000E+00 0.  1.
          1   -1    0    0  501    0  0.00000000000E+00 -0.00000000000E+00 -0.37861555944E+03  0.37861555944E+03  0.00000000000E+00 0. -1.
         25    2    1    2    0    0  0.96359483360E+01 -0.68602039066E+02 -0.16445651220E+03  0.21792859737E+03  0.12509131818E+03 0.  0.
         23    2    1    2    0    0 -0.96359483360E+01  0.68602039066E+02 -0.17130481160E+03  0.20354119770E+03  0.85349806207E+02 0.  0.
          5    1    3    3  502    0  0.20507290928E+02  0.78023910625E+01 -0.13237724629E+03  0.13424840417E+03  0.41800000000E+01 0.  1.
         -5    1    3    3    0  502 -0.10871342592E+02 -0.76404430129E+02 -0.32079265910E+02  0.83680193203E+02  0.41800000000E+01 0.  1.
        -11    1    4    4    0    0 -0.40176323200E+02  0.65730915836E+02 -0.13947524562E+03  0.15933623061E+03  0.00000000000E+00 0. -1.
         11    1    4    4    0    0  0.30540374864E+02  0.28711232306E+01 -0.31829565979E+02  0.44204967095E+02  0.00000000000E+00 0.  1.
</event>
<event>
 8    1  0.6692409E-009  0.8951302E+02  0.7561462E-02  0.1304035E+00
         -1   -1    0    0    0  501 -0.00000000000E+00  0.00000000000E+00  0.53907118434E+03  0.53907118434E+03  0.00000000000E+00 0.  1.
          1   -1    0    0  501    0  0.00000000000E+00 -0.00000000000E+00 -0.34011009323E+02  0.34011009323E+02  0.00000000000E+00 0. -1.
         25    2    1    2    0    0  0.28175077969E+02 -0.35840497525E+01  0.43881855934E+03  0.45718266243E+03  0.12509028091E+03 0.  0.
         23    2    1    2    0    0 -0.28175077969E+02  0.35840497525E+01  0.66241615677E+02  0.11589953123E+03  0.90763810301E+02 0.  0.
          5    1    3    3  502    0  0.49202256135E+02 -0.23486975106E+02  0.41730062028E+03  0.42086788912E+03  0.41800000000E+01 0. -1.
         -5    1    3    3    0  502 -0.21027178165E+02  0.19902925354E+02  0.21517939059E+02  0.36314773311E+02  0.41800000000E+01 0. -1.
        -11    1    4    4    0    0  0.33331366962E+02  0.41088377536E+01  0.24259778754E+02  0.41429451317E+02  0.00000000000E+00 0. -1.
         11    1    4    4    0    0 -0.61506444932E+02 -0.52478800111E+00  0.41981836923E+02  0.74470079911E+02  0.00000000000E+00 0.  1.
</event>
<event>
 8    1  0.6692409E-009  0.1315918E+03  0.7561462E-02  0.1225113E+00
          2   -1    0    0  501    0  0.00000000000E+00  0.00000000000E+00  0.10550499442E+04  0.10550499442E+04  0.00000000000E+00 0. -1.
         -2   -1    0    0    0  501 -0.00000000000E+00 -0.00000000000E+00 -0.22820947537E+02  0.22820947537E+02  0.00000000000E+00 0.  1.
         25    2    1    2    0    0 -0.22263264271E+02 -0.99929195986E+02  0.69278946033E+03  0.71139816586E+03  0.12509443193E+03 0.  0.
         23    2    1    2    0    0  0.22263264271E+02  0.99929195986E+02  0.33943953637E+03  0.36647272592E+03  0.92744610848E+02 0.  0.
          5    1    3    3  502    0  0.39452078312E+02 -0.89682656139E+02  0.45798653846E+03  0.46836800393E+03  0.41800000000E+01 0.  1.
         -5    1    3    3    0  502 -0.61715342583E+02 -0.10246539847E+02  0.23480292187E+03  0.24303016193E+03  0.41800000000E+01 0.  1.
        -11    1    4    4    0    0  0.20713994418E+01  0.13743267916E+02 -0.17307688446E+01  0.14005844118E+02  0.00000000000E+00 0.  1.
         11    1    4    4    0    0  0.20191864829E+02  0.86185928069E+02  0.34117030522E+03  0.35246688180E+03  0.00000000000E+00 0. -1.
</event>
<event>
 8    1  0.6692409E-009  0.1132534E+03  0.7561462E-02  0.1254661E+00
         -2   -1    0    0    0  501 -0.00000000000E+00  0.00000000000E+00  0.81138593608E+02  0.81138593608E+02  0.00000000000E+00 0.  1.
          2   -1    0    0  501    0  0.00000000000E+00 -0.00000000000E+00 -0.22077896306E+03  0.22077896306E+03  0.00000000000E+00 0. -1.
         25    2    1    2    0    0 -0.34226541145E+02  0.48956635735E+01  0.20842531340E+01  0.12980068917E+03  0.12509376946E+03 0.  0.
         23    2    1    2    0    0  0.34226541145E+02 -0.48956635735E+01 -0.14172462258E+03  0.17211686749E+03  0.91339606896E+02 0.  0.
          5    1    3    3  502    0 -0.40763115688E+02  0.60328068344E+02  0.86685904599E+01  0.73441979080E+02  0.41800000000E+01 0.  1.
         -5    1    3    3    0  502  0.65365745433E+01 -0.55432404770E+02 -0.65843373259E+01  0.56358710094E+02  0.41800000000E+01 0.  1.
        -11    1    4    4    0    0  0.13113740764E+02  0.43164331127E+02 -0.62526396010E+02  0.77101750152E+02  0.00000000000E+00 0.  1.
         11    1    4    4    0    0  0.21112800380E+02 -0.48059994701E+02 -0.79198226574E+02  0.95015117340E+02  0.00000000000E+00 0. -1.
</event>
<event>
 8    1  0.6692409E-009  0.9914321E+02  0.7561462E-02  0.1282108E+00
          1   -1    0    0  501    0  0.00000000000E+00  0.00000000000E+00  0.44433992150E+02  0.44433992150E+02  0.00000000000E+00 0. -1.
         -1   -1    0    0    0  501 -0.00000000000E+00 -0.00000000000E+00 -0.44834187116E+03  0.44834187116E+03  0.00000000000E+00 0.  1.
         25    2    1    2    0    0  0.58472016949E+02 -0.41648376062E+02 -0.31516792470E+03  0.34659877660E+03  0.12508527966E+03 0.  0.
         23    2    1    2    0    0 -0.58472016949E+02  0.41648376062E+02 -0.88739954310E+02  0.14617708671E+03  0.91320300006E+02 0.  0.
          5    1    3    3  502    0  0.59713423118E+02 -0.62186172225E+02 -0.10746276585E+03  0.13783516010E+03  0.41800000000E+01 0.  1.
         -5    1    3    3    0  502 -0.12414061686E+01  0.20537796163E+02 -0.20770515885E+03  0.20876361650E+03  0.41800000000E+01 0.  1.
        -11    1    4    4    0    0 -0.57424045188E+02  0.53853604462E+02 -0.10152400116E+03  0.12847122048E+03  0.00000000000E+00 0.  1.
         11    1    4    4    0    0 -0.10479717614E+01 -0.12205228400E+02  0.12784046851E+02  0.17705866231E+02  0.00000000000E+00 0. -1.
</event>
<event>
 8    1  0.6692409E-009  0.3480109E+03  0.7561462E-02  0.1063434E+00
         -2   -1    0    0    0  501 -0.00000000000E+00  0.00000000000E+00  0.17182580635E+03  0.17182580635E+03  0.00000000000E+00 0. -1.
          2   -1    0    0  501    0  0.00000000000E+00 -0.00000000000E+00 -0.76383079529E+03  0.76383079529E+03  0.00000000000E+00 0.  1.
         25    2    1    2    0    0 -0.33952370606E+03 -0.14362241464E+02 -0.37369344787E+03  0.52036228196E+03  0.12508992984E+03 0.  0.
         23    2    1    2    0    0  0.33952370606E+03  0.14362241464E+02 -0.21831154107E+03  0.41529431967E+03  0.96575473231E+02 0.  0.
          5    1    3    3  502    0 -0.28851798494E+03  0.18611080452E+02 -0.35245449680E+03  0.45588446417E+03  0.41800000000E+01 0. -1.
         -5    1    3    3    0  502 -0.51005721120E+02 -0.32973321915E+02 -0.21238951067E+02  0.64477817795E+02  0.41800000000E+01 0. -1.
        -11    1    4    4    0    0  0.22943605943E+03 -0.20928973656E+02 -0.10420275242E+03  0.25285794612E+03  0.00000000000E+00 0.  1.
         11    1    4    4    0    0  0.11008764663E+03  0.35291215119E+02 -0.11410878864E+03  0.16243637355E+03  0.00000000000E+00 0. -1.
</event>
<event>
 8    1  0.6692409E-009  0.1934159E+03  0.7561462E-02  0.1155416E+00
         -2   -1    0    0    0  501 -0.00000000000E+00  0.00000000000E+00  0.15820403539E+02  0.15820403539E+02  0.00000000000E+00 0.  1.
          2   -1    0    0  501    0  0.00000000000E+00 -0.00000000000E+00 -0.36763181037E+04  0.36763181037E+04  0.00000000000E+00 0. -1.
         25    2    1    2    0    0 -0.11522176205E+03  0.12125520480E+03 -0.28689256192E+04  0.28765187133E+04  0.12508725026E+03 0.  0.
         23    2    1    2    0    0  0.11522176205E+03 -0.12125520480E+03 -0.79157208093E+03  0.81561979394E+03  0.10329767570E+03 0.  0.
          5    1    3    3  502    0 -0.12706647208E+03  0.68791630087E+02 -0.24290618383E+04  0.24333592138E+04  0.41800000000E+01 0. -1.
         -5    1    3    3    0  502  0.11844710025E+02  0.52463574717E+02 -0.43986378084E+03  0.44315949942E+03  0.41800000000E+01 0. -1.
        -11    1    4    4    0    0  0.28418037193E+02 -0.92691016820E+02 -0.52345713493E+03  0.53235944769E+03  0.00000000000E+00 0. -1.
         11    1    4    4    0    0  0.86803724860E+02 -0.28564187984E+02 -0.26811494600E+03  0.28326034624E+03  0.00000000000E+00 0.  1.
</event>
<event>
 8    1  0.6692409E-009  0.8967324E+02  0.7561462E-02  0.1303645E+00
         -3   -1    0    0    0  501 -0.00000000000E+00  0.00000000000E+00  0.13785219076E+03  0.13785219076E+03  0.00000000000E+00 0.  1.
          3   -1    0    0  501    0  0.00000000000E+00 -0.00000000000E+00 -0.13532070486E+03  0.13532070486E+03  0.00000000000E+00 0. -1.
         25    2    1    2    0    0 -0.14599234022E+02  0.23061178458E+02  0.80678419575E+02  0.15132980727E+03  0.12508696014E+03 0.  0.
         23    2    1    2    0    0  0.14599234022E+02 -0.23061178458E+02 -0.78146933677E+02  0.12184308836E+03  0.89408273400E+02 0.  0.
          5    1    3    3  502    0 -0.97932610460E+01  0.66397355839E+02  0.83767025847E+02  0.10741928990E+03  0.41800000000E+01 0. -1.
         -5    1    3    3    0  502 -0.48059729760E+01 -0.43336177380E+02 -0.30886062726E+01  0.43910517361E+02  0.41800000000E+01 0. -1.
        -11    1    4    4    0    0  0.20246352664E+02 -0.43025630690E+02 -0.74086964891E+01  0.48124925726E+02  0.00000000000E+00 0.  1.
         11    1    4    4    0    0 -0.56471186419E+01  0.19964452232E+02 -0.70738237188E+02  0.73718162635E+02  0.00000000000E+00 0. -1.
</event>
<event>
 8    1  0.6692409E-009  0.1208715E+03  0.7561462E-02  0.1241666E+00
          1   -1    0    0  501    0  0.00000000000E+00  0.00000000000E+00  0.22246945099E+04  0.22246945099E+04  0.00000000000E+00 0. -1.
         -1   -1    0    0    0  501 -0.00000000000E+00 -0.00000000000E+00 -0.25318135971E+02  0.25318135971E+02  0.00000000000E+00 0.  1.
         25    2    1    2    0    0  0.70415479012E+02  0.75689829122E+02  0.20055345016E+04  0.20120893511E+04  0.12509048717E+03 0.  0.
         23    2    1    2    0    0 -0.70415479012E+02 -0.75689829122E+02  0.19384187239E+03  0.23792329479E+03  0.91353887669E+02 0.  0.
          5    1    3    3  502    0  0.54369094937E+02  0.63764652136E+02  0.19641299182E+04  0.19659210914E+04  0.41800000000E+01 0.  1.
         -5    1    3    3    0  502  0.16046384076E+02  0.11925176986E+02  0.41404583335E+02  0.46168259759E+02  0.41800000000E+01 0.  1.
        -11    1    4    4    0    0 -0.43457487695E+02  0.12483378996E+02  0.73948844364E+02  0.86676522604E+02  0.00000000000E+00 0.  1.
         11    1    4    4    0    0 -0.26957991317E+02 -0.88173208118E+02  0.11989302803E+03  0.15124677218E+03  0.00000000000E+00 0. -1.
</event>
<event>
 8    1  0.6692409E-009  0.8140646E+02  0.7561462E-02  0.1325107E+00
          1   -1    0    0  501    0  0.00000000000E+00  0.00000000000E+00  0.16706989654E+03  0.16706989654E+03  0.00000000000E+00 0. -1.
         -1   -1    0    0    0  501 -0.00000000000E+00 -0.00000000000E+00 -0.93199248154E+02  0.93199248154E+02  0.00000000000E+00 0.  1.
         25    2    1    2    0    0 -0.42327603855E+02 -0.27255151703E+02  0.49227307253E+01  0.13492613693E+03  0.12508541005E+03 0.  0.
         23    2    1    2    0    0  0.42327603855E+02  0.27255151703E+02  0.68947917660E+02  0.12534300776E+03  0.91774641941E+02 0.  0.
          5    1    3    3  502    0  0.26137826404E+01  0.12589473841E+02  0.54986491269E+02  0.56624317508E+02  0.41800000000E+01 0.  1.
         -5    1    3    3    0  502 -0.44941386495E+02 -0.39844625544E+02 -0.50063760543E+02  0.78301819420E+02  0.41800000000E+01 0.  1.
        -11    1    4    4    0    0  0.41203867265E+02 -0.17176348409E+02  0.67434566608E+02  0.80871542559E+02  0.00000000000E+00 0.  1.
         11    1    4    4    0    0  0.11237365895E+01  0.44431500113E+02  0.15133510528E+01  0.44471465206E+02  0.00000000000E+00 0. -1.
</event>
<event>
 8    1  0.6692409E-009  0.1035774E+03  0.7561462E-02  0.1272948E+00
          3   -1    0    0  501    0  0.00000000000E+00  0.00000000000E+00  0.60614478492E+03  0.60614478492E+03  0.00000000000E+00 0.  1.
         -3   -1    0    0    0  501 -0.00000000000E+00 -0.00000000000E+00 -0.39852778693E+02  0.39852778693E+02  0.00000000000E+00 0. -1.
         25    2    1    2    0    0 -0.41757600962E+00 -0.82496020396E+02  0.45917342126E+03  0.48300507583E+03  0.12509158538E+03 0.  0.
         23    2    1    2    0    0  0.41757600962E+00  0.82496020396E+02  0.10711858497E+03  0.16299248779E+03  0.91029621985E+02 0.  0.
          5    1    3    3  502    0  0.44566458343E+02 -0.27842283445E+02  0.71119606208E+02  0.88525887422E+02  0.41800000000E+01 0.  1.
         -5    1    3    3    0  502 -0.44984034353E+02 -0.54653736951E+02  0.38805381505E+03  0.39447918841E+03  0.41800000000E+01 0.  1.
        -11    1    4    4    0    0 -0.59437045493E+01  0.54422067989E+02  0.11966357225E+03  0.13159201964E+03  0.00000000000E+00 0.  1.
         11    1    4    4    0    0  0.63612805590E+01  0.28073952407E+02 -0.12544987284E+02  0.31400468150E+02  0.00000000000E+00 0. -1.
</event>
<event>
 8    1  0.6692409E-009  0.1762148E+03  0.7561462E-02  0.1171517E+00
          1   -1    0    0  501    0  0.00000000000E+00  0.00000000000E+00  0.19816841602E+03  0.19816841602E+03  0.00000000000E+00 0. -1.
         -1   -1    0    0    0  501 -0.00000000000E+00 -0.00000000000E+00 -0.21124262940E+03  0.21124262940E+03  0.00000000000E+00 0.  1.
         25    2    1    2    0    0  0.95040430228E+02  0.14007559231E+03 -0.44403180920E+02  0.21511220101E+03  0.12509101330E+03 0.  0.
         23    2    1    2    0    0 -0.95040430228E+02 -0.14007559231E+03  0.31328967536E+02  0.19429884442E+03  0.90092628975E+02 0.  0.
          5    1    3    3  502    0  0.72260319690E+02  0.67785113917E+02  0.35095060013E+02  0.10519273315E+03  0.41800000000E+01 0. -1.
         -5    1    3    3    0  502  0.22780110538E+02  0.72290478393E+02 -0.79498240933E+02  0.10991946786E+03  0.41800000000E+01 0. -1.
        -11    1    4    4    0    0 -0.38367839378E+02 -0.17215986734E+02  0.40896843037E+02  0.58660319367E+02  0.00000000000E+00 0. -1.
         11    1    4    4    0    0 -0.56672590849E+02 -0.12285960558E+03 -0.95678755019E+01  0.13563852505E+03  0.00000000000E+00 0.  1.
</event>
<event>
 8    1  0.6692409E-009  0.7742293E+02  0.7561462E-02  0.1336528E+00
          1   -1    0    0  501    0  0.00000000000E+00  0.00000000000E+00  0.12113699227E+03  0.12113699227E+03  0.00000000000E+00 0. -1.
         -1   -1    0    0    0  501 -0.00000000000E+00 -0.00000000000E+00 -0.12178610258E+03  0.12178610258E+03  0.00000000000E+00 0.  1.
         25    2    1    2    0    0 -0.40520349822E+01  0.33517913987E+02  0.40459136387E+02  0.13573625440E+03  0.12509004555E+03 0.  0.
         23    2    1    2    0    0  0.40520349822E+01 -0.33517913987E+02 -0.41108246693E+02  0.10718684045E+03  0.93055151787E+02 0.  0.
          5    1    3    3  502    0  0.18129575735E+02  0.26774804381E+02  0.81853387669E+02  0.88108008369E+02  0.41800000000E+01 0. -1.
         -5    1    3    3    0  502 -0.22181610717E+02  0.67431096054E+01 -0.41394251281E+02  0.47628246034E+02  0.41800000000E+01 0. -1.
        -11    1    4    4    0    0 -0.41451330357E+02  0.11680537413E+01 -0.21456548671E+02  0.46690048391E+02  0.00000000000E+00 0. -1.
         11    1    4    4    0    0  0.45503365339E+02 -0.34685967728E+02 -0.19651698022E+02  0.60496792060E+02  0.00000000000E+00 0.  1.
</event>
<event>
 8    1  0.6692409E-009  0.8868542E+02  0.7561462E-02  0.1306067E+00
          2   -1    0    0  501    0  0.00000000000E+00  0.00000000000E+00  0.16252598844E+04  0.16252598844E+04  0.00000000000E+00 0. -1.
         -2   -1    0    0    0  501 -0.00000000000E+00 -0.00000000000E+00 -0.11606827665E+02  0.11606827665E+02  0.00000000000E+00 0.  1.
         25    2    1    2    0    0  0.27615960872E+02  0.45466175947E+02  0.12669194313E+04  0.12741911045E+04  0.12509320944E+03 0.  0.
         23    2    1    2    0    0 -0.27615960872E+02 -0.45466175947E+02  0.34673362541E+03  0.36267560750E+03  0.92084606917E+02 0.  0.
          5    1    3    3  502    0 -0.95745805876E+01  0.28407225472E+02  0.66464531689E+02  0.73031838435E+02  0.41800000000E+01 0. -1.
         -5    1    3    3    0  502  0.37190541459E+02  0.17058950475E+02  0.12004548996E+04  0.12011592661E+04  0.41800000000E+01 0. -1.
        -11    1    4    4    0    0 -0.33529365499E+02 -0.71662628330E+02  0.24508137148E+03  0.25753568548E+03  0.00000000000E+00 0.  1.
         11    1    4    4    0    0  0.59134046274E+01  0.26196452383E+02  0.10165225393E+03  0.10513992201E+03  0.00000000000E+00 0. -1.
</event>
<event>
 8    1  0.6692409E-009  0.1353104E+03  0.7561462E-02  0.1219782E+00
         -2   -1    0    0    0  501 -0.00000000000E+00  0.00000000000E+00  0.21072465062E+03  0.21072465062E+03  0.00000000000E+00 0. -1.
          2   -1    0    0  501    0  0.00000000000E+00 -0.00000000000E+00 -0.25789404665E+03  0.25789404665E+03  0.00000000000E+00 0.  1.
         25    2    1    2    0    0  0.11852826017E+03  0.18332479029E+02 -0.19250706172E+03  0.25902051998E+03  0.12509049810E+03 0.  0.
         23    2    1    2    0    0 -0.11852826017E+03 -0.18332479029E+02  0.14533766569E+03  0.20959817728E+03  0.91778704544E+02 0.  0.
          5    1    3    3  502    0  0.41909971223E+02 -0.25281980828E+02 -0.21189814677E+01  0.49168960991E+02  0.41800000000E+01 0.  1.
         -5    1    3    3    0  502  0.76618288946E+02  0.43614459857E+02 -0.19038808025E+03  0.20985155899E+03  0.41800000000E+01 0.  1.
        -11    1    4    4    0    0 -0.40256303699E+02 -0.34843948666E+02  0.10987591815E+03  0.12209581539E+03  0.00000000000E+00 0.  1.
         11    1    4    4    0    0 -0.78271956470E+02  0.16511469637E+02  0.35461747539E+02  0.87502361898E+02  0.00000000000E+00 0. -1.
</event>
<event>
 8    1  0.6692409E-009  0.1025011E+03  0.7561462E-02  0.1275123E+00
         -1   -1    0    0    0  501 -0.00000000000E+00  0.00000000000E+00  0.96782268239E+02  0.96782268239E+02  0.00000000000E+00 0.  1.
          1   -1    0    0  501    0  0.00000000000E+00 -0.00000000000E+00 -0.21368454559E+03  0.21368454559E+03  0.00000000000E+00 0. -1.
         25    2    1    2    0    0  0.71429514254E+01 -0.24484392284E+02 -0.16176600333E+03  0.20607346420E+03  0.12509006993E+03 0.  0.
         23    2    1    2    0    0 -0.71429514254E+01  0.24484392284E+02  0.44863725975E+02  0.10439334963E+03  0.90745304657E+02 0.  0.
          5    1    3    3  502    0  0.56170729930E+02 -0.11190561522E+01 -0.13307292244E+03  0.14450701808E+03  0.41800000000E+01 0. -1.
         -5    1    3    3    0  502 -0.49027778505E+02 -0.23365336132E+02 -0.28693080892E+02  0.61566446127E+02  0.41800000000E+01 0. -1.
        -11    1    4    4    0    0 -0.68819772137E+01 -0.34514577304E+02  0.14854411508E+02  0.38200408350E+02  0.00000000000E+00 0.  1.
         11    1    4    4    0    0 -0.26097421172E+00  0.58998969589E+02  0.30009314467E+02  0.66192941276E+02  0.00000000000E+00 0. -1.
</event>
<event>
 8    1  0.6692409E-009  0.1220785E+03  0.7561462E-02  0.1239707E+00
          1   -1    0    0  501    0  0.00000000000E+00  0.00000000000E+00  0.78617792213E+03  0.78617792213E+03  0.00000000000E+00 0. -1.
         -1   -1    0    0    0  501 -0.00000000000E+00 -0.00000000000E+00 -0.24176898598E+02  0.24176898598E+02  0.00000000000E+00 0.  1.
         25    2    1    2    0    0 -0.38191186975E+02 -0.74379432197E+02  0.45579335488E+03  0.47998585842E+03  0.12509186720E+03 0.  0.
         23    2    1    2    0    0  0.38191186975E+02  0.74379432197E+02  0.30620766866E+03  0.33036896231E+03  0.91595022872E+02 0.  0.
          5    1    3    3  502    0  0.16399192424E+02  0.16519082352E+02  0.22178394958E+03  0.22304126588E+03  0.41800000000E+01 0. -1.
         -5    1    3    3    0  502 -0.54590379399E+02 -0.90898514549E+02  0.23400940530E+03  0.25694459254E+03  0.41800000000E+01 0. -1.
        -11    1    4    4    0    0 -0.24266171686E+02  0.24264470022E+02  0.16029354511E+03  0.16392569108E+03  0.00000000000E+00 0. -1.
         11    1    4    4    0    0  0.62457358661E+02  0.50114962174E+02  0.14591412355E+03  0.16644327123E+03  0.00000000000E+00 0.  1.
</event>
<event>
 8    1  0.6692409E-009  0.9103184E+02  0.7561462E-02  0.1300372E+00
          1   -1    0    0  501    0  0.00000000000E+00  0.00000000000E+00  0.70630354611E+02  0.70630354611E+02  0.00000000000E+00 0. -1.
         -1   -1    0    0    0  501 -0.00000000000E+00 -0.00000000000E+00 -0.31860667164E+03  0.31860667164E+03  0.00000000000E+00 0.  1.
         25    2    1    2    0    0  0.46893784342E+02 -0.21936653946E+02 -0.24916830899E+03  0.28358071931E+03  0.12511168757E+03 0.  0.
         23    2    1    2    0    0 -0.46893784342E+02  0.21936653946E+02  0.11919919571E+01  0.10565630694E+03  0.92095551220E+02 0.  0.
          5    1    3    3  502    0 -0.33401794144E+02 -0.35132409432E+02 -0.13353953760E+03  0.14212757139E+03  0.41800000000E+01 0. -1.
         -5    1    3    3    0  502  0.80295578486E+02  0.13195755486E+02 -0.11562877138E+03  0.14145314793E+03  0.41800000000E+01 0. -1.
        -11    1    4    4    0    0 -0.17541889807E+02  0.60761168177E+01  0.46108068019E+02  0.49705040288E+02  0.00000000000E+00 0. -1.
         11    1    4    4    0    0 -0.29351894536E+02  0.15860537128E+02 -0.44916076062E+02  0.55951266649E+02  0.00000000000E+00 0.  1.
</event>
<event>
 8    1  0.6692409E-009  0.1141920E+03  0.7561462E-02  0.1252998E+00
          1   -1    0    0  501    0  0.00000000000E+00  0.00000000000E+00  0.48282550180E+03  0.48282550180E+03  0.00000000000E+00 0. -1.
         -1   -1    0    0    0  501 -0.00000000000E+00 -0.00000000000E+00 -0.32483611529E+02  0.32483611529E+02  0.00000000000E+00 0.  1.
         25    2    1    2    0    0 -0.53073968272E+02  0.20695292574E+02  0.29429808798E+03  0.32481323123E+03  0.12508848608E+03 0.  0.
         23    2    1    2    0    0  0.53073968272E+02 -0.20695292574E+02  0.15604380230E+03  0.19049588211E+03  0.93240933188E+02 0.  0.
          5    1    3    3  502    0  0.35081351967E+01 -0.42050152784E+02  0.46291988966E+02  0.62776930509E+02  0.41800000000E+01 0. -1.
         -5    1    3    3    0  502 -0.56582103468E+02  0.62745445358E+02  0.24800609901E+03  0.26203630072E+03  0.41800000000E+01 0. -1.
        -11    1    4    4    0    0  0.10781627016E+02 -0.49212417432E+02  0.42095456619E+02  0.65651603016E+02  0.00000000000E+00 0.  1.
         11    1    4    4    0    0  0.42292341255E+02  0.28517124858E+02  0.11394834568E+03  0.12484427909E+03  0.00000000000E+00 0. -1.
</event>
<event>
 8    1  0.6692409E-009  0.1102399E+03  0.7561462E-02  0.1260126E+00
         -1   -1    0    0    0  501 -0.00000000000E+00  0.00000000000E+00  0.21788909512E+03  0.21788909512E+03  0.00000000000E+00 0.  1.
          1   -1    0    0  501    0  0.00000000000E+00 -0.00000000000E+00 -0.98054315785E+02  0.98054315785E+02  0.00000000000E+00 0. -1.
         25    2    1    2    0    0 -0.65252317672E+02  0.51552720977E+02  0.81203800075E+01  0.15042529962E+03  0.12508509980E+03 0.  0.
         23    2    1    2    0    0  0.65252317672E+02 -0.51552720977E+02  0.11171439933E+03  0.16551811129E+03  0.89446018051E+02 0.  0.
          5    1    3    3  502    0 -0.25340693418E+02  0.70396578710E+02  0.49477483710E+02  0.89796006767E+02  0.41800000000E+01 0.  1.
         -5    1    3    3    0  502 -0.39911624254E+02 -0.18843857733E+02 -0.41357103702E+02  0.60629292850E+02  0.41800000000E+01 0.  1.
        -11    1    4    4    0    0  0.46757650550E+02 -0.33822170147E+00  0.67138895543E+01  0.47238422834E+02  0.00000000000E+00 0.  1.
         11    1    4    4    0    0  0.18494667122E+02 -0.51214499276E+02  0.10500050977E+03  0.11827968845E+03  0.00000000000E+00 0. -1.
</event>
<event>
 8    1  0.6692409E-009  0.9914964E+02  0.7561462E-02  0.1282094E+00
          3   -1    0    0  501    0  0.00000000000E+00  0.00000000000E+00  0.40806617531E+03  0.40806617531E+03  0.00000000000E+00 0. -1.
         -3   -1    0    0    0  501 -0.00000000000E+00 -0.00000000000E+00 -0.34903280857E+02  0.34903280857E+02  0.00000000000E+00 0.  1.
         25    2    1    2    0    0 -0.27052206066E+01 -0.39279131902E+02  0.15925262486E+03  0.20629634169E+03  0.12508642471E+03 0.  0.
         23    2    1    2    0    0  0.27052206066E+01  0.39279131902E+02  0.21391026959E+03  0.23667311448E+03  0.93308044992E+02 0.  0.
          5    1    3    3  502    0  0.33282870095E+02  0.10896603031E+02  0.13548521977E+03  0.14000072348E+03  0.41800000000E+01 0.  1.
         -5    1    3    3    0  502 -0.35988090702E+02 -0.50175734933E+02  0.23767405092E+02  0.66295618205E+02  0.41800000000E+01 0.  1.
        -11    1    4    4    0    0 -0.32458924935E+02 -0.15560115190E+02  0.82038387589E+02  0.89587923465E+02  0.00000000000E+00 0. -1.
         11    1    4    4    0    0  0.35164145542E+02  0.54839247092E+02  0.13187188201E+03  0.14708519102E+03  0.00000000000E+00 0.  1.
</event>
<event>
 8    1  0.6692409E-009  0.1827825E+03  0.7561462E-02  0.1165137E+00
          1   -1    0    0  501    0  0.00000000000E+00  0.00000000000E+00  0.10866698135E+04  0.10866698135E+04  0.00000000000E+00 0. -1.
         -1   -1    0    0    0  501 -0.00000000000E+00 -0.00000000000E+00 -0.38529144126E+02  0.38529144126E+02  0.00000000000E+00 0.  1.
         25    2    1    2    0    0 -0.12768293474E+03 -0.11601326324E+03  0.61318259228E+03  0.64915516052E+03  0.12509005513E+03 0.  0.
         23    2    1    2    0    0  0.12768293474E+03  0.11601326324E+03  0.43495807713E+03  0.47604379713E+03  0.87562314139E+02 0.  0.
          5    1    3    3  502    0 -0.87944945728E+02 -0.79079684730E+02  0.19988825906E+03  0.23229442207E+03  0.41800000000E+01 0.  1.
         -5    1    3    3    0  502 -0.39737989012E+02 -0.36933578512E+02  0.41329433322E+03  0.41686073845E+03  0.41800000000E+01 0.  1.
        -11    1    4    4    0    0  0.39390970759E+02  0.93844141145E+02  0.20993872308E+03  0.23330803427E+03  0.00000000000E+00 0.  1.
         11    1    4    4    0    0  0.88291963981E+02  0.22169122098E+02  0.22501935404E+03  0.24273576286E+03  0.00000000000E+00 0. -1.
</event>
<event>
 8    1  0.6692409E-009  0.1092973E+03  0.7561462E-02  0.1261877E+00
         -2   -1    0    0    0  501 -0.00000000000E+00  0.00000000000E+00  0.29160734758E+02  0.29160734758E+02  0.00000000000E+00 0. -1.
          2   -1    0    0  501    0  0.00000000000E+00 -0.00000000000E+00 -0.52255946538E+03  0.52255946538E+03  0.00000000000E+00 0.  1.
         25    2    1    2    0    0 -0.13325751701E+02 -0.10414178274E+02 -0.14983528324E+03  0.19591423799E+03  0.12508295558E+03 0.  0.
         23    2    1    2    0    0  0.13325751701E+02  0.10414178274E+02 -0.34356344738E+03  0.35580596214E+03  0.90972575837E+02 0.  0.
          5    1    3    3  502    0 -0.60949547265E+02 -0.36971223065E+02 -0.89144410353E+02  0.11421872414E+03  0.41800000000E+01 0.  1.
         -5    1    3    3    0  502  0.47623795564E+02  0.26557044791E+02 -0.60690872888E+02  0.81695513854E+02  0.41800000000E+01 0.  1.
        -11    1    4    4    0    0 -0.34984131533E+02  0.23867042570E+02 -0.16206112753E+03  0.16750323649E+03  0.00000000000E+00 0.  1.
         11    1    4    4    0    0  0.48309883234E+02 -0.13452864296E+02 -0.18150231985E+03  0.18830272565E+03  0.00000000000E+00 0. -1.
</event>
<event>
 8    1  0.6692409E-009  0.9746428E+02  0.7561462E-02  0.1285720E+00
         -2   -1    0    0    0  501 -0.00000000000E+00  0.00000000000E+00  0.20634931730E+02  0.20634931730E+02  0.00000000000E+00 0.  1.
          2   -1    0    0  501    0  0.00000000000E+00 -0.00000000000E+00 -0.66204891780E+03  0.66204891780E+03  0.00000000000E+00 0. -1.
         25    2    1    2    0    0 -0.41262849413E+02  0.12587963578E+02 -0.38633870665E+03  0.40836975386E+03  0.12508868869E+03 0.  0.
         23    2    1    2    0    0  0.41262849413E+02 -0.12587963578E+02 -0.25507527942E+03  0.27431409567E+03  0.91234562234E+02 0.  0.
          5    1    3    3  502    0 -0.49604273846E+02  0.41300780786E+02 -0.91862866489E+02  0.11235033207E+03  0.41800000000E+01 0.  1.
         -5    1    3    3    0  502  0.83414244333E+01 -0.28712817207E+02 -0.29447584016E+03  0.29601942178E+03  0.41800000000E+01 0.  1.
        -11    1    4    4    0    0 -0.14924547883E+02  0.27324722079E+02 -0.96805139181E+02  0.10168882701E+03  0.00000000000E+00 0. -1.
         11    1    4    4    0    0  0.56187397296E+02 -0.39912685658E+02 -0.15827014023E+03  0.17262526866E+03  0.00000000000E+00 0.  1.
</event>
<event>
 8    1  0.6692409E-009  0.1114112E+03  0.7561462E-02  0.1257979E+00
         -1   -1    0    0    0  501 -0.00000000000E+00  0.00000000000E+00  0.13322320209E+02  0.13322320209E+02  0.00000000000E+00 0.  1.
          1   -1    0    0  501    0  0.00000000000E+00 -0.00000000000E+00 -0.13340271031E+04  0.13340271031E+04  0.00000000000E+00 0. -1.
         25    2    1    2    0    0  0.42528281899E+01 -0.69151597606E+02 -0.90152915603E+03  0.91279925178E+03  0.12509046676E+03 0.  0.
         23    2    1    2    0    0 -0.42528281899E+01  0.69151597606E+02 -0.41917562690E+03  0.43455017157E+03  0.91244810400E+02 0.  0.
          5    1    3    3  502    0 -0.98529874284E+01  0.33170773611E+02 -0.13940791359E+03  0.14369906177E+03  0.41800000000E+01 0.  1.
         -5    1    3    3    0  502  0.14105815618E+02 -0.10232237122E+03 -0.76212124245E+03  0.76910019001E+03  0.41800000000E+01 0.  1.
        -11    1    4    4    0    0  0.63481970814E+01  0.73029542850E+02 -0.41656293159E+03  0.42296369786E+03  0.00000000000E+00 0. -1.
         11    1    4    4    0    0 -0.10601025271E+02 -0.38779452436E+01 -0.26126953069E+01  0.11586473703E+02  0.00000000000E+00 0.  1.
</event>
<event>
 8    1  0.6692409E-009  0.1997380E+03  0.7561462E-02  0.1149960E+00
          1   -1    0    0  501    0  0.00000000000E+00  0.00000000000E+00  0.40288364414E+03  0.40288364414E+03  0.00000000000E+00 0. -1.
         -1   -1    0    0    0  501 -0.00000000000E+00 -0.00000000000E+00 -0.12223245133E+03  0.12223245133E+03  0.00000000000E+00 0.  1.
         25    2    1    2    0    0 -0.73205080560E+02 -0.17427483039E+03  0.98221104748E+02  0.24703306421E+03  0.12508896461E+03 0.  0.
         23    2    1    2    0    0  0.73205080560E+02  0.17427483039E+03  0.18243008806E+03  0.27808303127E+03  0.91207099077E+02 0.  0.
          5    1    3    3  502    0 -0.57263038129E+00 -0.47062600474E+02  0.88304015952E+02  0.10015132501E+03  0.41800000000E+01 0. -1.
         -5    1    3    3    0  502 -0.72632450179E+02 -0.12721222991E+03  0.99170887962E+01  0.14688173919E+03  0.41800000000E+01 0. -1.
        -11    1    4    4    0    0  0.18840382152E+02  0.14032352704E+03  0.98491199719E+02  0.17247077626E+03  0.00000000000E+00 0.  1.
         11    1    4    4    0    0  0.54364698408E+02  0.33951303346E+02  0.83938888346E+02  0.10561225501E+03  0.00000000000E+00 0. -1.
</event>
<event>
 8    1  0.6692409E-009  0.1310363E+03  0.7561462E-02  0.1225926E+00
          2   -1    0    0  501    0  0.00000000000E+00  0.00000000000E+00  0.40649323653E+03  0.40649323653E+03  0.00000000000E+00 0. -1.
         -2   -1    0    0    0  501 -0.00000000000E+00 -0.00000000000E+00 -0.47547803695E+02  0.47547803695E+02  0.00000000000E+00 0.  1.
         25    2    1    2    0    0 -0.81814358002E+02 -0.99772488932E+01  0.23668275034E+03  0.28010487634E+03  0.12508750046E+03 0.  0.
         23    2    1    2    0    0  0.81814358002E+02  0.99772488932E+01  0.12226268249E+03  0.17393616388E+03  0.92263161144E+02 0.  0.
          5    1    3    3  502    0 -0.10879301889E+02 -0.54313342255E+02  0.14819785952E+03  0.15826678844E+03  0.41800000000E+01 0. -1.
         -5    1    3    3    0  502 -0.70935056113E+02  0.44336093362E+02  0.88484890822E+02  0.12183808790E+03  0.41800000000E+01 0. -1.
        -11    1    4    4    0    0 -0.18828524943E+02 -0.81300455896E+01  0.12979466246E+02  0.24270919571E+02  0.00000000000E+00 0. -1.
         11    1    4    4    0    0  0.10064288294E+03  0.18107294483E+02  0.10928321625E+03  0.14966524431E+03  0.00000000000E+00 0.  1.
</event>
<event>
 8    1  0.6692409E-009  0.1066941E+03  0.7561462E-02  0.1266817E+00
          2   -1    0    0  501    0  0.00000000000E+00  0.00000000000E+00  0.38138615148E+03  0.38138615148E+03  0.00000000000E+00 0. -1.
         -2   -1    0    0    0  501 -0.00000000000E+00 -0.00000000000E+00 -0.34017642013E+02  0.34017642013E+02  0.00000000000E+00 0.  1.
         25    2    1    2    0    0  0.33598491984E+02  0.84839835937E+01  0.20078894346E+03  0.23909232303E+03  0.12509237577E+03 0.  0.
         23    2    1    2    0    0 -0.33598491984E+02 -0.84839835937E+01  0.14657956601E+03  0.17631147047E+03  0.91647852154E+02 0.  0.
          5    1    3    3  502    0  0.80462470594E+02  0.85893485629E+01  0.10757259213E+03  0.13467487168E+03  0.41800000000E+01 0.  1.
         -5    1    3    3    0  502 -0.46863978610E+02 -0.10536496922E+00  0.93216351325E+02  0.10441745135E+03  0.41800000000E+01 0.  1.
        -11    1    4    4    0    0 -0.49389754868E+02  0.19563405950E+02  0.12928157415E+03  0.13977052677E+03  0.00000000000E+00 0.  1.
         11    1    4    4    0    0  0.15791262885E+02 -0.28047389544E+02  0.17297991858E+02  0.36540943694E+02  0.00000000000E+00 0. -1.
</event>
<event>
 8    1  0.6692409E-009  0.1310363E+03  0.7561462E-02  0.1225926E+00
         -2   -1    0    0    0  501 -0.00000000000E+00  0.00000000000E+00  0.10220425420E+03  0.10220425420E+03  0.00000000000E+00 0.  1.
          2   -1    0    0  501    0  0.00000000000E+00 -0.00000000000E+00 -0.33758112605E+03  0.33758112605E+03  0.00000000000E+00 0. -1.
         25    2    1    2    0    0 -0.67846022989E+02 -0.90679642400E+02 -0.24390086579E+03  0.29658167705E+03  0.12508868233E+03 0.  0.
         23    2    1    2    0    0  0.67846022989E+02  0.90679642400E+02  0.85239939476E+01  0.14320370320E+03  0.87228216514E+02 0.  0.
          5    1    3    3  502    0 -0.46404015195E+02 -0.16415479027E+02 -0.20320974376E+03  0.20912788656E+03  0.41800000000E+01 0. -1.
         -5    1    3    3    0  502 -0.21442007794E+02 -0.74264163373E+02 -0.40691122037E+02  0.87453790498E+02  0.41800000000E+01 0. -1.
        -11    1    4    4    0    0 -0.85251443080E+01  0.45997693233E+02 -0.19070517197E+02  0.50518813272E+02  0.00000000000E+00 0. -1.
         11    1    4    4    0    0  0.76371167297E+02  0.44681949168E+02  0.27594511145E+02  0.92684889929E+02  0.00000000000E+00 0.  1.
</event>
<event>
 8    1  0.6692409E-009  0.1099316E+03  0.7561462E-02  0.1260697E+00
         -1   -1    0    0    0  501 -0.00000000000E+00  0.00000000000E+00  0.98371382160E+03  0.98371382160E+03  0.00000000000E+00 0.  1.
          1   -1    0    0  501    0  0.00000000000E+00 -0.00000000000E+00 -0.19611826856E+02  0.19611826856E+02  0.00000000000E+00 0. -1.
         25    2    1    2    0    0  0.48840343936E+02  0.66801445163E+02  0.42995327136E+03  0.45536326342E+03  0.12509226135E+03 0.  0.
         23    2    1    2    0    0 -0.48840343936E+02 -0.66801445163E+02  0.53414872339E+03  0.54796238504E+03  0.90000580262E+02 0.  0.
          5    1    3    3  502    0 -0.27579943320E+01 -0.10426324489E+02 -0.34735114488E+01  0.12076939052E+02  0.41800000000E+01 0.  1.
         -5    1    3    3    0  502  0.51598338268E+02  0.77227769652E+02  0.43342678281E+03  0.44328632437E+03  0.41800000000E+01 0.  1.
        -11    1    4    4    0    0  0.22181260159E+02 -0.22620658664E+02  0.77651590718E+02  0.83865797806E+02  0.00000000000E+00 0. -1.
         11    1    4    4    0    0 -0.71021604095E+02 -0.44180786499E+02  0.45649713267E+03  0.46409658723E+03  0.00000000000E+00 0.  1.
</event>
<event>
 8    1  0.6692409E-009  0.1174189E+03  0.7561462E-02  0.1247417E+00
          1   -1    0    0  501    0  0.00000000000E+00  0.00000000000E+00  0.74361958899E+02  0.74361958899E+02  0.00000000000E+00 0. -1.
         -1   -1    0    0    0  501 -0.00000000000E+00 -0.00000000000E+00 -0.71059055740E+03  0.71059055740E+03  0.00000000000E+00 0.  1.
         25    2    1    2    0    0  0.53467325646E+02  0.18754934772E+02 -0.65979798568E+03  0.67393736258E+03  0.12509070422E+03 0.  0.
         23    2    1    2    0    0 -0.53467325646E+02 -0.18754934772E+02  0.23569387175E+02  0.11101515373E+03  0.92511328252E+02 0.  0.
          5    1    3    3  502    0  0.19877596029E+02  0.65667000737E+02 -0.48423388859E+03  0.48908813630E+03  0.41800000000E+01 0.  1.
         -5    1    3    3    0  502  0.33589729617E+02 -0.46912065965E+02 -0.17556409709E+03  0.18484922627E+03  0.41800000000E+01 0.  1.
        -11    1    4    4    0    0 -0.80040047809E+02 -0.13761146572E+02  0.14513669890E+02  0.82501060732E+02  0.00000000000E+00 0.  1.
         11    1    4    4    0    0  0.26572722163E+02 -0.49937882002E+01  0.90557172844E+01  0.28514092994E+02  0.00000000000E+00 0. -1.
</event>
<event>
 8    1  0.6692409E-009  0.1381108E+03  0.7561462E-02  0.1215894E+00
          1   -1    0    0  501    0  0.00000000000E+00  0.00000000000E+00  0.34453008402E+02  0.34453008402E+02  0.00000000000E+00 0. -1.
         -1   -1    0    0    0  501 -0.00000000000E+00 -0.00000000000E+00 -0.78387887347E+03  0.78387887347E+03  0.00000000000E+00 0.  1.
         25    2    1    2    0    0 -0.10482258050E+03  0.69465328404E+01 -0.55859618141E+03  0.58199041884E+03  0.12508847281E+03 0.  0.
         23    2    1    2    0    0  0.10482258050E+03 -0.69465328404E+01 -0.19082968366E+03  0.23634146304E+03  0.91680375665E+02 0.  0.
          5    1    3    3  502    0 -0.83156669634E+02 -0.39816602319E+02 -0.20739824113E+03  0.22700637953E+03  0.41800000000E+01 0. -1.
         -5    1    3    3    0  502 -0.21665910871E+02  0.46763135160E+02 -0.35119794028E+03  0.35498403930E+03  0.41800000000E+01 0. -1.
        -11    1    4    4    0    0  0.10242204530E+03  0.20681807632E+02 -0.17653799687E+03  0.20514306439E+03  0.00000000000E+00 0.  1.
         11    1    4    4    0    0  0.24005352020E+01 -0.27628340472E+02 -0.14291686794E+02  0.31198398644E+02  0.00000000000E+00 0. -1.
</event>
<event>
 8    1  0.6692409E-009  0.3780206E+03  0.7561462E-02  0.1051668E+00
         -2   -1    0    0    0  501 -0.00000000000E+00  0.00000000000E+00  0.45155122705E+03  0.45155122705E+03  0.00000000000E+00 0.  1.
          2   -1    0    0  501    0  0.00000000000E+00 -0.00000000000E+00 -0.35999691939E+03  0.35999691939E+03  0.00000000000E+00 0. -1.
         25    2    1    2    0    0 -0.27388025423E+03  0.23864938398E+03  0.18194317874E+03  0.42510526905E+03  0.12508895776E+03 0.  0.
         23    2    1    2    0    0  0.27388025423E+03 -0.23864938398E+03 -0.90388871069E+02  0.38644287739E+03  0.95937622131E+02 0.  0.
          5    1    3    3  502    0 -0.68122004295E+02  0.13187075968E+03  0.10078281718E+03  0.17945794317E+03  0.41800000000E+01 0.  1.
         -5    1    3    3    0  502 -0.20575824994E+03  0.10677862430E+03  0.81160361556E+02  0.24564732588E+03  0.41800000000E+01 0.  1.
        -11    1    4    4    0    0  0.17443356994E+02  0.86314421141E+01 -0.55727619488E+01  0.20244213295E+02  0.00000000000E+00 0.  1.
         11    1    4    4    0    0  0.25643689724E+03 -0.24728082609E+03 -0.84816109120E+02  0.36619866409E+03  0.00000000000E+00 0. -1.
</event>
<event>
 8    1  0.6692409E-009  0.1534125E+03  0.7561462E-02  0.1196341E+00
          2   -1    0    0  501    0  0.00000000000E+00  0.00000000000E+00  0.29283766983E+03  0.29283766983E+03  0.00000000000E+00 0. -1.
         -2   -1    0    0    0  501 -0.00000000000E+00 -0.00000000000E+00 -0.11216606888E+03  0.11216606888E+03  0.00000000000E+00 0.  1.
         25    2    1    2    0    0 -0.70151572901E+02  0.97108446879E+02  0.63807448163E+01  0.17331702734E+03  0.12508710735E+03 0.  0.
         23    2    1    2    0    0  0.70151572901E+02 -0.97108446879E+02  0.17429085614E+03  0.23168671137E+03  0.94605158725E+02 0.  0.
          5    1    3    3  502    0 -0.21920435926E+02  0.11823824099E+03  0.63833843703E+01  0.12049484279E+03  0.41800000000E+01 0.  1.
         -5    1    3    3    0  502 -0.48231136975E+02 -0.21129794111E+02 -0.26395540246E-02  0.52822184544E+02  0.41800000000E+01 0.  1.
        -11    1    4    4    0    0 -0.94824289921E+01 -0.23068288338E+02 -0.14977118737E+01  0.24986106685E+02  0.00000000000E+00 0.  1.
         11    1    4    4    0    0  0.79634001893E+02 -0.74040158541E+02  0.17578856801E+03  0.20670060469E+03  0.00000000000E+00 0. -1.
</event>
<event>
 8    1  0.6692409E-009  0.1148105E+03  0.7561462E-02  0.1251912E+00
          1   -1    0    0  501    0  0.00000000000E+00  0.00000000000E+00  0.31854632234E+03  0.31854632234E+03  0.00000000000E+00 0. -1.
         -1   -1    0    0    0  501 -0.00000000000E+00 -0.00000000000E+00 -0.73793569987E+02  0.73793569987E+02  0.00000000000E+00 0.  1.
         25    2    1    2    0    0 -0.43442569462E+02 -0.74966320153E+02  0.21550675119E+03  0.26381428010E+03  0.12509040162E+03 0.  0.
         23    2    1    2    0    0  0.43442569462E+02  0.74966320153E+02  0.29246001157E+02  0.12852561222E+03  0.90312227383E+02 0.  0.
          5    1    3    3  502    0 -0.56204475723E+02 -0.31021174567E+02  0.20740627105E+03  0.21715453031E+03  0.41800000000E+01 0.  1.
         -5    1    3    3    0  502  0.12761906260E+02 -0.43945145586E+02  0.81004801413E+01  0.46659749791E+02  0.41800000000E+01 0.  1.
        -11    1    4    4    0    0  0.17397094129E+02  0.88355044472E+02  0.44642500394E+01  0.90162089018E+02  0.00000000000E+00 0.  1.
         11    1    4    4    0    0  0.26045475334E+02 -0.13388724319E+02  0.24781751118E+02  0.38363523205E+02  0.00000000000E+00 0. -1.
</event>
<event>
 8    1  0.6692409E-009  0.1181535E+03  0.7561462E-02  0.1246175E+00
         -1   -1    0    0    0  501 -0.00000000000E+00  0.00000000000E+00  0.18515262847E+03  0.18515262847E+03  0.00000000000E+00 0.  1.
          1   -1    0    0  501    0  0.00000000000E+00 -0.00000000000E+00 -0.14381776152E+03  0.14381776152E+03  0.00000000000E+00 0. -1.
         25    2    1    2    0    0  0.36518109247E+02  0.74352254043E+02 -0.67644027084E+02  0.16457730961E+03  0.12509255156E+03 0.  0.
         23    2    1    2    0    0 -0.36518109247E+02 -0.74352254043E+02  0.10897889404E+03  0.16439308037E+03  0.91032167641E+02 0.  0.
          5    1    3    3  502    0  0.46134564817E+02 -0.41613794134E+01  0.16183885117E+02  0.49245362086E+02  0.41800000000E+01 0. -1.
         -5    1    3    3    0  502 -0.96164555704E+01  0.78513633457E+02 -0.83827912201E+02  0.11533194753E+03  0.41800000000E+01 0. -1.
        -11    1    4    4    0    0 -0.10816998720E+02 -0.82822076977E+02  0.44887315717E+02  0.94822861212E+02  0.00000000000E+00 0. -1.
         11    1    4    4    0    0 -0.25701110527E+02  0.84698229342E+01  0.64091578319E+02  0.69570219163E+02  0.00000000000E+00 0.  1.
</event>
<event>
 8    1  0.6692409E-009  0.2294708E+03  0.7561462E-02  0.1127013E+00
          2   -1    0    0  501    0  0.00000000000E+00  0.00000000000E+00  0.44234258374E+03  0.44234258374E+03  0.00000000000E+00 0. -1.
         -2   -1    0    0    0  501 -0.00000000000E+00 -0.00000000000E+00 -0.13891386848E+03  0.13891386848E+03  0.00000000000E+00 0.  1.
         25    2    1    2    0    0 -0.10451999762E+03 -0.18393392511E+03  0.74347051762E+02  0.25677264445E+03  0.12509431690E+03 0.  0.
         23    2    1    2    0    0  0.10451999762E+03  0.18393392511E+03  0.22908166349E+03  0.32448380777E+03  0.89750845394E+02 0.  0.
          5    1    3    3  502    0  0.15998501647E+02 -0.10713991478E+02 -0.17724365617E+02  0.26502211321E+02  0.41800000000E+01 0. -1.
         -5    1    3    3    0  502 -0.12051849927E+03 -0.17321993363E+03  0.92071417379E+02  0.23027043313E+03  0.41800000000E+01 0. -1.
        -11    1    4    4    0    0  0.62015612210E+02  0.30781128211E+02  0.87911698236E+02  0.11190120955E+03  0.00000000000E+00 0.  1.
         11    1    4    4    0    0  0.42504385414E+02  0.15315279690E+03  0.14116996526E+03  0.21258259822E+03  0.00000000000E+00 0. -1.
</event>
<event>
 8    1  0.6692409E-009  0.8032415E+02  0.7561462E-02  0.1328134E+00
          1   -1    0    0  501    0  0.00000000000E+00  0.00000000000E+00  0.23480246494E+02  0.23480246494E+02  0.00000000000E+00 0. -1.
         -1   -1    0    0    0  501 -0.00000000000E+00 -0.00000000000E+00 -0.54390135605E+03  0.54390135605E+03  0.00000000000E+00 0.  1.
         25    2    1    2    0    0  0.27528291875E+02  0.16765314556E+01 -0.28778468654E+03  0.31500144835E+03  0.12508104990E+03 0.  0.
         23    2    1    2    0    0 -0.27528291875E+02 -0.16765314556E+01 -0.23263642301E+03  0.25238015419E+03  0.93890464404E+02 0.  0.
          5    1    3    3  502    0  0.58675530694E+01 -0.26298014120E+02 -0.27619456904E+03  0.27753725172E+03  0.41800000000E+01 0. -1.
         -5    1    3    3    0  502  0.21660738806E+02  0.27974545575E+02 -0.11590117506E+02  0.37464196636E+02  0.41800000000E+01 0. -1.
        -11    1    4    4    0    0  0.23507594556E+02  0.29675636377E+02 -0.84532212876E+02  0.92622596648E+02  0.00000000000E+00 0.  1.
         11    1    4    4    0    0 -0.51035886431E+02 -0.31352167833E+02 -0.14810421014E+03  0.15975755754E+03  0.00000000000E+00 0. -1.
</event>
<event>
 8    1  0.6692409E-009  0.1027342E+03  0.7561462E-02  0.1274649E+00
          2   -1    0    0  501    0  0.00000000000E+00  0.00000000000E+00  0.13773267810E+03  0.13773267810E+03  0.00000000000E+00 0. -1.
         -2   -1    0    0    0  501 -0.00000000000E+00 -0.00000000000E+00 -0.13432789394E+03  0.13432789394E+03  0.00000000000E+00 0.  1.
         25    2    1    2    0    0 -0.14121714511E+02 -0.71614436581E+02  0.42299561476E+02  0.15088083248E+03  0.12509085643E+03 0.  0.
         23    2    1    2    0    0  0.14121714511E+02  0.71614436581E+02 -0.38894777319E+02  0.12117973956E+03  0.88564525794E+02 0.  0.
          5    1    3    3  502    0 -0.31939095681E+02 -0.91112311664E+01  0.71923821465E+02  0.79332394772E+02  0.41800000000E+01 0. -1.
         -5    1    3    3    0  502  0.17817381170E+02 -0.62503205414E+02 -0.29624259989E+02  0.71548437710E+02  0.41800000000E+01 0. -1.
        -11    1    4    4    0    0 -0.32484136905E+02  0.33451889844E+02  0.46379506512E+01  0.46858923065E+02  0.00000000000E+00 0. -1.
         11    1    4    4    0    0  0.46605851416E+02  0.38162546737E+02 -0.43532727970E+02  0.74320816493E+02  0.00000000000E+00 0.  1.
</event>
<event>
 8    1  0.6692409E-009  0.1329387E+03  0.7561462E-02  0.1223159E+00
         -2   -1    0    0    0  501 -0.00000000000E+00  0.00000000000E+00  0.10839980087E+03  0.10839980087E+03  0.00000000000E+00 0.  1.
          2   -1    0    0  501    0  0.00000000000E+00 -0.00000000000E+00 -0.31760272641E+03  0.31760272641E+03  0.00000000000E+00 0. -1.
         25    2    1    2    0    0  0.68390458056E+02 -0.41155111382E+02 -0.25538695820E+03  0.29536546912E+03  0.12508902424E+03 0.  0.
         23    2    1    2    0    0 -0.68390458056E+02  0.41155111382E+02  0.46184032659E+02  0.13063705816E+03  0.92531498135E+02 0.  0.
          5    1    3    3  502    0  0.19584857481E+02  0.42816595805E+02 -0.11752557456E+03  0.12667501961E+03  0.41800000000E+01 0.  1.
         -5    1    3    3    0  502  0.48805600576E+02 -0.83971707187E+02 -0.13786138364E+03  0.16869044950E+03  0.41800000000E+01 0.  1.
        -11    1    4    4    0    0 -0.53793378835E+02  0.70464609075E+02  0.40250036837E+02  0.97360434489E+02  0.00000000000E+00 0.  1.
         11    1    4    4    0    0 -0.14597079221E+02 -0.29309497693E+02  0.59339958224E+01  0.33276623675E+02  0.00000000000E+00 0. -1.
</event>
<event>
 8    1  0.6692409E-009  0.1364397E+03  0.7561462E-02  0.1218201E+00
         -3   -1    0    0    0  501 -0.00000000000E+00  0.00000000000E+00  0.36290882675E+03  0.36290882675E+03  0.00000000000E+00 0.  1.
          3   -1    0    0  501    0  0.00000000000E+00 -0.00000000000E+00 -0.65491969719E+02  0.65491969719E+02  0.00000000000E+00 0. -1.
         25    2    1    2    0    0  0.28220668754E+02  0.10540835728E+03  0.14641736698E+03  0.22135962515E+03  0.12511878502E+03 0.  0.
         23    2    1    2    0    0 -0.28220668754E+02 -0.10540835728E+03  0.15099949005E+03  0.20704117131E+03  0.90320942718E+02 0.  0.
          5    1    3    3  502    0  0.54171072009E+02  0.73097566462E+02  0.27165699593E+02  0.95043184393E+02  0.41800000000E+01 0. -1.
         -5    1    3    3    0  502 -0.25950403254E+02  0.32310790819E+02  0.11925166738E+03  0.12631644076E+03  0.41800000000E+01 0. -1.
        -11    1    4    4    0    0 -0.20692457196E+02 -0.12104177614E+03  0.14114663839E+03  0.18708731353E+03  0.00000000000E+00 0.  1.
         11    1    4    4    0    0 -0.75282115587E+01  0.15633418859E+02  0.98528516612E+01  0.19953857781E+02  0.00000000000E+00 0. -1.
</event>
<event>
 8    1  0.6692409E-009  0.1001541E+03  0.7561462E-02  0.1279972E+00
          1   -1    0    0  501    0  0.00000000000E+00  0.00000000000E+00  0.33060404740E+02  0.33060404740E+02  0.00000000000E+00 0. -1.
         -1   -1    0    0    0  501 -0.00000000000E+00 -0.00000000000E+00 -0.38821007439E+03  0.38821007439E+03  0.00000000000E+00 0.  1.
         25    2    1    2    0    0  0.24783744755E+02 -0.21124918950E+02 -0.21781140289E+03  0.25327649068E+03  0.12508667913E+03 0.  0.
         23    2    1    2    0    0 -0.24783744755E+02  0.21124918950E+02 -0.13733826676E+03  0.16799398845E+03  0.91102603887E+02 0.  0.
          5    1    3    3  502    0  0.57029354824E+02 -0.55123583966E+02 -0.11028177977E+03  0.13590621829E+03  0.41800000000E+01 0.  1.
         -5    1    3    3    0  502 -0.32245610069E+02  0.33998665016E+02 -0.10752962312E+03  0.11737027239E+03  0.41800000000E+01 0.  1.
        -11    1    4    4    0    0 -0.14632009183E+02  0.45307384381E+02 -0.13318615312E+03  0.14144046859E+03  0.00000000000E+00 0.  1.
         11    1    4    4    0    0 -0.10151735572E+02 -0.24182465431E+02 -0.41521136409E+01  0.26553519863E+02  0.00000000000E+00 0. -1.
</event>
<event>
 8    1  0.6692409E-009  0.1056592E+03  0.7561462E-02  0.1268826E+00
         -2   -1    0    0    0  501 -0.00000000000E+00  0.00000000000E+00  0.26455135958E+02  0.26455135958E+02  0.00000000000E+00 0.  1.
          2   -1    0    0  501    0  0.00000000000E+00 -0.00000000000E+00 -0.52221295449E+03  0.52221295449E+03  0.00000000000E+00 0. -1.
         25    2    1    2    0    0 -0.25066402451E-01 -0.23058583028E+02 -0.37412964640E+03  0.39516081933E+03  0.12508949572E+03 0.  0.
         23    2    1    2    0    0  0.25066402451E-01  0.23058583028E+02 -0.12162817214E+03  0.15350727112E+03  0.90770981874E+02 0.  0.
          5    1    3    3  502    0  0.50795361086E+01  0.47034976328E+02 -0.22878584017E+03  0.23366327000E+03  0.41800000000E+01 0.  1.
         -5    1    3    3    0  502 -0.51046025111E+01 -0.70093559356E+02 -0.14534380623E+03  0.16149754933E+03  0.41800000000E+01 0.  1.
        -11    1    4    4    0    0  0.44123588815E+02  0.10481301841E+01 -0.52091100636E+02  0.68274976618E+02  0.00000000000E+00 0.  1.
         11    1    4    4    0    0 -0.44098522413E+02  0.22010452844E+02 -0.69537071501E+02  0.85232294503E+02  0.00000000000E+00 0. -1.
</event>
<event>
 8    1  0.6692409E-009  0.1053188E+03  0.7561462E-02  0.1269493E+00
          2   -1    0    0  501    0  0.00000000000E+00  0.00000000000E+00  0.31557143954E+03  0.31557143954E+03  0.00000000000E+00 0. -1.
         -2   -1    0    0    0  501 -0.00000000000E+00 -0.00000000000E+00 -0.37923978760E+02  0.37923978760E+02  0.00000000000E+00 0.  1.
         25    2    1    2    0    0 -0.27070557132E+01 -0.13819359677E+02  0.14795727652E+03  0.19424011740E+03  0.12505824515E+03 0.  0.
         23    2    1    2    0    0  0.27070557132E+01  0.13819359677E+02  0.12969018426E+03  0.15925530090E+03  0.91347709977E+02 0.  0.
          5    1    3    3  502    0 -0.21676318351E+02  0.51113303977E+02  0.85775574111E+02  0.10226120542E+03  0.41800000000E+01 0.  1.
         -5    1    3    3    0  502  0.18969262638E+02 -0.64932663653E+02  0.62181702405E+02  0.91978911975E+02  0.41800000000E+01 0.  1.
        -11    1    4    4    0    0 -0.13891320454E+01 -0.36586577915E+02  0.81738242104E+02  0.89563651074E+02  0.00000000000E+00 0.  1.
         11    1    4    4    0    0  0.40961877586E+01  0.50405937592E+02  0.47951942158E+02  0.69691649826E+02  0.00000000000E+00 0. -1.
</event>
<event>
 8    1  0.6692409E-009  0.1803812E+03  0.7561462E-02  0.1167435E+00
          1   -1    0    0  501    0  0.00000000000E+00  0.00000000000E+00  0.10902319164E+04  0.10902319164E+04  0.00000000000E+00 0.  1.
         -1   -1    0    0    0  501 -0.00000000000E+00 -0.00000000000E+00 -0.30324032111E+02  0.30324032111E+02  0.00000000000E+00 0. -1.
         25    2    1    2    0    0  0.13061344255E+03  0.63928580627E+02  0.53211709638E+03  0.56563523903E+03  0.12509150481E+03 0.  0.
         23    2    1    2    0    0 -0.13061344255E+03 -0.63928580627E+02  0.52779078786E+03  0.55492070943E+03  0.90703600878E+02 0.  0.
          5    1    3    3  502    0 -0.75753811143E+01  0.50930737712E+02  0.17517155205E+03  0.18263042323E+03  0.41800000000E+01 0. -1.
         -5    1    3    3    0  502  0.13818882366E+03  0.12997842915E+02  0.35694554433E+03  0.38300481579E+03  0.41800000000E+01 0. -1.
        -11    1    4    4    0    0 -0.16322320469E+01 -0.38799801122E+02  0.14928947732E+03  0.15425769604E+03  0.00000000000E+00 0.  1.
         11    1    4    4    0    0 -0.12898121050E+03 -0.25128779505E+02  0.37850131054E+03  0.40066301339E+03  0.00000000000E+00 0. -1.
</event>
<event>
 8    1  0.6692409E-009  0.1245936E+03  0.7561462E-02  0.1235706E+00
          2   -1    0    0  501    0  0.00000000000E+00  0.00000000000E+00  0.14173763527E+03  0.14173763527E+03  0.00000000000E+00 0. -1.
         -2   -1    0    0    0  501 -0.00000000000E+00 -0.00000000000E+00 -0.12228812104E+03  0.12228812104E+03  0.00000000000E+00 0.  1.
         25    2    1    2    0    0 -0.60487176272E+01  0.60659623179E+02  0.31872637648E+02  0.14275497262E+03  0.12508773045E+03 0.  0.
         23    2    1    2    0    0  0.60487176272E+01 -0.60659623179E+02 -0.12423123426E+02  0.12127078368E+03  0.10409655187E+03 0.  0.
          5    1    3    3  502    0  0.23994863664E+01  0.94431226028E+02  0.45756918798E+02  0.10504371472E+03  0.41800000000E+01 0. -1.
         -5    1    3    3    0  502 -0.84482039936E+01 -0.33771602849E+02 -0.13884281150E+02  0.37711257905E+02  0.41800000000E+01 0. -1.
        -11    1    4    4    0    0  0.43050425448E+02 -0.69290940247E+02 -0.94943972816E+00  0.81581094424E+02  0.00000000000E+00 0. -1.
         11    1    4    4    0    0 -0.37001707821E+02  0.86313170682E+01 -0.11473683698E+02  0.39689689260E+02  0.00000000000E+00 0.  1.
</event>
<event>
 8    1  0.6692409E-009  0.1018764E+03  0.7561462E-02  0.1276399E+00
          2   -1    0    0  501    0  0.00000000000E+00  0.00000000000E+00  0.36217334840E+03  0.36217334840E+03  0.00000000000E+00 0. -1.
         -2   -1    0    0    0  501 -0.00000000000E+00 -0.00000000000E+00 -0.42861527299E+02  0.42861527299E+02  0.00000000000E+00 0.  1.
         25    2    1    2    0    0 -0.28505284690E+02  0.27931888845E+01  0.26434521073E+03  0.29384754013E+03  0.12509050022E+03 0.  0.
         23    2    1    2    0    0  0.28505284690E+02 -0.27931888845E+01  0.54966610366E+02  0.11118733557E+03  0.92308949597E+02 0.  0.
          5    1    3    3  502    0 -0.12020689739E+02 -0.55607488361E+02  0.70531227928E+02  0.90712823001E+02  0.41800000000E+01 0. -1.
         -5    1    3    3    0  502 -0.16484594951E+02  0.58400677246E+02  0.19381398281E+03  0.20313471713E+03  0.41800000000E+01 0. -1.
        -11    1    4    4    0    0 -0.48362865841E+00  0.36803767484E+02  0.49679976037E+02  0.61829210061E+02  0.00000000000E+00 0. -1.
         11    1    4    4    0    0  0.28988913349E+02 -0.39596956369E+02  0.52866343291E+01  0.49358125505E+02  0.00000000000E+00 0.  1.
</event>
<event>
 8    1  0.6692409E-009  0.1039012E+03  0.7561462E-02  0.1272300E+00
          2   -1    0    0  501    0  0.00000000000E+00  0.00000000000E+00  0.14981207811E+03  0.14981207811E+03  0.00000000000E+00 0. -1.
         -2   -1    0    0    0  501 -0.00000000000E+00 -0.00000000000E+00 -0.95230812576E+02  0.95230812576E+02  0.00000000000E+00 0.  1.
         25    2    1    2    0    0  0.75165902652E+01  0.22142360973E+02 -0.13620382683E+02  0.12798286459E+03  0.12508923026E+03 0.  0.
         23    2    1    2    0    0 -0.75165902652E+01 -0.22142360973E+02  0.68201648214E+02  0.11706002609E+03  0.92221481285E+02 0.  0.
          5    1    3    3  502    0  0.29880127494E+02  0.65023784711E+02 -0.28605801068E+02  0.77179523528E+02  0.41800000000E+01 0. -1.
         -5    1    3    3    0  502 -0.22363537229E+02 -0.42881423738E+02  0.14985418384E+02  0.50803341065E+02  0.41800000000E+01 0. -1.
        -11    1    4    4    0    0  0.38575052120E+02 -0.83835927394E+01  0.54029764066E+02  0.66914383194E+02  0.00000000000E+00 0. -1.
         11    1    4    4    0    0 -0.46091642385E+02 -0.13758768234E+02  0.14171884148E+02  0.50145642895E+02  0.00000000000E+00 0.  1.
</event>
<event>
 8    1  0.6692409E-009  0.1239141E+03  0.7561462E-02  0.1236776E+00
          4   -1    0    0  501    0  0.00000000000E+00  0.00000000000E+00  0.61725382000E+03  0.61725382000E+03  0.00000000000E+00 0. -1.
         -4   -1    0    0    0  501 -0.00000000000E+00 -0.00000000000E+00 -0.29007675703E+02  0.29007675703E+02  0.00000000000E+00 0.  1.
         25    2    1    2    0    0 -0.61836434279E+02 -0.43341890150E+02  0.36050232193E+03  0.38898657712E+03  0.12508544688E+03 0.  0.
         23    2    1    2    0    0  0.61836434279E+02  0.43341890150E+02  0.22774382237E+03  0.25727491858E+03  0.92848645959E+02 0.  0.
          5    1    3    3  502    0  0.29263893095E+02 -0.65238175346E+01  0.18797160406E+03  0.19039362376E+03  0.41800000000E+01 0.  1.
         -5    1    3    3    0  502 -0.91100327374E+02 -0.36818072616E+02  0.17253071787E+03  0.19859295337E+03  0.41800000000E+01 0.  1.
        -11    1    4    4    0    0 -0.20532363037E+02 -0.81255061548E+01  0.33865553944E+02  0.40428672079E+02  0.00000000000E+00 0.  1.
         11    1    4    4    0    0  0.82368797315E+02  0.51467396305E+02  0.19387826842E+03  0.21684624650E+03  0.00000000000E+00 0. -1.
</event>
<event>
 7    1  0.6692409E-009  0.1966606E+03  0.7561462E-02  0.1152587E+00
         -2   -1    0    0    0  501 -0.00000000000E+00  0.00000000000E+00  0.44903735759E+03  0.44903735759E+03  0.00000000000E+00 0.  1.
          2   -1    0    0  501    0  0.00000000000E+00 -0.00000000000E+00 -0.10008214020E+03  0.10008214020E+03  0.00000000000E+00 0. -1.
         23    2    1    2    0    0  0.16958216414E+03 -0.90259122802E+01  0.83856332004E+02  0.21052850306E+03  0.91928171386E+02 0.  0.
          5    1    1    2  502    0 -0.16906729439E+03 -0.26805787340E+02  0.23923716915E+03  0.29420094455E+03  0.41800000000E+01 0. -1.
         -5    1    1    2    0  502 -0.51486975082E+00  0.35831699620E+02  0.25861716240E+02  0.44390050185E+02  0.41800000000E+01 0. -1.
        -11    1    3    3    0    0  0.66359853929E+02 -0.40936165432E+02  0.77133395313E+01  0.78351103760E+02  0.00000000000E+00 0. -1.
         11    1    3    3    0    0  0.10322231021E+03  0.31910253152E+02  0.76142992473E+02  0.13217739930E+03  0.00000000000E+00 0.  1.
</event>
<event>
 8    1  0.6692409E-009  0.9505553E+02  0.7561462E-02  0.1291051E+00
         -1   -1    0    0    0  501 -0.00000000000E+00  0.00000000000E+00  0.10657324314E+03  0.10657324314E+03  0.00000000000E+00 0.  1.
          1   -1    0    0  501    0  0.00000000000E+00 -0.00000000000E+00 -0.15658818578E+03  0.15658818578E+03  0.00000000000E+00 0. -1.
         25    2    1    2    0    0 -0.11036953240E+02  0.64337823373E+01 -0.97574557822E+02  0.15916066865E+03  0.12509243070E+03 0.  0.
         23    2    1    2    0    0  0.11036953240E+02 -0.64337823373E+01  0.47559615184E+02  0.10400076028E+03  0.91602583205E+02 0.  0.
          5    1    3    3  502    0  0.16703941022E+02  0.54626972440E+02 -0.84167836857E+02  0.10180778421E+03  0.41800000000E+01 0. -1.
         -5    1    3    3    0  502 -0.27740894262E+02 -0.48193190103E+02 -0.13406720965E+02  0.57352884442E+02  0.41800000000E+01 0. -1.
        -11    1    4    4    0    0  0.36135272421E+02  0.19432589628E+02  0.53553926887E+02  0.67464112961E+02  0.00000000000E+00 0.  1.
         11    1    4    4    0    0 -0.25098319181E+02 -0.25866371965E+02 -0.59943117033E+01  0.36536647317E+02  0.00000000000E+00 0. -1.
</event>
<event>
 8    1  0.6692409E-009  0.7573809E+02  0.7561462E-02  0.1341601E+00
         -1   -1    0    0    0  501 -0.00000000000E+00  0.00000000000E+00  0.44766287028E+02  0.44766287028E+02  0.00000000000E+00 0.  1.
          1   -1    0    0  501    0  0.00000000000E+00 -0.00000000000E+00 -0.38415581427E+03  0.38415581427E+03  0.00000000000E+00 0. -1.
         25    2    1    2    0    0  0.31377689838E+02 -0.25612055303E+02 -0.28885999879E+03  0.31737702569E+03  0.12509013045E+03 0.  0.
         23    2    1    2    0    0 -0.31377689838E+02  0.25612055303E+02 -0.50529528451E+02  0.11154507561E+03  0.90821439382E+02 0.  0.
          5    1    3    3  502    0  0.63686346615E+02 -0.20670886375E+02 -0.73511005621E+02  0.99521739515E+02  0.41800000000E+01 0. -1.
         -5    1    3    3    0  502 -0.32308656778E+02 -0.49411689281E+01 -0.21534899317E+03  0.21785528617E+03  0.41800000000E+01 0. -1.
        -11    1    4    4    0    0 -0.30693191555E+02  0.53394354687E+01  0.20752447475E+02  0.37433215935E+02  0.00000000000E+00 0.  1.
         11    1    4    4    0    0 -0.68449828208E+00  0.20272619834E+02 -0.71281975927E+02  0.74111859677E+02  0.00000000000E+00 0. -1.
</event>
<event>
 8    1  0.6692409E-009  0.8833438E+02  0.7561462E-02  0.1306936E+00
          2   -1    0    0  501    0  0.00000000000E+00  0.00000000000E+00  0.10346754274E+04  0.10346754274E+04  0.00000000000E+00 0. -1.
         -2   -1    0    0    0  501 -0.00000000000E+00 -0.00000000000E+00 -0.18862610213E+02  0.18862610213E+02  0.00000000000E+00 0.  1.
         25    2    1    2    0    0 -0.57068935271E+02 -0.29259176428E+02  0.77492839514E+03  0.78757514659E+03  0.12509049180E+03 0.  0.
         23    2    1    2    0    0  0.57068935271E+02  0.29259176428E+02  0.24088442203E+03  0.26596289101E+03  0.92725357060E+02 0.  0.
          5    1    3    3  502    0 -0.37706793412E+02 -0.17241339670E+02  0.75734246164E+03  0.75848806363E+03  0.41800000000E+01 0.  1.
         -5    1    3    3    0  502 -0.19362141859E+02 -0.12017836758E+02  0.17585933503E+02  0.29087082956E+02  0.41800000000E+01 0.  1.
        -11    1    4    4    0    0 -0.20727261926E+02 -0.11811321575E+02  0.38598533221E+02  0.45375912896E+02  0.00000000000E+00 0.  1.
         11    1    4    4    0    0  0.77796197197E+02  0.41070498002E+02  0.20228588881E+03  0.22058697812E+03  0.00000000000E+00 0. -1.
</event>
<event>
 8    1  0.6692409E-009  0.1434461E+03  0.7561462E-02  0.1208766E+00
         -2   -1    0    0    0  501 -0.00000000000E+00  0.00000000000E+00  0.12270501916E+02  0.12270501916E+02  0.00000000000E+00 0.  1.
          2   -1    0    0  501    0  0.00000000000E+00 -0.00000000000E+00 -0.19540366690E+04  0.19540366690E+04  0.00000000000E+00 0. -1.
         25    2    1    2    0    0 -0.80920659885E+02 -0.64905840831E+02 -0.13517294821E+04  0.13614628638E+04  0.12509042854E+03 0.  0.
         23    2    1    2    0    0  0.80920659885E+02  0.64905840831E+02 -0.59003668502E+03  0.60484430717E+03  0.83261184686E+02 0.  0.
          5    1    3    3  502    0 -0.57669598567E+02  0.28282524497E+02 -0.64987606551E+03  0.65305593689E+03  0.41800000000E+01 0.  1.
         -5    1    3    3    0  502 -0.23251061318E+02 -0.93188365328E+02 -0.70185341657E+03  0.70840692687E+03  0.41800000000E+01 0.  1.
        -11    1    4    4    0    0  0.85477892785E+02  0.29102098262E+02 -0.49533528686E+03  0.50349821120E+03  0.00000000000E+00 0.  1.
         11    1    4    4    0    0 -0.45572328996E+01  0.35803742569E+02 -0.94701398160E+02  0.10134609596E+03  0.00000000000E+00 0. -1.
</event>
<event>
 8    1  0.6692409E-009  0.1131254E+03  0.7561462E-02  0.1254889E+00
         -2   -1    0    0    0  501 -0.00000000000E+00  0.00000000000E+00  0.20016753542E+02  0.20016753542E+02  0.00000000000E+00 0.  1.
          2   -1    0    0  501    0  0.00000000000E+00 -0.00000000000E+00 -0.65730448305E+03  0.65730448305E+03  0.00000000000E+00 0. -1.
         25    2    1    2    0    0 -0.65931616191E+01  0.34186687231E+02 -0.40467858902E+03  0.42499881716E+03  0.12508810818E+03 0.  0.
         23    2    1    2    0    0  0.65931616191E+01 -0.34186687231E+02 -0.23260914049E+03  0.25232241943E+03  0.91364061576E+02 0.  0.
          5    1    3    3  502    0 -0.65191532783E+02  0.23799516367E+02 -0.23895676986E+03  0.24886575335E+03  0.41800000000E+01 0. -1.
         -5    1    3    3    0  502  0.58598371164E+02  0.10387170864E+02 -0.16572181916E+03  0.17613306381E+03  0.41800000000E+01 0. -1.
        -11    1    4    4    0    0 -0.27402952752E+02 -0.51931446424E+02 -0.15516810224E+03  0.16590641006E+03  0.00000000000E+00 0. -1.
         11    1    4    4    0    0  0.33996114371E+02  0.17744759193E+02 -0.77441038247E+02  0.86416009373E+02  0.00000000000E+00 0.  1.
</event>
<event>
 8    1  0.6692409E-009  0.8899314E+02  0.7561462E-02  0.1305308E+00
         -1   -1    0    0    0  501 -0.00000000000E+00  0.00000000000E+00  0.22028748436E+02  0.22028748436E+02  0.00000000000E+00 0.  1.
          1   -1    0    0  501    0  0.00000000000E+00 -0.00000000000E+00 -0.57107683162E+03  0.57107683162E+03  0.00000000000E+00 0. -1.
         25    2    1    2    0    0  0.23236622249E+02 -0.17711728331E+01 -0.36332340981E+03  0.38495852603E+03  0.12508432749E+03 0.  0.
         23    2    1    2    0    0 -0.23236622249E+02  0.17711728331E+01 -0.18572467338E+03  0.20814705402E+03  0.91041002471E+02 0.  0.
          5    1    3    3  502    0 -0.12850957176E+02  0.55523569272E+02 -0.20257458606E+03  0.21048028212E+03  0.41800000000E+01 0. -1.
         -5    1    3    3    0  502  0.36087579425E+02 -0.57294742105E+02 -0.16074882375E+03  0.17447824391E+03  0.41800000000E+01 0. -1.
        -11    1    4    4    0    0 -0.37825626701E+02 -0.21716128496E+01 -0.18893581297E+03  0.19269726350E+03  0.00000000000E+00 0. -1.
         11    1    4    4    0    0  0.14589004452E+02  0.39427856827E+01  0.32111395902E+01  0.15449790526E+02  0.00000000000E+00 0.  1.
</event>
<event>
 8    1  0.6692409E-009  0.8674033E+02  0.7561462E-02  0.1310943E+00
          2   -1    0    0  501    0  0.00000000000E+00  0.00000000000E+00  0.71133979696E+03  0.71133979696E+03  0.00000000000E+00 0. -1.
         -2   -1    0    0    0  501 -0.00000000000E+00 -0.00000000000E+00 -0.24367493833E+02  0.24367493833E+02  0.00000000000E+00 0.  1.
         25    2    1    2    0    0 -0.24810960666E+02 -0.97756880739E+01  0.57629189865E+03  0.59031460116E+03  0.12509127887E+03 0.  0.
         23    2    1    2    0    0  0.24810960666E+02  0.97756880739E+01  0.11068040448E+03  0.14539268964E+03  0.90430826695E+02 0.  0.
          5    1    3    3  502    0 -0.46027000292E+02  0.36134446846E+02  0.45597198767E+03  0.45973047424E+03  0.41800000000E+01 0.  1.
         -5    1    3    3    0  502  0.21216039626E+02 -0.45910134920E+02  0.12031991097E+03  0.13058412692E+03  0.41800000000E+01 0.  1.
        -11    1    4    4    0    0  0.22523182741E+02 -0.22426287626E+02  0.18088456786E+01  0.31835578528E+02  0.00000000000E+00 0.  1.
         11    1    4    4    0    0  0.22877779247E+01  0.32201975700E+02  0.10887155881E+03  0.11355711111E+03  0.00000000000E+00 0. -1.
</event>
<event>
 8    1  0.6692409E-009  0.8041488E+02  0.7561462E-02  0.1327878E+00
          1   -1    0    0  501    0  0.00000000000E+00  0.00000000000E+00  0.21929482515E+03  0.21929482515E+03  0.00000000000E+00 0. -1.
         -1   -1    0    0    0  501 -0.00000000000E+00 -0.00000000000E+00 -0.60335308855E+02  0.60335308855E+02  0.00000000000E+00 0.  1.
         25    2    1    2    0    0 -0.18976014171E+02 -0.33135473304E+02  0.10407434110E+03  0.16714434236E+03  0.12509082302E+03 0.  0.
         23    2    1    2    0    0  0.18976014171E+02  0.33135473304E+02  0.54885175193E+02  0.11248579164E+03  0.90457847417E+02 0.  0.
          5    1    3    3  502    0  0.15199818063E+02 -0.72022759588E+00 -0.25065136648E+02  0.29619025509E+02  0.41800000000E+01 0. -1.
         -5    1    3    3    0  502 -0.34175832234E+02 -0.32415245709E+02  0.12913947775E+03  0.13752531685E+03  0.41800000000E+01 0. -1.
        -11    1    4    4    0    0 -0.23731208515E+02 -0.18975693817E+02  0.12299446458E+02  0.32779926733E+02  0.00000000000E+00 0.  1.
         11    1    4    4    0    0  0.42707222686E+02  0.52111167122E+02  0.42585728735E+02  0.79705864905E+02  0.00000000000E+00 0. -1.
</event>
<event>
 8    1  0.6692409E-009  0.1061183E+03  0.7561462E-02  0.1267932E+00
         -1   -1    0    0    0  501 -0.00000000000E+00  0.00000000000E+00  0.25851465809E+02  0.25851465809E+02  0.00000000000E+00 0.  1.
          1   -1    0    0  501    0  0.00000000000E+00 -0.00000000000E+00 -0.87042248105E+03  0.87042248105E+03  0.00000000000E+00 0. -1.
         25    2    1    2    0    0  0.36225701035E+02  0.15597791926E+02 -0.70302117124E+03  0.71515142658E+03  0.12508878124E+03 0.  0.
         23    2    1    2    0    0 -0.36225701035E+02 -0.15597791926E+02 -0.14154984400E+03  0.18112252028E+03  0.10589342042E+03 0.  0.
          5    1    3    3  502    0 -0.35161592860E+02 -0.25480448848E+00 -0.45927234624E+03  0.46063539048E+03  0.41800000000E+01 0.  1.
         -5    1    3    3    0  502  0.71387293895E+02  0.15852596415E+02 -0.24374882500E+03  0.25451603610E+03  0.41800000000E+01 0.  1.
        -11    1    4    4    0    0 -0.63176676594E+02 -0.33221660162E+02 -0.59314816015E+02  0.92807427333E+02  0.00000000000E+00 0.  1.
         11    1    4    4    0    0  0.26950975558E+02  0.17623868236E+02 -0.82235027985E+02  0.88315092951E+02  0.00000000000E+00 0. -1.
</event>
<event>
 8    1  0.6692409E-009  0.1261095E+03  0.7561462E-02  0.1233345E+00
         -1   -1    0    0    0  501 -0.00000000000E+00  0.00000000000E+00  0.14308971774E+04  0.14308971774E+04  0.00000000000E+00 0.  1.
          1   -1    0    0  501    0  0.00000000000E+00 -0.00000000000E+00 -0.15868041215E+02  0.15868041215E+02  0.00000000000E+00 0. -1.
         25    2    1    2    0    0  0.90414008467E+02 -0.93710085229E+01  0.10090527623E+04  0.10208320777E+04  0.12509254551E+03 0.  0.
         23    2    1    2    0    0 -0.90414008467E+02  0.93710085229E+01  0.40597637383E+03  0.42593314090E+03  0.91322043794E+02 0.  0.
          5    1    3    3  502    0  0.69278911744E+02  0.33636053225E+02  0.87532607538E+03  0.87871733927E+03  0.41800000000E+01 0. -1.
         -5    1    3    3    0  502  0.21135096724E+02 -0.43007061748E+02  0.13372668696E+03  0.14211473843E+03  0.41800000000E+01 0. -1.
        -11    1    4    4    0    0  0.10696001966E+02  0.22615683092E+02  0.11240602990E+03  0.11515636821E+03  0.00000000000E+00 0.  1.
         11    1    4    4    0    0 -0.10111001043E+03 -0.13244674569E+02  0.29357034393E+03  0.31077677270E+03  0.00000000000E+00 0. -1.
</event>
<event>
 8    1  0.6692409E-009  0.9772719E+02  0.7561462E-02  0.1285149E+00
          1   -1    0    0  501    0  0.00000000000E+00  0.00000000000E+00  0.84924260936E+03  0.84924260936E+03  0.00000000000E+00 0. -1.
         -1   -1    0    0    0  501 -0.00000000000E+00 -0.00000000000E+00 -0.20140808079E+02  0.20140808079E+02  0.00000000000E+00 0.  1.
         25    2    1    2    0    0 -0.15166347925E+02 -0.69996771403E+02  0.52899902703E+03  0.54828562847E+03  0.12509034206E+03 0.  0.
         23    2    1    2    0    0  0.15166347925E+02  0.69996771403E+02  0.30010277425E+03  0.32109778896E+03  0.88952508944E+02 0.  0.
          5    1    3    3  502    0 -0.28285419501E+02 -0.33585699529E+02  0.49391646264E+03  0.49588205113E+03  0.41800000000E+01 0.  1.
         -5    1    3    3    0  502  0.13119071576E+02 -0.36411071873E+02  0.35082564388E+02  0.52403577340E+02  0.41800000000E+01 0.  1.
        -11    1    4    4    0    0  0.50556843669E+02  0.52693433181E+02  0.22055800488E+03  0.23233257598E+03  0.00000000000E+00 0.  1.
         11    1    4    4    0    0 -0.35390495744E+02  0.17303338221E+02  0.79544769368E+02  0.88765212985E+02  0.00000000000E+00 0. -1.
</event>
<event>
 8    1  0.6692409E-009  0.1230659E+03  0.7561462E-02  0.1238123E+00
         -2   -1    0    0    0  501 -0.00000000000E+00  0.00000000000E+00  0.44664656350E+02  0.44664656350E+02  0.00000000000E+00 0.  1.
          2   -1    0    0  501    0  0.00000000000E+00 -0.00000000000E+00 -0.36994347448E+03  0.36994347448E+03  0.00000000000E+00 0. -1.
         25    2    1    2    0    0  0.38772514582E+02  0.54563313732E+02 -0.20976800144E+03  0.25322680120E+03  0.12506292546E+03 0.  0.
         23    2    1    2    0    0 -0.38772514582E+02 -0.54563313732E+02 -0.11551081669E+03  0.16138132963E+03  0.90668195579E+02 0.  0.
          5    1    3    3  502    0  0.19534013265E+02  0.94888850522E+02 -0.14445706853E+03  0.17398502428E+03  0.41800000000E+01 0. -1.
         -5    1    3    3    0  502  0.19238501318E+02 -0.40325536790E+02 -0.65310932912E+02  0.79241776912E+02  0.41800000000E+01 0. -1.
        -11    1    4    4    0    0  0.24950940616E+02 -0.12250512547E+02 -0.62247641381E+02  0.68171792941E+02  0.00000000000E+00 0.  1.
         11    1    4    4    0    0 -0.63723455198E+02 -0.42312801185E+02 -0.53263175310E+02  0.93209536693E+02  0.00000000000E+00 0. -1.
</event>
<event>
 8    1  0.6692409E-009  0.6977876E+02  0.7561462E-02  0.1360847E+00
          1   -1    0    0  501    0  0.00000000000E+00  0.00000000000E+00  0.12189745458E+03  0.12189745458E+03  0.00000000000E+00 0. -1.
         -1   -1    0    0    0  501 -0.00000000000E+00 -0.00000000000E+00 -0.11278095271E+03  0.11278095271E+03  0.00000000000E+00 0.  1.
         25    2    1    2    0    0 -0.21013713632E+02  0.21811127904E+02 -0.33694614737E+02  0.13303984869E+03  0.12508786038E+03 0.  0.
         23    2    1    2    0    0  0.21013713632E+02 -0.21811127904E+02  0.42811116598E+02  0.10163855860E+03  0.87064938004E+02 0.  0.
          5    1    3    3  502    0  0.28521220536E+02  0.94284731904E+01 -0.65888774115E+02  0.72533847837E+02  0.41800000000E+01 0. -1.
         -5    1    3    3    0  502 -0.49534934169E+02  0.12382654714E+02  0.32194159378E+02  0.60506000851E+02  0.41800000000E+01 0. -1.
        -11    1    4    4    0    0  0.11910686058E+01  0.15608064934E+02  0.55313736473E+02  0.57485996365E+02  0.00000000000E+00 0. -1.
         11    1    4    4    0    0  0.19822645027E+02 -0.37419192838E+02 -0.12502619876E+02  0.44152562239E+02  0.00000000000E+00 0.  1.
</event>
<event>
 8    1  0.6692409E-009  0.1096244E+03  0.7561462E-02  0.1261267E+00
         -2   -1    0    0    0  501 -0.00000000000E+00  0.00000000000E+00  0.33685546869E+02  0.33685546869E+02  0.00000000000E+00 0. -1.
          2   -1    0    0  501    0  0.00000000000E+00 -0.00000000000E+00 -0.63150432927E+03  0.63150432927E+03  0.00000000000E+00 0.  1.
         25    2    1    2    0    0  0.51700325176E+02 -0.65532051698E+02 -0.44312972507E+03  0.46795063793E+03  0.12508586201E+03 0.  0.
         23    2    1    2    0    0 -0.51700325176E+02  0.65532051698E+02 -0.15468905733E+03  0.19723923820E+03  0.89483178350E+02 0.  0.
          5    1    3    3  502    0  0.59481427091E+02 -0.74515204427E+02 -0.44508481275E+03  0.45520162434E+03  0.41800000000E+01 0.  1.
         -5    1    3    3    0  502 -0.77811019146E+01  0.89831527288E+01  0.19550876720E+01  0.12749013599E+02  0.41800000000E+01 0.  1.
        -11    1    4    4    0    0 -0.65456981008E+02  0.70856214295E+02 -0.15490689798E+03  0.18248662008E+03  0.00000000000E+00 0.  1.
         11    1    4    4    0    0  0.13756655832E+02 -0.53241625969E+01  0.21784064840E+00  0.14752618127E+02  0.00000000000E+00 0. -1.
</event>
<event>
 8    1  0.6692409E-009  0.1754600E+03  0.7561462E-02  0.1172271E+00
         -2   -1    0    0    0  501 -0.00000000000E+00  0.00000000000E+00  0.51255123998E+02  0.51255123998E+02  0.00000000000E+00 0.  1.
          2   -1    0    0  501    0  0.00000000000E+00 -0.00000000000E+00 -0.70752357480E+03  0.70752357480E+03  0.00000000000E+00 0. -1.
         25    2    1    2    0    0  0.14729727297E+03  0.21475576740E+01 -0.44195186530E+03  0.48235926162E+03  0.12509159604E+03 0.  0.
         23    2    1    2    0    0 -0.14729727297E+03 -0.21475576740E+01 -0.21431658550E+03  0.27641943718E+03  0.93675011610E+02 0.  0.
          5    1    3    3  502    0  0.19860092870E+02 -0.44627877051E+02 -0.63154804300E+02  0.79950437179E+02  0.41800000000E+01 0.  1.
         -5    1    3    3    0  502  0.12743718010E+03  0.46775434725E+02 -0.37879706100E+03  0.40240882444E+03  0.41800000000E+01 0.  1.
        -11    1    4    4    0    0 -0.39815045466E+02  0.34334116006E+02 -0.11148783411E+03  0.12326234836E+03  0.00000000000E+00 0.  1.
         11    1    4    4    0    0 -0.10748222750E+03 -0.36481673680E+02 -0.10282875139E+03  0.15315708882E+03  0.00000000000E+00 0. -1.
</event>
<event>
 8    1  0.6692409E-009  0.2395920E+03  0.7561462E-02  0.1120065E+00
         -2   -1    0    0    0  501 -0.00000000000E+00  0.00000000000E+00  0.40970391329E+02  0.40970391329E+02  0.00000000000E+00 0.  1.
          2   -1    0    0  501    0  0.00000000000E+00 -0.00000000000E+00 -0.14071017459E+04  0.14071017459E+04  0.00000000000E+00 0. -1.
         25    2    1    2    0    0 -0.10610052552E+03 -0.18534221282E+03 -0.74230107879E+03  0.78247507183E+03  0.12508912462E+03 0.  0.
         23    2    1    2    0    0  0.10610052552E+03  0.18534221282E+03 -0.62383027579E+03  0.66559706541E+03  0.90808496940E+02 0.  0.
          5    1    3    3  502    0 -0.19516760678E+02  0.17586401985E+02 -0.69921153442E+02  0.74810598052E+02  0.41800000000E+01 0. -1.
         -5    1    3    3    0  502 -0.86583764841E+02 -0.20292861480E+03 -0.67237992534E+03  0.70766447378E+03  0.41800000000E+01 0. -1.
        -11    1    4    4    0    0 -0.16029215771E+02  0.32782580664E+02 -0.10724092671E+03  0.11327952028E+03  0.00000000000E+00 0.  1.
         11    1    4    4    0    0  0.12212974129E+03  0.15255963216E+03 -0.51658934908E+03  0.55231754512E+03  0.00000000000E+00 0. -1.
</event>
<event>
 8    1  0.6692409E-009  0.4245379E+03  0.7561462E-02  0.1035599E+00
         -1   -1    0    0    0  501 -0.00000000000E+00  0.00000000000E+00  0.48953693168E+03  0.48953693168E+03  0.00000000000E+00 0.  1.
          1   -1    0    0  501    0  0.00000000000E+00 -0.00000000000E+00 -0.57443892954E+03  0.57443892954E+03  0.00000000000E+00 0. -1.
         25    2    1    2    0    0 -0.30375542702E+03  0.28591224388E+03 -0.35253658887E+03  0.56030617554E+03  0.12509113959E+03 0.  0.
         23    2    1    2    0    0  0.30375542702E+03 -0.28591224388E+03  0.26763459101E+03  0.50366968569E+03  0.89675567067E+02 0.  0.
          5    1    3    3  502    0 -0.21018403202E+03  0.14668373497E+03 -0.27340430138E+03  0.37478104252E+03  0.41800000000E+01 0.  1.
         -5    1    3    3    0  502 -0.93571395006E+02  0.13922850891E+03 -0.79132287493E+02  0.18552513302E+03  0.41800000000E+01 0.  1.
        -11    1    4    4    0    0  0.26597059002E+03 -0.28085983831E+03  0.22960709760E+03  0.44982443553E+03  0.00000000000E+00 0.  1.
         11    1    4    4    0    0  0.37784837002E+02 -0.50524055698E+01  0.38027493417E+02  0.53845250161E+02  0.00000000000E+00 0. -1.
</event>
<event>
 8    1  0.6692409E-009  0.3098422E+03  0.7561462E-02  0.1080422E+00
         -2   -1    0    0    0  501 -0.00000000000E+00  0.00000000000E+00  0.46270357215E+02  0.46270357215E+02  0.00000000000E+00 0.  1.
          2   -1    0    0  501    0  0.00000000000E+00 -0.00000000000E+00 -0.23040836128E+04  0.23040836128E+04  0.00000000000E+00 0. -1.
         25    2    1    2    0    0  0.14897397213E+03 -0.26909255987E+03 -0.11640530141E+04  0.12104842962E+04  0.12509500991E+03 0.  0.
         23    2    1    2    0    0 -0.14897397213E+03  0.26909255987E+03 -0.10937602415E+04  0.11398696738E+04  0.91582516504E+02 0.  0.
          5    1    3    3  502    0  0.14423344226E+03 -0.25888677735E+03 -0.11608100068E+04  0.11980496624E+04  0.41800000000E+01 0.  1.
         -5    1    3    3    0  502  0.47405298703E+01 -0.10205782526E+02 -0.32430073139E+01  0.12434633765E+02  0.41800000000E+01 0.  1.
        -11    1    4    4    0    0 -0.10835779775E+03  0.23298886504E+03 -0.77434923656E+03  0.81586883978E+03  0.00000000000E+00 0.  1.
         11    1    4    4    0    0 -0.40616174381E+02  0.36103694834E+02 -0.31941100491E+03  0.32400083404E+03  0.00000000000E+00 0. -1.
</event>
<event>
 8    1  0.6692409E-009  0.9633507E+02  0.7561462E-02  0.1288197E+00
          1   -1    0    0  501    0  0.00000000000E+00  0.00000000000E+00  0.59004253159E+03  0.59004253159E+03  0.00000000000E+00 0. -1.
         -1   -1    0    0    0  501 -0.00000000000E+00 -0.00000000000E+00 -0.23995985826E+02  0.23995985826E+02  0.00000000000E+00 0.  1.
         25    2    1    2    0    0  0.19361354099E+02 -0.44770817812E+02  0.32069140559E+03  0.34766206455E+03  0.12508655143E+03 0.  0.
         23    2    1    2    0    0 -0.19361354099E+02  0.44770817812E+02  0.24535514018E+03  0.26637645287E+03  0.91531315243E+02 0.  0.
          5    1    3    3  502    0  0.48134140364E+02 -0.18835319413E+02  0.43327946390E+02  0.67575498994E+02  0.41800000000E+01 0. -1.
         -5    1    3    3    0  502 -0.28772786265E+02 -0.25935498399E+02  0.27736345920E+03  0.28008656556E+03  0.41800000000E+01 0. -1.
        -11    1    4    4    0    0 -0.33175643096E+02 -0.17886165761E+02  0.11624395912E+03  0.12220145765E+03  0.00000000000E+00 0.  1.
         11    1    4    4    0    0  0.13814288997E+02  0.62656983573E+02  0.12911118106E+03  0.14417499522E+03  0.00000000000E+00 0. -1.
</event>
<event>
 7    1  0.6692409E-009  0.1236079E+03  0.7561462E-02  0.1237261E+00
         -2   -1    0    0    0  501 -0.00000000000E+00  0.00000000000E+00  0.81140991570E+02  0.81140991570E+02  0.00000000000E+00 0.  1.
          2   -1    0    0  501    0  0.00000000000E+00 -0.00000000000E+00 -0.23301335506E+03  0.23301335506E+03  0.00000000000E+00 0. -1.
         23    2    1    2    0    0 -0.38425837512E+02  0.79346645564E+02 -0.83234113532E+02  0.14634554368E+03  0.81955264313E+02 0.  0.
          5    1    1    2  502    0  0.55429301297E+02 -0.54861046685E+01  0.11927872348E+02  0.57116121415E+02  0.41800000000E+01 0. -1.
         -5    1    1    2    0  502 -0.17003463785E+02 -0.73860540896E+02 -0.80566122305E+02  0.11069268153E+03  0.41800000000E+01 0. -1.
        -11    1    3    3    0    0  0.22502432324E+02  0.26796750186E+02 -0.73684671700E+01  0.35759188882E+02  0.00000000000E+00 0.  1.
         11    1    3    3    0    0 -0.60928269837E+02  0.52549895378E+02 -0.75865646362E+02  0.11058635480E+03  0.00000000000E+00 0. -1.
</event>
<event>
 8    1  0.6692409E-009  0.1060032E+03  0.7561462E-02  0.1268156E+00
          2   -1    0    0  501    0  0.00000000000E+00  0.00000000000E+00  0.16503669673E+03  0.16503669673E+03  0.00000000000E+00 0. -1.
         -2   -1    0    0    0  501 -0.00000000000E+00 -0.00000000000E+00 -0.95997528160E+02  0.95997528160E+02  0.00000000000E+00 0.  1.
         25    2    1    2    0    0  0.44913473566E+02 -0.17992783377E+01 -0.12658375608E+02  0.13350188409E+03  0.12506822567E+03 0.  0.
         23    2    1    2    0    0 -0.44913473566E+02  0.17992783377E+01  0.81697544181E+02  0.12753234080E+03  0.87003170720E+02 0.  0.
          5    1    3    3  502    0 -0.30492054526E+02  0.32311384020E+02  0.13471060882E+02  0.46612582076E+02  0.41800000000E+01 0. -1.
         -5    1    3    3    0  502  0.75405528091E+02 -0.34110662358E+02 -0.26129436489E+02  0.86889302014E+02  0.41800000000E+01 0. -1.
        -11    1    4    4    0    0  0.11939502096E+01 -0.29027554647E+02  0.32300110193E+00  0.29053894327E+02  0.00000000000E+00 0.  1.
         11    1    4    4    0    0 -0.46107423775E+02  0.30826832984E+02  0.81374543080E+02  0.98478446477E+02  0.00000000000E+00 0. -1.
</event>
<event>
 8    1  0.6692409E-009  0.9458602E+02  0.7561462E-02  0.1292111E+00
         -2   -1    0    0    0  501 -0.00000000000E+00  0.00000000000E+00  0.30623919224E+03  0.30623919224E+03  0.00000000000E+00 0. -1.
          2   -1    0    0  501    0  0.00000000000E+00 -0.00000000000E+00 -0.49996919610E+02  0.49996919610E+02  0.00000000000E+00 0.  1.
         25    2    1    2    0    0  0.23480268904E+02 -0.35925023278E+02  0.85998662395E+02  0.15775044297E+03  0.12508997561E+03 0.  0.
         23    2    1    2    0    0 -0.23480268904E+02  0.35925023278E+02  0.17024361024E+03  0.19848566888E+03  0.92583711303E+02 0.  0.
          5    1    3    3  502    0  0.64252734155E+01  0.32156067776E+02  0.80739683810E+02  0.87244861024E+02  0.41800000000E+01 0. -1.
         -5    1    3    3    0  502  0.17054995489E+02 -0.68081091054E+02  0.52589785851E+01  0.70505581949E+02  0.41800000000E+01 0. -1.
        -11    1    4    4    0    0 -0.98610015268E+01 -0.23159759495E+02  0.98789176057E+01  0.27040836231E+02  0.00000000000E+00 0.  1.
         11    1    4    4    0    0 -0.13619267377E+02  0.59084782773E+02  0.16036469263E+03  0.17144483265E+03  0.00000000000E+00 0. -1.
</event>
<event>
 8    1  0.6692409E-009  0.1546485E+03  0.7561462E-02  0.1194875E+00
         -1   -1    0    0    0  501 -0.00000000000E+00  0.00000000000E+00  0.13969167907E+03  0.13969167907E+03  0.00000000000E+00 0.  1.
          1   -1    0    0  501    0  0.00000000000E+00 -0.00000000000E+00 -0.24349718011E+03  0.24349718011E+03  0.00000000000E+00 0. -1.
         25    2    1    2    0    0 -0.97785963609E+02 -0.81354439349E+02 -0.13704309875E+03  0.22496414173E+03  0.12508962655E+03 0.  0.
         23    2    1    2    0    0  0.97785963609E+02  0.81354439349E+02  0.33237597704E+02  0.15822471744E+03  0.88032288551E+02 0.  0.
          5    1    3    3  502    0  0.12056682529E+02  0.18548631856E+02 -0.44733594252E+02  0.50079758306E+02  0.41800000000E+01 0.  1.
         -5    1    3    3    0  502 -0.10984264614E+03 -0.99903071205E+02 -0.92309504494E+02  0.17488438343E+03  0.41800000000E+01 0.  1.
        -11    1    4    4    0    0  0.84926197392E+02  0.38030107580E+02  0.54972250356E+02  0.10807727048E+03  0.00000000000E+00 0.  1.
         11    1    4    4    0    0  0.12859766216E+02  0.43324331769E+02 -0.21734652652E+02  0.50147446957E+02  0.00000000000E+00 0. -1.
</event>
<event>
 8    1  0.6692409E-009  0.1074156E+03  0.7561462E-02  0.1265432E+00
         -1   -1    0    0    0  501 -0.00000000000E+00  0.00000000000E+00  0.95369125047E+02  0.95369125047E+02  0.00000000000E+00 0.  1.
          1   -1    0    0  501    0  0.00000000000E+00 -0.00000000000E+00 -0.15958561133E+03  0.15958561133E+03  0.00000000000E+00 0. -1.
         25    2    1    2    0    0  0.18418284491E+02  0.48894809571E+02 -0.62428884403E+01  0.13569527498E+03  0.12507716973E+03 0.  0.
         23    2    1    2    0    0 -0.18418284491E+02 -0.48894809571E+02 -0.57973597838E+02  0.11925946139E+03  0.90177300243E+02 0.  0.
          5    1    3    3  502    0 -0.41157924790E+02 -0.87064516532E+01  0.22491594157E+02  0.47886545930E+02  0.41800000000E+01 0.  1.
         -5    1    3    3    0  502  0.59576209281E+02  0.57601261224E+02 -0.28734482597E+02  0.87808729048E+02  0.41800000000E+01 0.  1.
        -11    1    4    4    0    0  0.27400233225E+02 -0.28155745988E+02  0.39490993207E+01  0.39485620147E+02  0.00000000000E+00 0.  1.
         11    1    4    4    0    0 -0.45818517716E+02 -0.20739063582E+02 -0.61922697159E+02  0.79773841247E+02  0.00000000000E+00 0. -1.
</event>
<event>
 8    1  0.6692409E-009  0.1410377E+03  0.7561462E-02  0.1211939E+00
         -2   -1    0    0    0  501 -0.00000000000E+00  0.00000000000E+00  0.17554089096E+02  0.17554089096E+02  0.00000000000E+00 0.  1.
          2   -1    0    0  501    0  0.00000000000E+00 -0.00000000000E+00 -0.15011308745E+04  0.15011308745E+04  0.00000000000E+00 0. -1.
         25    2    1    2    0    0 -0.91312775749E+02 -0.43011927907E+02 -0.11015165246E+04  0.11131820927E+04  0.12509064182E+03 0.  0.
         23    2    1    2    0    0  0.91312775749E+02  0.43011927907E+02 -0.38206026081E+03  0.40550287086E+03  0.90964204117E+02 0.  0.
          5    1    3    3  502    0 -0.11324610433E+02 -0.72314913709E+02 -0.42020906697E+03  0.42655694333E+03  0.41800000000E+01 0. -1.
         -5    1    3    3    0  502 -0.79988165316E+02  0.29302985802E+02 -0.68130745759E+03  0.68662514936E+03  0.41800000000E+01 0. -1.
        -11    1    4    4    0    0  0.70247274502E+02 -0.56207471845E+01 -0.29729003741E+03  0.30552845811E+03  0.00000000000E+00 0. -1.
         11    1    4    4    0    0  0.21065501247E+02  0.48632675092E+02 -0.84770223401E+02  0.99974412751E+02  0.00000000000E+00 0.  1.
</event>
<event>
 8    1  0.6692409E-009  0.7896408E+02  0.7561462E-02  0.1332017E+00
          2   -1    0    0  501    0  0.00000000000E+00  0.00000000000E+00  0.45088095428E+03  0.45088095428E+03  0.00000000000E+00 0. -1.
         -2   -1    0    0    0  501 -0.00000000000E+00 -0.00000000000E+00 -0.44225945349E+02  0.44225945349E+02  0.00000000000E+00 0.  1.
         25    2    1    2    0    0 -0.56338661433E+02 -0.94316731064E+01  0.34476060582E+03  0.37117412109E+03  0.12508937449E+03 0.  0.
         23    2    1    2    0    0  0.56338661433E+02  0.94316731064E+01  0.61894403104E+02  0.12393277853E+03  0.90914329069E+02 0.  0.
          5    1    3    3  502    0  0.42142981162E+01 -0.12092396258E+02 -0.63170274831E+01  0.14878292647E+02  0.41800000000E+01 0.  1.
         -5    1    3    3    0  502 -0.60552959550E+02  0.26607231519E+01  0.35107763331E+03  0.35629582844E+03  0.41800000000E+01 0.  1.
        -11    1    4    4    0    0  0.59253385137E+01  0.29018685570E+02 -0.12340229560E+02  0.32085433054E+02  0.00000000000E+00 0.  1.
         11    1    4    4    0    0  0.50413322920E+02 -0.19587012463E+02  0.74234632664E+02  0.91847345481E+02  0.00000000000E+00 0. -1.
</event>
<event>
 8    1  0.6692409E-009  0.8306500E+02  0.7561462E-02  0.1320572E+00
          2   -1    0    0  501    0  0.00000000000E+00  0.00000000000E+00  0.46170143648E+02  0.46170143648E+02  0.00000000000E+00 0. -1.
         -2   -1    0    0    0  501 -0.00000000000E+00 -0.00000000000E+00 -0.31691939563E+03  0.31691939563E+03  0.00000000000E+00 0.  1.
         25    2    1    2    0    0 -0.26529903608E+02  0.27066150024E+02 -0.21173372924E+03  0.24882892745E+03  0.12509296853E+03 0.  0.
         23    2    1    2    0    0  0.26529903608E+02 -0.27066150024E+02 -0.59015522744E+02  0.11426061183E+03  0.90201126534E+02 0.  0.
          5    1    3    3  502    0 -0.11162308848E+02  0.75913350723E+02 -0.14979200855E+03  0.16835246414E+03  0.41800000000E+01 0.  1.
         -5    1    3    3    0  502 -0.15367594760E+02 -0.48847200700E+02 -0.61941720688E+02  0.80476463309E+02  0.41800000000E+01 0.  1.
        -11    1    4    4    0    0  0.94142804992E+01 -0.90525076173E+01  0.24153775343E+02  0.27458722381E+02  0.00000000000E+00 0. -1.
         11    1    4    4    0    0  0.17115623109E+02 -0.18013642406E+02 -0.83169298087E+02  0.86801889447E+02  0.00000000000E+00 0.  1.
</event>
<event>
 8    1  0.6692409E-009  0.1010037E+03  0.7561462E-02  0.1278199E+00
          2   -1    0    0  501    0  0.00000000000E+00  0.00000000000E+00  0.30253667345E+03  0.30253667345E+03  0.00000000000E+00 0. -1.
         -2   -1    0    0    0  501 -0.00000000000E+00 -0.00000000000E+00 -0.47581555478E+02  0.47581555478E+02  0.00000000000E+00 0.  1.
         25    2    1    2    0    0 -0.11297045155E+02  0.31156360050E+02  0.21890431499E+03  0.25429302952E+03  0.12508998258E+03 0.  0.
         23    2    1    2    0    0  0.11297045155E+02 -0.31156360050E+02  0.36050802985E+02  0.95825199411E+02  0.82367872653E+02 0.  0.
          5    1    3    3  502    0 -0.57752494965E+02 -0.75143450395E+01  0.15773882879E+03  0.16819877099E+03  0.41800000000E+01 0. -1.
         -5    1    3    3    0  502  0.46455449810E+02  0.38670705090E+02  0.61165486204E+02  0.86094258530E+02  0.41800000000E+01 0. -1.
        -11    1    4    4    0    0  0.18464249223E+02  0.22381033199E+02 -0.30048220133E+01  0.29169643497E+02  0.00000000000E+00 0.  1.
         11    1    4    4    0    0 -0.71672040678E+01 -0.53537393250E+02  0.39055624998E+02  0.66655555913E+02  0.00000000000E+00 0. -1.
</event>
<event>
 8    1  0.6692409E-009  0.9779886E+02  0.7561462E-02  0.1284994E+00
          1   -1    0    0  501    0  0.00000000000E+00  0.00000000000E+00  0.32568537574E+03  0.32568537574E+03  0.00000000000E+00 0. -1.
         -1   -1    0    0    0  501 -0.00000000000E+00 -0.00000000000E+00 -0.71680232338E+02  0.71680232338E+02  0.00000000000E+00 0.  1.
         25    2    1    2    0    0 -0.11277955671E+02  0.52983191307E+02  0.25846269061E+03  0.29220665982E+03  0.12508940307E+03 0.  0.
         23    2    1    2    0    0  0.11277955671E+02 -0.52983191307E+02 -0.44575472151E+01  0.10515894825E+03  0.90022907223E+02 0.  0.
          5    1    3    3  502    0  0.26851094879E+02  0.81276742210E+02  0.13546916189E+03  0.16030051885E+03  0.41800000000E+01 0. -1.
         -5    1    3    3    0  502 -0.38129050550E+02 -0.28293550904E+02  0.12299352872E+03  0.13190614097E+03  0.41800000000E+01 0. -1.
        -11    1    4    4    0    0  0.16770677250E+02 -0.11372119168E+02 -0.43404090860E+02  0.47900895745E+02  0.00000000000E+00 0.  1.
         11    1    4    4    0    0 -0.54927215789E+01 -0.41611072139E+02  0.38946543645E+02  0.57258052506E+02  0.00000000000E+00 0. -1.
</event>
<event>
 8    1  0.6692409E-009  0.1257769E+03  0.7561462E-02  0.1233860E+00
          2   -1    0    0  501    0  0.00000000000E+00  0.00000000000E+00  0.80678301806E+03  0.80678301806E+03  0.00000000000E+00 0.  1.
         -2   -1    0    0    0  501 -0.00000000000E+00 -0.00000000000E+00 -0.25796706259E+02  0.25796706259E+02  0.00000000000E+00 0. -1.
         25    2    1    2    0    0 -0.41250852889E+02 -0.84643132092E+02  0.42549711147E+03  0.45338855437E+03  0.12508915497E+03 0.  0.
         23    2    1    2    0    0  0.41250852889E+02  0.84643132092E+02  0.35548920033E+03  0.37919116995E+03  0.92451496151E+02 0.  0.
          5    1    3    3  502    0 -0.23333153310E+02  0.30772602916E+02  0.86839968060E+02  0.95131706525E+02  0.41800000000E+01 0.  1.
         -5    1    3    3    0  502 -0.17917699579E+02 -0.11541573501E+03  0.33865714341E+03  0.35825684785E+03  0.41800000000E+01 0.  1.
        -11    1    4    4    0    0  0.26366657609E+02  0.70641965722E+02  0.35000300865E+03  0.35803295102E+03  0.00000000000E+00 0.  1.
         11    1    4    4    0    0  0.14884195280E+02  0.14001166371E+02  0.54861916790E+01  0.21158218923E+02  0.00000000000E+00 0. -1.
</event>
<event>
 8    1  0.6692409E-009  0.1438808E+03  0.7561462E-02  0.1208200E+00
          1   -1    0    0  501    0  0.00000000000E+00  0.00000000000E+00  0.41752798538E+03  0.41752798538E+03  0.00000000000E+00 0. -1.
         -1   -1    0    0    0  501 -0.00000000000E+00 -0.00000000000E+00 -0.66300343007E+02  0.66300343007E+02  0.00000000000E+00 0.  1.
         25    2    1    2    0    0  0.73187826854E+02 -0.75496820828E+02  0.82932531045E+02  0.18325029404E+03  0.12508652048E+03 0.  0.
         23    2    1    2    0    0 -0.73187826854E+02  0.75496820828E+02  0.26829511133E+03  0.30057803435E+03  0.85490701345E+02 0.  0.
          5    1    3    3  502    0  0.78202081412E+02 -0.95886174049E+00  0.10339207735E+02  0.78999092208E+02  0.41800000000E+01 0. -1.
         -5    1    3    3    0  502 -0.50142545588E+01 -0.74537959088E+02  0.72593323310E+02  0.10425120183E+03  0.41800000000E+01 0. -1.
        -11    1    4    4    0    0 -0.83626006238E+02  0.31437635486E+02  0.16113685775E+03  0.18424635891E+03  0.00000000000E+00 0. -1.
         11    1    4    4    0    0  0.10438179385E+02  0.44059185342E+02  0.10715825358E+03  0.11633167544E+03  0.00000000000E+00 0.  1.
</event>
<event>
 8    1  0.6692409E-009  0.1131511E+03  0.7561462E-02  0.1254843E+00
         -1   -1    0    0    0  501 -0.00000000000E+00  0.00000000000E+00  0.57438907372E+03  0.57438907372E+03  0.00000000000E+00 0.  1.
          1   -1    0    0  501    0  0.00000000000E+00 -0.00000000000E+00 -0.27813583793E+02  0.27813583793E+02  0.00000000000E+00 0. -1.
         25    2    1    2    0    0  0.83263927371E+01 -0.63081774093E+02  0.35344966703E+03  0.38029341673E+03  0.12509107340E+03 0.  0.
         23    2    1    2    0    0 -0.83263927371E+01  0.63081774093E+02  0.19312582289E+03  0.22190924078E+03  0.88867815533E+02 0.  0.
          5    1    3    3  502    0 -0.53756680635E+02 -0.39719419827E+02  0.23625690957E+03  0.24556508861E+03  0.41800000000E+01 0. -1.
         -5    1    3    3    0  502  0.62083073372E+02 -0.23362354266E+02  0.11719275746E+03  0.13472832812E+03  0.41800000000E+01 0. -1.
        -11    1    4    4    0    0  0.40329044371E+01  0.75347497733E+02  0.18970946378E+03  0.20416461589E+03  0.00000000000E+00 0.  1.
         11    1    4    4    0    0 -0.12359297174E+02 -0.12265723640E+02  0.34163591124E+01  0.17744624894E+02  0.00000000000E+00 0. -1.
</event>
<event>
 8    1  0.6692409E-009  0.1081401E+03  0.7561462E-02  0.1264053E+00
          2   -1    0    0  501    0  0.00000000000E+00  0.00000000000E+00  0.39321034744E+03  0.39321034744E+03  0.00000000000E+00 0. -1.
         -2   -1    0    0    0  501 -0.00000000000E+00 -0.00000000000E+00 -0.39453299508E+02  0.39453299508E+02  0.00000000000E+00 0.  1.
         25    2    1    2    0    0  0.39926943013E+02 -0.26380664640E+02  0.13786097064E+03  0.19220491776E+03  0.12508790086E+03 0.  0.
         23    2    1    2    0    0 -0.39926943013E+02  0.26380664640E+02  0.21589607729E+03  0.24045872919E+03  0.94441431621E+02 0.  0.
          5    1    3    3  502    0 -0.42000081930E+02 -0.18467404543E+02  0.77089717666E+02  0.89807287468E+02  0.41800000000E+01 0. -1.
         -5    1    3    3    0  502  0.81927024943E+02 -0.79132600970E+01  0.60771252972E+02  0.10239763029E+03  0.41800000000E+01 0. -1.
        -11    1    4    4    0    0  0.12767513509E+02 -0.15788304433E+02  0.79005330967E+01  0.21787574011E+02  0.00000000000E+00 0.  1.
         11    1    4    4    0    0 -0.52694456522E+02  0.42168969072E+02  0.20799554419E+03  0.21867115517E+03  0.00000000000E+00 0. -1.
</event>
<event>
 8    1  0.6692409E-009  0.1448921E+03  0.7561462E-02  0.1206894E+00
         -1   -1    0    0    0  501 -0.00000000000E+00  0.00000000000E+00  0.16670581709E+02  0.16670581709E+02  0.00000000000E+00 0.  1.
          1   -1    0    0  501    0  0.00000000000E+00 -0.00000000000E+00 -0.22736368102E+04  0.22736368102E+04  0.00000000000E+00 0. -1.
         25    2    1    2    0    0  0.32857162913E+02  0.12651629206E+03 -0.17435412211E+04  0.17529032353E+04  0.12509115627E+03 0.  0.
         23    2    1    2    0    0 -0.32857162913E+02 -0.12651629206E+03 -0.51342500742E+03  0.53740415663E+03  0.90066775266E+02 0.  0.
          5    1    3    3  502    0  0.22531475631E+02  0.90309524919E+02 -0.16400903848E+04  0.16427347383E+04  0.41800000000E+01 0.  1.
         -5    1    3    3    0  502  0.10325687282E+02  0.36206767137E+02 -0.10345083635E+03  0.11016849706E+03  0.41800000000E+01 0. -1.
        -11    1    4    4    0    0 -0.56166880772E+02 -0.39548747427E+02 -0.22484830628E+03  0.23510759826E+03  0.00000000000E+00 0.  1.
         11    1    4    4    0    0  0.23309717859E+02 -0.86967544629E+02 -0.28857670113E+03  0.30229655837E+03  0.00000000000E+00 0. -1.
</event>
<event>
 8    1  0.6692409E-009  0.1192000E+03  0.7561462E-02  0.1244423E+00
          3   -1    0    0  501    0  0.00000000000E+00  0.00000000000E+00  0.14035280624E+03  0.14035280624E+03  0.00000000000E+00 0. -1.
         -3   -1    0    0    0  501 -0.00000000000E+00 -0.00000000000E+00 -0.15321011189E+03  0.15321011189E+03  0.00000000000E+00 0.  1.
         25    2    1    2    0    0 -0.81092923120E+02  0.52728034498E+01 -0.83631641674E+02  0.17101437317E+03  0.12509116557E+03 0.  0.
         23    2    1    2    0    0  0.81092923120E+02 -0.52728034498E+01  0.70774336020E+02  0.12254854496E+03  0.58354730706E+02 0.  0.
          5    1    3    3  502    0  0.23066769486E+02  0.30076886770E+02 -0.57893584491E+01  0.38570507432E+02  0.41800000000E+01 0. -1.
         -5    1    3    3    0  502 -0.10415969261E+03 -0.24804083320E+02 -0.77842283225E+02  0.13244386573E+03  0.41800000000E+01 0. -1.
        -11    1    4    4    0    0  0.30344025773E+02  0.20076928163E+02  0.67454455312E+01  0.37004648086E+02  0.00000000000E+00 0.  1.
         11    1    4    4    0    0  0.50748897347E+02 -0.25349731612E+02  0.64028890489E+02  0.85543896872E+02  0.00000000000E+00 0. -1.
</event>
<event>
 8    1  0.6692409E-009  0.1859661E+03  0.7561462E-02  0.1162151E+00
         -1   -1    0    0    0  501 -0.00000000000E+00  0.00000000000E+00  0.48050632201E+02  0.48050632201E+02  0.00000000000E+00 0.  1.
          1   -1    0    0  501    0  0.00000000000E+00 -0.00000000000E+00 -0.89819918189E+03  0.89819918189E+03  0.00000000000E+00 0. -1.
         25    2    1    2    0    0  0.14809794970E+03  0.52010914854E+02 -0.25677709412E+03  0.32591932228E+03  0.12510311987E+03 0.  0.
         23    2    1    2    0    0 -0.14809794970E+03 -0.52010914854E+02 -0.59337145556E+03  0.62033049181E+03  0.89900482866E+02 0.  0.
          5    1    3    3  502    0  0.95370448494E+02  0.87569976703E+02 -0.12738650105E+03  0.18168328574E+03  0.41800000000E+01 0.  1.
         -5    1    3    3    0  502  0.52727501205E+02 -0.35559061849E+02 -0.12939059307E+03  0.14423603654E+03  0.41800000000E+01 0.  1.
        -11    1    4    4    0    0 -0.35008503549E+01 -0.32568092942E+02 -0.75493888925E+02  0.82293765840E+02  0.00000000000E+00 0.  1.
         11    1    4    4    0    0 -0.14459709934E+03 -0.19442821913E+02 -0.51787756664E+03  0.53803672597E+03  0.00000000000E+00 0. -1.
</event>
<event>
 8    1  0.6692409E-009  0.1018265E+03  0.7561462E-02  0.1276501E+00
         -1   -1    0    0    0  501 -0.00000000000E+00  0.00000000000E+00  0.20953271837E+03  0.20953271837E+03  0.00000000000E+00 0.  1.
          1   -1    0    0  501    0  0.00000000000E+00 -0.00000000000E+00 -0.92167448475E+02  0.92167448475E+02  0.00000000000E+00 0. -1.
         25    2    1    2    0    0  0.19587366203E+02  0.48785147891E+02  0.13785409169E+03  0.19343069699E+03  0.12509207958E+03 0.  0.
         23    2    1    2    0    0 -0.19587366203E+02 -0.48785147891E+02 -0.20488821796E+02  0.10826946985E+03  0.92405793723E+02 0.  0.
          5    1    3    3  502    0 -0.48047628245E+02  0.45793451233E+02  0.54636488849E+02  0.86071093112E+02  0.41800000000E+01 0.  1.
         -5    1    3    3    0  502  0.67634994448E+02  0.29916966581E+01  0.83217602842E+02  0.10735960388E+03  0.41800000000E+01 0.  1.
        -11    1    4    4    0    0 -0.17298628776E+02  0.29349732974E+01  0.30766589825E+02  0.35418069897E+02  0.00000000000E+00 0.  1.
         11    1    4    4    0    0 -0.22887374270E+01 -0.51720121188E+02 -0.51255411621E+02  0.72851399953E+02  0.00000000000E+00 0. -1.
</event>
<event>
 8    1  0.6692409E-009  0.8207865E+02  0.7561462E-02  0.1323254E+00
         -1   -1    0    0    0  501 -0.00000000000E+00  0.00000000000E+00  0.80635260897E+02  0.80635260897E+02  0.00000000000E+00 0.  1.
          1   -1    0    0  501    0  0.00000000000E+00 -0.00000000000E+00 -0.52585257008E+03  0.52585257008E+03  0.00000000000E+00 0. -1.
         25    2    1    2    0    0  0.51400357474E+02 -0.56319060417E+02 -0.46208068055E+03  0.48474475133E+03  0.12508031535E+03 0.  0.
         23    2    1    2    0    0 -0.51400357474E+02  0.56319060417E+02  0.16863371376E+02  0.12174307964E+03  0.93397916631E+02 0.  0.
          5    1    3    3  502    0  0.18117882560E+02 -0.20454957693E+02 -0.90885804166E+01  0.29098756961E+02  0.41800000000E+01 0.  1.
         -5    1    3    3    0  502  0.33282474915E+02 -0.35864102724E+02 -0.45299210014E+03  0.45564599437E+03  0.41800000000E+01 0.  1.
        -11    1    4    4    0    0 -0.10138163541E+02  0.42804860777E+02  0.50387930106E+02  0.66887831229E+02  0.00000000000E+00 0.  1.
         11    1    4    4    0    0 -0.41262193934E+02  0.13514199640E+02 -0.33524558730E+02  0.54855248410E+02  0.00000000000E+00 0. -1.
</event>
<event>
 8    1  0.6692409E-009  0.1071436E+03  0.7561462E-02  0.1265953E+00
         -3   -1    0    0    0  501 -0.00000000000E+00  0.00000000000E+00  0.18761028503E+03  0.18761028503E+03  0.00000000000E+00 0.  1.
          3   -1    0    0  501    0  0.00000000000E+00 -0.00000000000E+00 -0.86645629640E+02  0.86645629640E+02  0.00000000000E+00 0. -1.
         25    2    1    2    0    0  0.44250569844E+02 -0.16879531374E+01  0.10910593138E+03  0.17179426231E+03  0.12509277430E+03 0.  0.
         23    2    1    2    0    0 -0.44250569844E+02  0.16879531374E+01 -0.81412759879E+01  0.10246165236E+03  0.92038838069E+02 0.  0.
          5    1    3    3  502    0 -0.97089675283E+01  0.47864035615E+02  0.77936418293E+02  0.92069471879E+02  0.41800000000E+01 0.  1.
         -5    1    3    3    0  502  0.53959537373E+02 -0.49551988753E+02  0.31169513088E+02  0.79724790429E+02  0.41800000000E+01 0.  1.
        -11    1    4    4    0    0 -0.65540498565E+02 -0.11930650882E+02 -0.26004281030E+02  0.71513075829E+02  0.00000000000E+00 0. -1.
         11    1    4    4    0    0  0.21289928721E+02  0.13618604020E+02  0.17863005042E+02  0.30948576535E+02  0.00000000000E+00 0.  1.
</event>
<event>
 8    1  0.6692409E-009  0.1264274E+03  0.7561462E-02  0.1232855E+00
         -3   -1    0    0    0  501 -0.00000000000E+00  0.00000000000E+00  0.26523753257E+02  0.26523753257E+02  0.00000000000E+00 0. -1.
          3   -1    0    0  501    0  0.00000000000E+00 -0.00000000000E+00 -0.94097130437E+03  0.94097130437E+03  0.00000000000E+00 0.  1.
         25    2    1    2    0    0  0.44470912274E+02 -0.10507470765E+03 -0.45540748057E+03  0.48586388715E+03  0.12509751099E+03 0.  0.
         23    2    1    2    0    0 -0.44470912274E+02  0.10507470765E+03 -0.45904007055E+03  0.48163117048E+03  0.90732804320E+02 0.  0.
          5    1    3    3  502    0  0.27879262672E+02 -0.78935329019E+02 -0.44516379534E+03  0.45298600038E+03  0.41800000000E+01 0. -1.
         -5    1    3    3    0  502  0.16591649602E+02 -0.26139378631E+02 -0.10243685222E+02  0.32877886773E+02  0.41800000000E+01 0. -1.
        -11    1    4    4    0    0  0.22000814809E+02  0.19206822785E+02 -0.45459443537E+02  0.54032387514E+02  0.00000000000E+00 0.  1.
         11    1    4    4    0    0 -0.66471727083E+02  0.85867884865E+02 -0.41358062701E+03  0.42759878297E+03  0.00000000000E+00 0. -1.
</event>
<event>
 8    1  0.6692409E-009  0.1308815E+03  0.7561462E-02  0.1226154E+00
         -1   -1    0    0    0  501 -0.00000000000E+00  0.00000000000E+00  0.67102304517E+02  0.67102304517E+02  0.00000000000E+00 0.  1.
          1   -1    0    0  501    0  0.00000000000E+00 -0.00000000000E+00 -0.31442752631E+03  0.31442752631E+03  0.00000000000E+00 0. -1.
         25    2    1    2    0    0  0.94822078975E+02 -0.90999126552E+01 -0.15909307700E+03  0.22367746153E+03  0.12508782744E+03 0.  0.
         23    2    1    2    0    0 -0.94822078975E+02  0.90999126552E+01 -0.88232144790E+02  0.15785236930E+03  0.89768725331E+02 0.  0.
          5    1    3    3  502    0  0.15594514896E+02  0.40818613017E+02 -0.61904990093E+01  0.44329930537E+02  0.41800000000E+01 0. -1.
         -5    1    3    3    0  502  0.79227564079E+02 -0.49918525672E+02 -0.15290257799E+03  0.17934753099E+03  0.41800000000E+01 0. -1.
        -11    1    4    4    0    0 -0.64200371984E+02 -0.32911655384E+02 -0.25822946459E+02  0.76626949481E+02  0.00000000000E+00 0. -1.
         11    1    4    4    0    0 -0.30621706992E+02  0.42011568040E+02 -0.62409198332E+02  0.81225419818E+02  0.00000000000E+00 0.  1.
</event>
<event>
 8    1  0.6692409E-009  0.1198295E+03  0.7561462E-02  0.1243379E+00
         -1   -1    0    0    0  501 -0.00000000000E+00  0.00000000000E+00  0.60375793203E+03  0.60375793203E+03  0.00000000000E+00 0.  1.
          1   -1    0    0  501    0  0.00000000000E+00 -0.00000000000E+00 -0.34452654001E+02  0.34452654001E+02  0.00000000000E+00 0. -1.
         25    2    1    2    0    0 -0.51823425371E+01 -0.70504801570E+02  0.16504299051E+03  0.21882618684E+03  0.12509167682E+03 0.  0.
         23    2    1    2    0    0  0.51823425371E+01  0.70504801570E+02  0.40426228752E+03  0.41938439920E+03  0.86356780045E+02 0.  0.
          5    1    3    3  502    0 -0.51369388831E+02  0.50933940375E+00  0.30827178043E+02  0.60057146466E+02  0.41800000000E+01 0. -1.
         -5    1    3    3    0  502  0.46187046294E+02 -0.71014140974E+02  0.13421581247E+03  0.15876904037E+03  0.41800000000E+01 0. -1.
        -11    1    4    4    0    0  0.39695799253E+02  0.47118243650E+02  0.31361385635E+03  0.31960841080E+03  0.00000000000E+00 0.  1.
         11    1    4    4    0    0 -0.34513456716E+02  0.23386557920E+02  0.90648431176E+02  0.99775988397E+02  0.00000000000E+00 0. -1.
</event>
<event>
 8    1  0.6692409E-009  0.1174085E+03  0.7561462E-02  0.1247434E+00
          1   -1    0    0  501    0  0.00000000000E+00  0.00000000000E+00  0.37238547586E+02  0.37238547586E+02  0.00000000000E+00 0.  1.
         -1   -1    0    0    0  501 -0.00000000000E+00 -0.00000000000E+00 -0.57794151953E+03  0.57794151953E+03  0.00000000000E+00 0. -1.
         25    2    1    2    0    0  0.67539405354E+02 -0.53200315275E+02 -0.39326799133E+03  0.42154326838E+03  0.12508864573E+03 0.  0.
         23    2    1    2    0    0 -0.67539405354E+02  0.53200315275E+02 -0.14743498061E+03  0.19363679874E+03  0.91467434071E+02 0.  0.
          5    1    3    3  502    0  0.60852304439E+02 -0.89988259185E+02 -0.33487496861E+03  0.35207897800E+03  0.41800000000E+01 0. -1.
         -5    1    3    3    0  502  0.66871009152E+01  0.36787943910E+02 -0.58393022720E+02  0.69464290381E+02  0.41800000000E+01 0. -1.
        -11    1    4    4    0    0 -0.68501285280E+01  0.15728688773E+02  0.10659497166E+02  0.20197544188E+02  0.00000000000E+00 0.  1.
         11    1    4    4    0    0 -0.60689276826E+02  0.37471626502E+02 -0.15809447778E+03  0.17343925455E+03  0.00000000000E+00 0. -1.
</event>
<event>
 8    1  0.6692409E-009  0.1250543E+03  0.7561462E-02  0.1234984E+00
         -1   -1    0    0    0  501 -0.00000000000E+00  0.00000000000E+00  0.10825532515E+03  0.10825532515E+03  0.00000000000E+00 0.  1.
          1   -1    0    0  501    0  0.00000000000E+00 -0.00000000000E+00 -0.19402244618E+03  0.19402244618E+03  0.00000000000E+00 0. -1.
         25    2    1    2    0    0 -0.69162082748E+02  0.62870165880E+02 -0.84194455899E+02  0.17739329534E+03  0.12507447134E+03 0.  0.
         23    2    1    2    0    0  0.69162082748E+02 -0.62870165880E+02 -0.15726651243E+01  0.12488447599E+03  0.82810673343E+02 0.  0.
          5    1    3    3  502    0 -0.51926682421E+02 -0.23743018964E+02 -0.65563785400E+02  0.87041333013E+02  0.41800000000E+01 0.  1.
         -5    1    3    3    0  502 -0.17235400327E+02  0.86613184844E+02 -0.18630670499E+02  0.90351962328E+02  0.41800000000E+01 0.  1.
        -11    1    4    4    0    0  0.14411337964E+02 -0.44377310114E+02  0.33359498578E+02  0.57357549287E+02  0.00000000000E+00 0.  1.
         11    1    4    4    0    0  0.54750744784E+02 -0.18492855767E+02 -0.34932163702E+02  0.67526926702E+02  0.00000000000E+00 0. -1.
</event>
<event>
 8    1  0.6692409E-009  0.2161415E+03  0.7561462E-02  0.1136793E+00
          3   -1    0    0  501    0  0.00000000000E+00  0.00000000000E+00  0.23134223531E+03  0.23134223531E+03  0.00000000000E+00 0. -1.
         -3   -1    0    0    0  501 -0.00000000000E+00 -0.00000000000E+00 -0.20439672590E+03  0.20439672590E+03  0.00000000000E+00 0.  1.
         25    2    1    2    0    0  0.10730824699E+03  0.15441190373E+03  0.13197869634E+02  0.22622939703E+03  0.12508980946E+03 0.  0.
         23    2    1    2    0    0 -0.10730824699E+03 -0.15441190373E+03  0.13747639769E+02  0.20950956418E+03  0.91362815193E+02 0.  0.
          5    1    3    3  502    0  0.11962349440E+03  0.16677620556E+03  0.24231989444E+01  0.20529838637E+03  0.41800000000E+01 0.  1.
         -5    1    3    3    0  502 -0.12315247408E+02 -0.12364301834E+02  0.10774670690E+02  0.20931010655E+02  0.41800000000E+01 0.  1.
        -11    1    4    4    0    0  0.45657642584E+01 -0.66802510969E+02  0.38039938431E+01  0.67066325710E+02  0.00000000000E+00 0.  1.
         11    1    4    4    0    0 -0.11187401125E+03 -0.87609392760E+02  0.99436459256E+01  0.14244323847E+03  0.00000000000E+00 0. -1.
</event>
<event>
 8    1  0.6692409E-009  0.1197446E+03  0.7561462E-02  0.1243519E+00
         -2   -1    0    0    0  501 -0.00000000000E+00  0.00000000000E+00  0.42634294542E+02  0.42634294542E+02  0.00000000000E+00 0.  1.
          2   -1    0    0  501    0  0.00000000000E+00 -0.00000000000E+00 -0.53076917963E+03  0.53076917963E+03  0.00000000000E+00 0. -1.
         25    2    1    2    0    0 -0.49004688898E+02 -0.27233144347E+02 -0.43362422055E+03  0.45477532135E+03  0.12509006586E+03 0.  0.
         23    2    1    2    0    0  0.49004688898E+02  0.27233144347E+02 -0.54510664537E+02  0.11862815282E+03  0.89208309076E+02 0.  0.
          5    1    3    3  502    0 -0.87789639874E+02 -0.36871409158E+02 -0.27141492191E+03  0.28766309099E+03  0.41800000000E+01 0.  1.
         -5    1    3    3    0  502  0.38784950977E+02  0.96382648107E+01 -0.16220929864E+03  0.16711223036E+03  0.41800000000E+01 0.  1.
        -11    1    4    4    0    0  0.48692477225E+02 -0.22937777735E+02 -0.18674429324E+02  0.56972215126E+02  0.00000000000E+00 0.  1.
         11    1    4    4    0    0  0.31221167208E+00  0.50170922082E+02 -0.35836235213E+02  0.61655937694E+02  0.00000000000E+00 0. -1.
</event>
<event>
 8    1  0.6692409E-009  0.1118793E+03  0.7561462E-02  0.1257129E+00
         -2   -1    0    0    0  501 -0.00000000000E+00  0.00000000000E+00  0.16919781045E+02  0.16919781045E+02  0.00000000000E+00 0.  1.
          2   -1    0    0  501    0  0.00000000000E+00 -0.00000000000E+00 -0.11393354622E+04  0.11393354622E+04  0.00000000000E+00 0. -1.
         25    2    1    2    0    0  0.21081764304E+02  0.18209745142E+02 -0.95326511536E+03  0.96184133898E+03  0.12509334755E+03 0.  0.
         23    2    1    2    0    0 -0.21081764304E+02 -0.18209745142E+02 -0.16915056580E+03  0.19441390427E+03  0.91699600105E+02 0.  0.
          5    1    3    3  502    0 -0.45019411009E+02 -0.22407275573E+02 -0.37744325758E+03  0.38080141604E+03  0.41800000000E+01 0. -1.
         -5    1    3    3    0  502  0.66101175312E+02  0.40617020716E+02 -0.57582185778E+03  0.58103992294E+03  0.41800000000E+01 0. -1.
        -11    1    4    4    0    0 -0.56396429108E+02 -0.12113339432E+01 -0.93032532409E+02  0.10879833010E+03  0.00000000000E+00 0.  1.
         11    1    4    4    0    0  0.35314664804E+02 -0.16998411199E+02 -0.76118033387E+02  0.85615574169E+02  0.00000000000E+00 0. -1.
</event>
<event>
 8    1  0.6692409E-009  0.7694030E+02  0.7561462E-02  0.1337966E+00
         -1   -1    0    0    0  501 -0.00000000000E+00  0.00000000000E+00  0.11116430284E+03  0.11116430284E+03  0.00000000000E+00 0.  1.
          1   -1    0    0  501    0  0.00000000000E+00 -0.00000000000E+00 -0.22302130548E+03  0.22302130548E+03  0.00000000000E+00 0. -1.
         25    2    1    2    0    0 -0.55302177704E+01 -0.35974103394E+01 -0.18119703754E+03  0.22027997656E+03  0.12508947593E+03 0.  0.
         23    2    1    2    0    0  0.55302177704E+01  0.35974103394E+01  0.69340034895E+02  0.11390563176E+03  0.90127286866E+02 0.  0.
          5    1    3    3  502    0 -0.38063111709E+02 -0.24176213069E+02 -0.17536994472E+03  0.18112255426E+03  0.41800000000E+01 0.  1.
         -5    1    3    3    0  502  0.32532893939E+02  0.20578802730E+02 -0.58270928180E+01  0.39157422292E+02  0.41800000000E+01 0.  1.
        -11    1    4    4    0    0 -0.24908534525E+02 -0.19524703152E+02  0.68740075590E+02  0.75675934864E+02  0.00000000000E+00 0.  1.
         11    1    4    4    0    0  0.30438752296E+02  0.23122113492E+02  0.59995930493E+00  0.38229696897E+02  0.00000000000E+00 0. -1.
</event>
<event>
 8    1  0.6692409E-009  0.9347895E+02  0.7561462E-02  0.1294639E+00
          2   -1    0    0  501    0  0.00000000000E+00  0.00000000000E+00  0.11419239413E+03  0.11419239413E+03  0.00000000000E+00 0.  1.
         -2   -1    0    0    0  501 -0.00000000000E+00 -0.00000000000E+00 -0.17710711618E+03  0.17710711618E+03  0.00000000000E+00 0. -1.
         25    2    1    2    0    0 -0.83891171802E+02  0.56906638334E+01 -0.72525421342E+02  0.16726574120E+03  0.12509108313E+03 0.  0.
         23    2    1    2    0    0  0.83891171802E+02 -0.56906638334E+01  0.96106992926E+01  0.12403376910E+03  0.90674682110E+02 0.  0.
          5    1    3    3  502    0 -0.26503920110E+02 -0.18777810043E+02 -0.95262086285E+02  0.10073431101E+03  0.41800000000E+01 0. -1.
         -5    1    3    3    0  502 -0.57387251692E+02  0.24468473876E+02  0.22736664944E+02  0.66531430192E+02  0.41800000000E+01 0. -1.
        -11    1    4    4    0    0  0.23419604831E+02  0.14950927342E+02  0.43567921915E+02  0.51673706455E+02  0.00000000000E+00 0.  1.
         11    1    4    4    0    0  0.60471566971E+02 -0.20641591176E+02 -0.33957222622E+02  0.72360062648E+02  0.00000000000E+00 0. -1.
</event>
<event>
 8    1  0.6692409E-009  0.8533341E+02  0.7561462E-02  0.1314563E+00
          2   -1    0    0  501    0  0.00000000000E+00  0.00000000000E+00  0.54014481662E+02  0.54014481662E+02  0.00000000000E+00 0. -1.
         -2   -1    0    0    0  501 -0.00000000000E+00 -0.00000000000E+00 -0.25901955968E+03  0.25901955968E+03  0.00000000000E+00 0.  1.
         25    2    1    2    0    0 -0.23076315555E+02  0.21327211664E+02 -0.15882002201E+03  0.20459400733E+03  0.12509013609E+03 0.  0.
         23    2    1    2    0    0  0.23076315555E+02 -0.21327211664E+02 -0.46185056013E+02  0.10844003402E+03  0.92945227319E+02 0.  0.
          5    1    3    3  502    0 -0.42696957209E+02  0.34006504202E+02 -0.12227979160E+02  0.56093389605E+02  0.41800000000E+01 0. -1.
         -5    1    3    3    0  502  0.19620641655E+02 -0.12679292538E+02 -0.14659204285E+03  0.14850061772E+03  0.41800000000E+01 0. -1.
        -11    1    4    4    0    0  0.62339092589E+01  0.33891630843E+02  0.77435822187E-01  0.34460270779E+02  0.00000000000E+00 0.  1.
         11    1    4    4    0    0  0.16842406296E+02 -0.55218842507E+02 -0.46262491835E+02  0.73979763236E+02  0.00000000000E+00 0. -1.
</event>
<event>
 8    1  0.6692409E-009  0.8787833E+02  0.7561462E-02  0.1308073E+00
         -1   -1    0    0    0  501 -0.00000000000E+00  0.00000000000E+00  0.16425929784E+02  0.16425929784E+02  0.00000000000E+00 0.  1.
          1   -1    0    0  501    0  0.00000000000E+00 -0.00000000000E+00 -0.24617488609E+04  0.24617488609E+04  0.00000000000E+00 0. -1.
         25    2    1    2    0    0  0.64452094105E+02  0.57621735345E+02 -0.21715256226E+04  0.21768430074E+04  0.12509041682E+03 0.  0.
         23    2    1    2    0    0 -0.64452094105E+02 -0.57621735345E+02 -0.27379730858E+03  0.30133178336E+03  0.91441460285E+02 0.  0.
          5    1    3    3  502    0  0.71960581185E+01  0.14862179220E+02 -0.33154903480E+02  0.37274490585E+02  0.41800000000E+01 0. -1.
         -5    1    3    3    0  502  0.57256035987E+02  0.42759556125E+02 -0.21383707191E+04  0.21395685168E+04  0.41800000000E+01 0. -1.
        -11    1    4    4    0    0 -0.32802144758E+02 -0.22038882054E+02 -0.22321492431E+02  0.45386584442E+02  0.00000000000E+00 0.  1.
         11    1    4    4    0    0 -0.31649949347E+02 -0.35582853291E+02 -0.25147581615E+03  0.25594519892E+03  0.00000000000E+00 0. -1.
</event>
<event>
 8    1  0.6692409E-009  0.1481756E+03  0.7561462E-02  0.1202733E+00
         -3   -1    0    0    0  501 -0.00000000000E+00  0.00000000000E+00  0.34811234544E+03  0.34811234544E+03  0.00000000000E+00 0.  1.
          3   -1    0    0  501    0  0.00000000000E+00 -0.00000000000E+00 -0.97549212617E+02  0.97549212617E+02  0.00000000000E+00 0. -1.
         25    2    1    2    0    0 -0.94515172998E+02  0.71767366697E+02  0.23796089300E+02  0.17406074047E+03  0.12508882707E+03 0.  0.
         23    2    1    2    0    0  0.94515172998E+02 -0.71767366697E+02  0.22676704352E+03  0.27160081758E+03  0.90884758002E+02 0.  0.
          5    1    3    3  502    0 -0.44989284534E+02  0.91427990310E+02  0.51069057445E+02  0.11405539954E+03  0.41800000000E+01 0. -1.
         -5    1    3    3    0  502 -0.49525888464E+02 -0.19660623613E+02 -0.27272968145E+02  0.60005340932E+02  0.41800000000E+01 0. -1.
        -11    1    4    4    0    0  0.44327663825E+02  0.95652291963E+01  0.34808515780E+02  0.57167019868E+02  0.00000000000E+00 0. -1.
         11    1    4    4    0    0  0.50187509173E+02 -0.81332595894E+02  0.19195852774E+03  0.21443379772E+03  0.00000000000E+00 0.  1.
</event>
<event>
 8    1  0.6692409E-009  0.9338320E+02  0.7561462E-02  0.1294860E+00
          1   -1    0    0  501    0  0.00000000000E+00  0.00000000000E+00  0.76096595075E+02  0.76096595075E+02  0.00000000000E+00 0. -1.
         -1   -1    0    0    0  501 -0.00000000000E+00 -0.00000000000E+00 -0.18985995581E+03  0.18985995581E+03  0.00000000000E+00 0.  1.
         25    2    1    2    0    0  0.27361555410E+02 -0.12603771608E+02 -0.16485357996E+02  0.12971635463E+03  0.12508819232E+03 0.  0.
         23    2    1    2    0    0 -0.27361555410E+02  0.12603771608E+02 -0.97278002737E+02  0.13624019625E+03  0.90503433550E+02 0.  0.
          5    1    3    3  502    0 -0.28281945209E+02  0.13097144553E+02 -0.50502448756E+02  0.59492632742E+02  0.41800000000E+01 0. -1.
         -5    1    3    3    0  502  0.55643500618E+02 -0.25700916161E+02  0.34017090760E+02  0.70223721892E+02  0.41800000000E+01 0. -1.
        -11    1    4    4    0    0  0.32330986701E+02  0.11068421817E+02 -0.24226919006E+02  0.41889691657E+02  0.00000000000E+00 0.  1.
         11    1    4    4    0    0 -0.59692542110E+02  0.15353497914E+01 -0.73051083731E+02  0.94350504593E+02  0.00000000000E+00 0. -1.
</event>
<event>
 8    1  0.6692409E-009  0.3087736E+03  0.7561462E-02  0.1080935E+00
         -1   -1    0    0    0  501 -0.00000000000E+00  0.00000000000E+00  0.31323140418E+03  0.31323140418E+03  0.00000000000E+00 0.  1.
          1   -1    0    0  501    0  0.00000000000E+00 -0.00000000000E+00 -0.32392619658E+03  0.32392619658E+03  0.00000000000E+00 0. -1.
         25    2    1    2    0    0  0.26247261387E+03  0.13316020874E+03  0.49828626263E+02  0.32364106813E+03  0.12504852962E+03 0.  0.
         23    2    1    2    0    0 -0.26247261387E+03 -0.13316020874E+03 -0.60523418656E+02  0.31351653263E+03  0.89476353341E+02 0.  0.
          5    1    3    3  502    0  0.12142512716E+03  0.13078077178E+03  0.22992503676E+02  0.17998277529E+03  0.41800000000E+01 0.  1.
         -5    1    3    3    0  502  0.14104748671E+03  0.23794369580E+01  0.26836122588E+02  0.14365829284E+03  0.41800000000E+01 0.  1.
        -11    1    4    4    0    0 -0.11633446866E+03 -0.84860722628E+02  0.97362008179E+01  0.14432548095E+03  0.00000000000E+00 0.  1.
         11    1    4    4    0    0 -0.14613814521E+03 -0.48299486110E+02 -0.70259619474E+02  0.16919105169E+03  0.00000000000E+00 0. -1.
</event>
<event>
 8    1  0.6692409E-009  0.5122637E+02  0.7561462E-02  0.1438837E+00
         -2   -1    0    0    0  501 -0.00000000000E+00  0.00000000000E+00  0.41130346072E+02  0.41130346072E+02  0.00000000000E+00 0.  1.
          2   -1    0    0  501    0  0.00000000000E+00 -0.00000000000E+00 -0.24950727871E+03  0.24950727871E+03  0.00000000000E+00 0. -1.
         25    2    1    2    0    0 -0.24203253160E+00  0.39434395207E+02 -0.11647652876E+03  0.17541259875E+03  0.12509063891E+03 0.  0.
         23    2    1    2    0    0  0.24203253160E+00 -0.39434395207E+02 -0.91900403879E+02  0.11522502604E+03  0.57236284704E+02 0.  0.
          5    1    3    3  502    0 -0.29987600655E+01  0.30391469833E+02  0.21160389999E+02  0.37388079724E+02  0.41800000000E+01 0.  1.
         -5    1    3    3    0  502  0.27567275339E+01  0.90429253742E+01 -0.13763691876E+03  0.13802451902E+03  0.41800000000E+01 0.  1.
        -11    1    4    4    0    0  0.23490507794E+02 -0.17114514600E+02 -0.71246091955E+02  0.76946190194E+02  0.00000000000E+00 0. -1.
         11    1    4    4    0    0 -0.23248475263E+02 -0.22319880607E+02 -0.20654311924E+02  0.38278835842E+02  0.00000000000E+00 0.  1.
</event>
<event>
 8    1  0.6692409E-009  0.1114136E+03  0.7561462E-02  0.1257974E+00
          1   -1    0    0  501    0  0.00000000000E+00  0.00000000000E+00  0.76401830903E+03  0.76401830903E+03  0.00000000000E+00 0. -1.
         -1   -1    0    0    0  501 -0.00000000000E+00 -0.00000000000E+00 -0.24623380728E+02  0.24623380728E+02  0.00000000000E+00 0.  1.
         25    2    1    2    0    0 -0.59162588477E+02 -0.56400347455E+02  0.44918068057E+03  0.47338399475E+03  0.12509161292E+03 0.  0.
         23    2    1    2    0    0  0.59162588477E+02  0.56400347455E+02  0.29021424774E+03  0.31525769501E+03  0.92097196513E+02 0.  0.
          5    1    3    3  502    0 -0.85752056947E+02 -0.12066938446E+02  0.18696569149E+03  0.20608898192E+03  0.41800000000E+01 0. -1.
         -5    1    3    3    0  502  0.26589468470E+02 -0.44333409009E+02  0.26221498908E+03  0.26729501283E+03  0.41800000000E+01 0. -1.
        -11    1    4    4    0    0  0.34094485721E+02  0.18404570889E+02  0.24876157557E+02  0.46043299198E+02  0.00000000000E+00 0.  1.
         11    1    4    4    0    0  0.25068102756E+02  0.37995776565E+02  0.26533809018E+03  0.26921439582E+03  0.00000000000E+00 0. -1.
</event>
<event>
 8    1  0.6692409E-009  0.1241307E+03  0.7561462E-02  0.1236434E+00
          2   -1    0    0  501    0  0.00000000000E+00  0.00000000000E+00  0.39162949838E+03  0.39162949838E+03  0.00000000000E+00 0. -1.
         -2   -1    0    0    0  501 -0.00000000000E+00 -0.00000000000E+00 -0.44214538909E+02  0.44214538909E+02  0.00000000000E+00 0.  1.
         25    2    1    2    0    0 -0.20795085369E+02 -0.80414995037E+02  0.19753335972E+03  0.24812328033E+03  0.12508687796E+03 0.  0.
         23    2    1    2    0    0  0.20795085369E+02  0.80414995037E+02  0.14988159976E+03  0.18772075696E+03  0.76652342739E+02 0.  0.
          5    1    3    3  502    0 -0.43684237163E+02 -0.10050445637E+03  0.10991265861E+03  0.15526661988E+03  0.41800000000E+01 0.  1.
         -5    1    3    3    0  502  0.22889151794E+02  0.20089461333E+02  0.87620701109E+02  0.92856660447E+02  0.41800000000E+01 0.  1.
        -11    1    4    4    0    0 -0.24685013942E+02  0.17661867572E+02  0.70616591544E+02  0.76863479500E+02  0.00000000000E+00 0. -1.
         11    1    4    4    0    0  0.45480099311E+02  0.62753127464E+02  0.79265008212E+02  0.11085727746E+03  0.00000000000E+00 0.  1.
</event>
<event>
 8    1  0.6692409E-009  0.1273091E+03  0.7561462E-02  0.1231504E+00
          1   -1    0    0  501    0  0.00000000000E+00  0.00000000000E+00  0.15934717110E+03  0.15934717110E+03  0.00000000000E+00 0. -1.
         -1   -1    0    0    0  501 -0.00000000000E+00 -0.00000000000E+00 -0.12578693258E+03  0.12578693258E+03  0.00000000000E+00 0.  1.
         25    2    1    2    0    0 -0.80724653750E+02  0.29547986969E+02 -0.78995204215E+01  0.15198176136E+03  0.12508597086E+03 0.  0.
         23    2    1    2    0    0  0.80724653750E+02 -0.29547986969E+02  0.41459758937E+02  0.13315234232E+03  0.92849778658E+02 0.  0.
          5    1    3    3  502    0 -0.72114098180E+02  0.61415154035E+02 -0.42566040127E+02  0.10393076769E+03  0.41800000000E+01 0. -1.
         -5    1    3    3    0  502 -0.86105555697E+01 -0.31867167066E+02  0.34666519706E+02  0.48050993668E+02  0.41800000000E+01 0. -1.
        -11    1    4    4    0    0 -0.20507004614E+01  0.26490700686E+02  0.90621249411E+01  0.28072846377E+02  0.00000000000E+00 0.  1.
         11    1    4    4    0    0  0.82775354211E+02 -0.56038687656E+02  0.32397633996E+02  0.10507949594E+03  0.00000000000E+00 0. -1.
</event>
<event>
 8    1  0.6692409E-009  0.1078051E+03  0.7561462E-02  0.1264689E+00
         -2   -1    0    0    0  501 -0.00000000000E+00  0.00000000000E+00  0.47986092007E+03  0.47986092007E+03  0.00000000000E+00 0.  1.
          2   -1    0    0  501    0  0.00000000000E+00 -0.00000000000E+00 -0.31825398136E+02  0.31825398136E+02  0.00000000000E+00 0. -1.
         25    2    1    2    0    0 -0.36800895732E+02 -0.17439343115E+02  0.15600429570E+03  0.20406766591E+03  0.12509130815E+03 0.  0.
         23    2    1    2    0    0  0.36800895732E+02  0.17439343115E+02  0.29203122623E+03  0.30761865230E+03  0.87684442945E+02 0.  0.
          5    1    3    3  502    0 -0.73738430313E+02  0.12024076411E+02  0.12993658075E+03  0.14994306232E+03  0.41800000000E+01 0.  1.
         -5    1    3    3    0  502  0.36937534581E+02 -0.29463419526E+02  0.26067714949E+02  0.54124603589E+02  0.41800000000E+01 0.  1.
        -11    1    4    4    0    0  0.54475515379E+02 -0.14914734103E+02  0.21381892125E+03  0.22115280272E+03  0.00000000000E+00 0. -1.
         11    1    4    4    0    0 -0.17674619647E+02  0.32354077218E+02  0.78212304985E+02  0.86465849579E+02  0.00000000000E+00 0.  1.
</event>
<event>
 8    1  0.6692409E-009  0.1599194E+03  0.7561462E-02  0.1188788E+00
          1   -1    0    0  501    0  0.00000000000E+00  0.00000000000E+00  0.50374748412E+03  0.50374748412E+03  0.00000000000E+00 0. -1.
         -1   -1    0    0    0  501 -0.00000000000E+00 -0.00000000000E+00 -0.51937914301E+02  0.51937914301E+02  0.00000000000E+00 0.  1.
         25    2    1    2    0    0 -0.86818401683E+02 -0.66628254653E+02  0.23253384081E+03  0.28582605389E+03  0.12509111386E+03 0.  0.
         23    2    1    2    0    0  0.86818401683E+02  0.66628254653E+02  0.21927572901E+03  0.26985934454E+03  0.11298434101E+03 0.  0.
          5    1    3    3  502    0 -0.70472489591E+02  0.23138707081E+02  0.11620782267E+03  0.13792571190E+03  0.41800000000E+01 0.  1.
         -5    1    3    3    0  502 -0.16345912091E+02 -0.89766961734E+02  0.11632601814E+03  0.14790034198E+03  0.41800000000E+01 0.  1.
        -11    1    4    4    0    0  0.96790116242E+01 -0.29447295781E+02  0.25071174552E+02  0.39867158016E+02  0.00000000000E+00 0.  1.
         11    1    4    4    0    0  0.77139390059E+02  0.96075550434E+02  0.19420455445E+03  0.22999218652E+03  0.00000000000E+00 0. -1.
</event>
<event>
 8    1  0.6692409E-009  0.2978342E+03  0.7561462E-02  0.1086328E+00
          1   -1    0    0  501    0  0.00000000000E+00  0.00000000000E+00  0.44135463912E+04  0.44135463912E+04  0.00000000000E+00 0. -1.
         -1   -1    0    0    0  501 -0.00000000000E+00 -0.00000000000E+00 -0.22840627789E+02  0.22840627789E+02  0.00000000000E+00 0.  1.
         25    2    1    2    0    0 -0.27667941171E+03  0.76846210955E+02  0.28148970262E+04  0.28322693325E+04  0.12508983481E+03 0.  0.
         23    2    1    2    0    0  0.27667941171E+03 -0.76846210955E+02  0.15758087373E+04  0.16041176866E+04  0.86968608163E+02 0.  0.
          5    1    3    3  502    0 -0.24517939011E+02 -0.13419048773E+02  0.68671503618E+03  0.68729630693E+03  0.41800000000E+01 0.  1.
         -5    1    3    3    0  502 -0.25216147270E+03  0.90265259727E+02  0.21281819900E+04  0.21449730255E+04  0.41800000000E+01 0.  1.
        -11    1    4    4    0    0  0.28175739632E+02 -0.39094264770E+02  0.28895201679E+03  0.29294283034E+03  0.00000000000E+00 0. -1.
         11    1    4    4    0    0  0.24850367208E+03 -0.37751946185E+02  0.12868567205E+04  0.13111748562E+04  0.00000000000E+00 0.  1.
</event>
<event>
 8    1  0.6692409E-009  0.3286787E+03  0.7561462E-02  0.1071723E+00
         -1   -1    0    0    0  501 -0.00000000000E+00  0.00000000000E+00  0.17229935533E+03  0.17229935533E+03  0.00000000000E+00 0.  1.
          1   -1    0    0  501    0  0.00000000000E+00 -0.00000000000E+00 -0.76449933299E+03  0.76449933299E+03  0.00000000000E+00 0. -1.
         25    2    1    2    0    0  0.31527580686E+03 -0.68598150694E+02 -0.13864542067E+03  0.37279268257E+03  0.12508913156E+03 0.  0.
         23    2    1    2    0    0 -0.31527580686E+03  0.68598150694E+02 -0.45355455699E+03  0.56400600574E+03  0.91030202006E+02 0.  0.
          5    1    3    3  502    0  0.12717996108E+03 -0.46990085197E+02 -0.12241809915E+03  0.18271965961E+03  0.41800000000E+01 0. -1.
         -5    1    3    3    0  502  0.18809584578E+03 -0.21608065497E+02 -0.16227321515E+02  0.19007302296E+03  0.41800000000E+01 0. -1.
        -11    1    4    4    0    0 -0.22543190765E+03  0.11185556342E+02 -0.27193363220E+03  0.35340141762E+03  0.00000000000E+00 0.  1.
         11    1    4    4    0    0 -0.89843899218E+02  0.57412594352E+02 -0.18162092479E+03  0.21060458812E+03  0.00000000000E+00 0. -1.
</event>
<event>
 8    1  0.6692409E-009  0.1221279E+03  0.7561462E-02  0.1239627E+00
          1   -1    0    0  501    0  0.00000000000E+00  0.00000000000E+00  0.44130537307E+03  0.44130537307E+03  0.00000000000E+00 0. -1.
         -1   -1    0    0    0  501 -0.00000000000E+00 -0.00000000000E+00 -0.44161628671E+02  0.44161628671E+02  0.00000000000E+00 0.  1.
         25    2    1    2    0    0  0.67793907099E+02  0.26122707805E+02  0.30176885129E+03  0.33464905997E+03  0.12508854475E+03 0.  0.
         23    2    1    2    0    0 -0.67793907099E+02 -0.26122707805E+02  0.95374893108E+02  0.15081794177E+03  0.91494653516E+02 0.  0.
          5    1    3    3  502    0  0.34741049582E+02 -0.40778631993E+02  0.20751848464E+03  0.21436238294E+03  0.41800000000E+01 0. -1.
         -5    1    3    3    0  502  0.33052857517E+02  0.66901339798E+02  0.94250366659E+02  0.12028667704E+03  0.41800000000E+01 0. -1.
        -11    1    4    4    0    0  0.31236961241E+01 -0.42814793046E+02  0.25841550885E+02  0.50106384156E+02  0.00000000000E+00 0.  1.
         11    1    4    4    0    0 -0.70917603223E+02  0.16692085241E+02  0.69533342223E+02  0.10071155762E+03  0.00000000000E+00 0. -1.
</event>
<event>
 7    1  0.6692409E-009  0.8091873E+02  0.7561462E-02  0.1326464E+00
          1   -1    0    0  501    0  0.00000000000E+00  0.00000000000E+00  0.33930710357E+02  0.33930710357E+02  0.00000000000E+00 0. -1.
         -1   -1    0    0    0  501 -0.00000000000E+00 -0.00000000000E+00 -0.36554378324E+03  0.36554378324E+03  0.00000000000E+00 0.  1.
         23    2    1    2    0    0 -0.10749139440E+02  0.21632704297E+02 -0.12202086138E+03  0.15450179502E+03  0.91641672610E+02 0.  0.
          5    1    1    2  502    0 -0.12230006017E+02  0.30119283026E+02 -0.56302960204E+01  0.33255328752E+02  0.41800000000E+01 0. -1.
         -5    1    1    2    0  502  0.22979145456E+02 -0.51751987322E+02 -0.20396191548E+03  0.21171736983E+03  0.41800000000E+01 0. -1.
        -11    1    3    3    0    0  0.37369635379E+01  0.44802618340E+02 -0.20579497791E+02  0.49444466181E+02  0.00000000000E+00 0.  1.
         11    1    3    3    0    0 -0.14486102978E+02 -0.23169914043E+02 -0.10144136359E+03  0.10505732884E+03  0.00000000000E+00 0. -1.
</event>
<event>
 8    1  0.6692409E-009  0.1145516E+03  0.7561462E-02  0.1252366E+00
          1   -1    0    0  501    0  0.00000000000E+00  0.00000000000E+00  0.49452005140E+03  0.49452005140E+03  0.00000000000E+00 0. -1.
         -1   -1    0    0    0  501 -0.00000000000E+00 -0.00000000000E+00 -0.34170848314E+02  0.34170848314E+02  0.00000000000E+00 0.  1.
         25    2    1    2    0    0 -0.14140756316E+02  0.50415256049E+02  0.15377529810E+03  0.20502685008E+03  0.12508999927E+03 0.  0.
         23    2    1    2    0    0  0.14140756316E+02 -0.50415256049E+02  0.30657390499E+03  0.32366404963E+03  0.89605796553E+02 0.  0.
          5    1    3    3  502    0  0.26520058301E+02 -0.30487926299E+02  0.25521527555E+02  0.47975492817E+02  0.41800000000E+01 0. -1.
         -5    1    3    3    0  502 -0.40660814616E+02  0.80903182348E+02  0.12825377055E+03  0.15705135727E+03  0.41800000000E+01 0. -1.
        -11    1    4    4    0    0 -0.34644150446E+02 -0.25785924861E+02  0.19098752240E+03  0.19580951150E+03  0.00000000000E+00 0. -1.
         11    1    4    4    0    0  0.48784906762E+02 -0.24629331188E+02  0.11558638259E+03  0.12785453814E+03  0.00000000000E+00 0.  1.
</event>
<event>
 8    1  0.6692409E-009  0.1192543E+03  0.7561462E-02  0.1244332E+00
         -2   -1    0    0    0  501 -0.00000000000E+00  0.00000000000E+00  0.45166536965E+03  0.45166536965E+03  0.00000000000E+00 0.  1.
          2   -1    0    0  501    0  0.00000000000E+00 -0.00000000000E+00 -0.44848649797E+02  0.44848649797E+02  0.00000000000E+00 0. -1.
         25    2    1    2    0    0  0.75893200370E+02  0.42987118200E+02  0.26257146468E+03  0.30365873722E+03  0.12512867151E+03 0.  0.
         23    2    1    2    0    0 -0.75893200370E+02 -0.42987118200E+02  0.14424525518E+03  0.19285528223E+03  0.93695229591E+02 0.  0.
          5    1    3    3  502    0  0.95296256678E+02  0.37828769664E+02  0.11280743578E+03  0.15249715512E+03  0.41800000000E+01 0.  1.
         -5    1    3    3    0  502 -0.19403056308E+02  0.51583485366E+01  0.14976402889E+03  0.15116158210E+03  0.41800000000E+01 0.  1.
        -11    1    4    4    0    0  0.10131003026E+02  0.10095383848E+02 -0.26449440540E+01  0.14544749100E+02  0.00000000000E+00 0. -1.
         11    1    4    4    0    0 -0.86024203396E+02 -0.53082502048E+02  0.14689019924E+03  0.17831053313E+03  0.00000000000E+00 0.  1.
</event>
<event>
 8    1  0.6692409E-009  0.1015212E+03  0.7561462E-02  0.1277129E+00
          1   -1    0    0  501    0  0.00000000000E+00  0.00000000000E+00  0.16828940618E+03  0.16828940618E+03  0.00000000000E+00 0. -1.
         -1   -1    0    0    0  501 -0.00000000000E+00 -0.00000000000E+00 -0.12857322237E+03  0.12857322237E+03  0.00000000000E+00 0.  1.
         25    2    1    2    0    0  0.10085884883E+02 -0.29555398585E+02  0.11601684671E+03  0.17344244290E+03  0.12508847117E+03 0.  0.
         23    2    1    2    0    0 -0.10085884883E+02  0.29555398585E+02 -0.76300662897E+02  0.12342018565E+03  0.91845002090E+02 0.  0.
          5    1    3    3  502    0  0.26460899313E+02  0.40094893758E+02  0.79558155777E+02  0.93030920927E+02  0.41800000000E+01 0. -1.
         -5    1    3    3    0  502 -0.16375014430E+02 -0.69650292343E+02  0.36458690931E+02  0.80411521970E+02  0.41800000000E+01 0. -1.
        -11    1    4    4    0    0  0.11327753238E+02  0.51356876733E+02 -0.76532362114E+02  0.92860374929E+02  0.00000000000E+00 0.  1.
         11    1    4    4    0    0 -0.21413638122E+02 -0.21801478148E+02  0.23169921679E+00  0.30559810725E+02  0.00000000000E+00 0. -1.
</event>
<event>
 8    1  0.6692409E-009  0.1545549E+03  0.7561462E-02  0.1194985E+00
         -2   -1    0    0    0  501 -0.00000000000E+00  0.00000000000E+00  0.54969884852E+02  0.54969884852E+02  0.00000000000E+00 0.  1.
          2   -1    0    0  501    0  0.00000000000E+00 -0.00000000000E+00 -0.50270154832E+03  0.50270154832E+03  0.00000000000E+00 0. -1.
         25    2    1    2    0    0  0.40618709710E+02 -0.10419150307E+03 -0.33454095141E+03  0.37425853101E+03  0.12508417555E+03 0.  0.
         23    2    1    2    0    0 -0.40618709710E+02  0.10419150307E+03 -0.11319071205E+03  0.18341290216E+03  0.91227224507E+02 0.  0.
          5    1    3    3  502    0 -0.68321949387E+01 -0.11746811515E+03 -0.22074232427E+03  0.25018010130E+03  0.41800000000E+01 0.  1.
         -5    1    3    3    0  502  0.47450904649E+02  0.13276612075E+02 -0.11379862714E+03  0.12407842971E+03  0.41800000000E+01 0.  1.
        -11    1    4    4    0    0 -0.42335322456E+02  0.49064301108E+01 -0.19417485345E+02  0.46833655858E+02  0.00000000000E+00 0. -1.
         11    1    4    4    0    0  0.17166127455E+01  0.99285072960E+02 -0.93773226709E+02  0.13657924630E+03  0.00000000000E+00 0.  1.
</event>
<event>
 8    1  0.6692409E-009  0.9751757E+02  0.7561462E-02  0.1285604E+00
         -1   -1    0    0    0  501 -0.00000000000E+00  0.00000000000E+00  0.99269092452E+03  0.99269092452E+03  0.00000000000E+00 0.  1.
          1   -1    0    0  501    0  0.00000000000E+00 -0.00000000000E+00 -0.17636220743E+02  0.17636220743E+02  0.00000000000E+00 0. -1.
         25    2    1    2    0    0 -0.94508345694E+01 -0.11551086527E+02  0.82265940151E+03  0.83224797320E+03  0.12508178177E+03 0.  0.
         23    2    1    2    0    0  0.94508345694E+01  0.11551086527E+02  0.15239530227E+03  0.17807917206E+03  0.90912691608E+02 0.  0.
          5    1    3    3  502    0  0.45455976332E+02  0.17113181348E+02  0.17635746856E+03  0.18297140727E+03  0.41800000000E+01 0. -1.
         -5    1    3    3    0  502 -0.54906810902E+02 -0.28664267876E+02  0.64630193295E+03  0.64927656593E+03  0.41800000000E+01 0. -1.
        -11    1    4    4    0    0  0.38779053128E+02  0.30458667905E+02  0.12277704163E+03  0.13230928676E+03  0.00000000000E+00 0.  1.
         11    1    4    4    0    0 -0.29328218558E+02 -0.18907581378E+02  0.29618260640E+02  0.45769885304E+02  0.00000000000E+00 0. -1.
</event>
<event>
 8    1  0.6692409E-009  0.1899306E+03  0.7561462E-02  0.1158524E+00
         -2   -1    0    0    0  501 -0.00000000000E+00  0.00000000000E+00  0.13024161166E+03  0.13024161166E+03  0.00000000000E+00 0.  1.
          2   -1    0    0  501    0  0.00000000000E+00 -0.00000000000E+00 -0.29943379892E+03  0.29943379892E+03  0.00000000000E+00 0. -1.
         25    2    1    2    0    0  0.67448222299E+02 -0.15028143184E+03 -0.98712361725E+02  0.22918310517E+03  0.12508794462E+03 0.  0.
         23    2    1    2    0    0 -0.67448222299E+02  0.15028143184E+03 -0.70479825527E+02  0.20049230541E+03  0.89977704329E+02 0.  0.
          5    1    3    3  502    0  0.10122481339E+03 -0.84376020641E+02 -0.72823870093E+02  0.15062059674E+03  0.41800000000E+01 0.  1.
         -5    1    3    3    0  502 -0.33776591096E+02 -0.65905411200E+02 -0.25888491632E+02  0.78562508428E+02  0.41800000000E+01 0.  1.
        -11    1    4    4    0    0 -0.31510526200E+02  0.17008554283E+02 -0.49165533313E+02  0.60823135780E+02  0.00000000000E+00 0. -1.
         11    1    4    4    0    0 -0.35937696099E+02  0.13327287756E+03 -0.21314292213E+02  0.13966916963E+03  0.00000000000E+00 0.  1.
</event>
<event>
 8    1  0.6692409E-009  0.1473942E+03  0.7561462E-02  0.1203712E+00
          1   -1    0    0  501    0  0.00000000000E+00  0.00000000000E+00  0.57321943137E+03  0.57321943137E+03  0.00000000000E+00 0. -1.
         -1   -1    0    0    0  501 -0.00000000000E+00 -0.00000000000E+00 -0.57551671356E+02  0.57551671356E+02  0.00000000000E+00 0.  1.
         25    2    1    2    0    0  0.90052892308E+02  0.94485943071E+02  0.14026638440E+03  0.22881977620E+03  0.12508682798E+03 0.  0.
         23    2    1    2    0    0 -0.90052892308E+02 -0.94485943071E+02  0.37540137561E+03  0.40195132653E+03  0.60012992217E+02 0.  0.
          5    1    3    3  502    0  0.93027403924E+02  0.47981215162E+02  0.14807732395E+03  0.18138539401E+03  0.41800000000E+01 0.  1.
         -5    1    3    3    0  502 -0.29745116164E+01  0.46504727909E+02 -0.78109395524E+01  0.47434382192E+02  0.41800000000E+01 0.  1.
        -11    1    4    4    0    0 -0.79443448289E+02 -0.42321004679E+02  0.22084523687E+03  0.23848469041E+03  0.00000000000E+00 0. -1.
         11    1    4    4    0    0 -0.10609444019E+02 -0.52164938393E+02  0.15455613875E+03  0.16346663612E+03  0.00000000000E+00 0.  1.
</event>
<event>
 8    1  0.6692409E-009  0.1434457E+03  0.7561462E-02  0.1208766E+00
          1   -1    0    0  501    0  0.00000000000E+00  0.00000000000E+00  0.27722952962E+03  0.27722952962E+03  0.00000000000E+00 0. -1.
         -1   -1    0    0    0  501 -0.00000000000E+00 -0.00000000000E+00 -0.87067098078E+02  0.87067098078E+02  0.00000000000E+00 0.  1.
         25    2    1    2    0    0  0.36326552694E+02  0.10301699319E+03  0.11403590754E+03  0.20145393767E+03  0.12508949386E+03 0.  0.
         23    2    1    2    0    0 -0.36326552694E+02 -0.10301699319E+03  0.76126524005E+02  0.16284269004E+03  0.93756998268E+02 0.  0.
          5    1    3    3  502    0  0.21006013795E+02  0.11987107157E+03  0.12613878449E+03  0.17532481789E+03  0.41800000000E+01 0.  1.
         -5    1    3    3    0  502  0.15320538899E+02 -0.16854078378E+02 -0.12102876945E+02  0.26129119780E+02  0.41800000000E+01 0.  1.
        -11    1    4    4    0    0 -0.33087459275E+02  0.53778215561E+01  0.70112849538E+01  0.34247029691E+02  0.00000000000E+00 0.  1.
         11    1    4    4    0    0 -0.32390934191E+01 -0.10839481475E+03  0.69115239051E+02  0.12859566035E+03  0.00000000000E+00 0. -1.
</event>
<event>
 8    1  0.6692409E-009  0.8496865E+02  0.7561462E-02  0.1315515E+00
          2   -1    0    0  501    0  0.00000000000E+00  0.00000000000E+00  0.12032426162E+03  0.12032426162E+03  0.00000000000E+00 0. -1.
         -2   -1    0    0    0  501 -0.00000000000E+00 -0.00000000000E+00 -0.11165940883E+03  0.11165940883E+03  0.00000000000E+00 0.  1.
         25    2    1    2    0    0 -0.35845160524E+02 -0.95598759151E+01 -0.13159499122E+02  0.13113763415E+03  0.12509052687E+03 0.  0.
         23    2    1    2    0    0  0.35845160524E+02  0.95598759151E+01  0.21824351910E+02  0.10084603630E+03  0.91199528181E+02 0.  0.
          5    1    3    3  502    0 -0.38257524709E+02 -0.52047462698E+02  0.29142500868E+02  0.70988268939E+02  0.41800000000E+01 0.  1.
         -5    1    3    3    0  502  0.24123641858E+01  0.42487586783E+02 -0.42301999990E+02  0.60149365207E+02  0.41800000000E+01 0.  1.
        -11    1    4    4    0    0  0.48636916730E+02  0.99670205999E+01 -0.22647521724E+02  0.54569235003E+02  0.00000000000E+00 0.  1.
         11    1    4    4    0    0 -0.12791756206E+02 -0.40714468480E+00  0.44471873634E+02  0.46276801295E+02  0.00000000000E+00 0. -1.
</event>
<event>
 8    1  0.6692409E-009  0.1609611E+03  0.7561462E-02  0.1187616E+00
         -2   -1    0    0    0  501 -0.00000000000E+00  0.00000000000E+00  0.46071221844E+02  0.46071221844E+02  0.00000000000E+00 0. -1.
          2   -1    0    0  501    0  0.00000000000E+00 -0.00000000000E+00 -0.74917797560E+03  0.74917797560E+03  0.00000000000E+00 0.  1.
         25    2    1    2    0    0  0.14474819485E+03  0.37114008363E+02 -0.40088968857E+03  0.44574660364E+03  0.12509197708E+03 0.  0.
         23    2    1    2    0    0 -0.14474819485E+03 -0.37114008363E+02 -0.30221706519E+03  0.34950259380E+03  0.92127189538E+02 0.  0.
          5    1    3    3  502    0  0.48062014838E+02  0.25281085777E+02 -0.29846526347E+02  0.62107794224E+02  0.41800000000E+01 0.  1.
         -5    1    3    3    0  502  0.96686180014E+02  0.11832922586E+02 -0.37104316222E+03  0.38363880942E+03  0.41800000000E+01 0.  1.
        -11    1    4    4    0    0 -0.58678674194E+02  0.25035324135E+02 -0.15825099272E+03  0.17062629034E+03  0.00000000000E+00 0.  1.
         11    1    4    4    0    0 -0.86069520657E+02 -0.62149332498E+02 -0.14396607247E+03  0.17887630346E+03  0.00000000000E+00 0. -1.
</event>
<event>
 8    1  0.6692409E-009  0.1188658E+03  0.7561462E-02  0.1244980E+00
         -1   -1    0    0    0  501 -0.00000000000E+00  0.00000000000E+00  0.25882960342E+02  0.25882960342E+02  0.00000000000E+00 0.  1.
          1   -1    0    0  501    0  0.00000000000E+00 -0.00000000000E+00 -0.60000407582E+03  0.60000407582E+03  0.00000000000E+00 0. -1.
         25    2    1    2    0    0 -0.40980879878E+01 -0.61870500455E+02 -0.34904535557E+03  0.37593170920E+03  0.12508891470E+03 0.  0.
         23    2    1    2    0    0  0.40980879878E+01  0.61870500455E+02 -0.22507575991E+03  0.24995532697E+03  0.89296218458E+02 0.  0.
          5    1    3    3  502    0  0.56250694044E+02 -0.19803489306E+02 -0.10301082962E+03  0.11910089079E+03  0.41800000000E+01 0. -1.
         -5    1    3    3    0  502 -0.60348782031E+02 -0.42067011148E+02 -0.24603452595E+03  0.25683081840E+03  0.41800000000E+01 0. -1.
        -11    1    4    4    0    0 -0.48765096931E+01  0.82043764600E+02 -0.14274367109E+03  0.16471404097E+03  0.00000000000E+00 0. -1.
         11    1    4    4    0    0  0.89745976809E+01 -0.20173264145E+02 -0.82332088817E+02  0.85241285999E+02  0.00000000000E+00 0.  1.
</event>
<event>
 8    1  0.6692409E-009  0.1065632E+03  0.7561462E-02  0.1267070E+00
         -2   -1    0    0    0  501 -0.00000000000E+00  0.00000000000E+00  0.51872099931E+02  0.51872099931E+02  0.00000000000E+00 0.  1.
          2   -1    0    0  501    0  0.00000000000E+00 -0.00000000000E+00 -0.25510234752E+03  0.25510234752E+03  0.00000000000E+00 0. -1.
         25    2    1    2    0    0  0.23398349970E+02  0.10175711756E+02 -0.68981430679E+02  0.14512738427E+03  0.12510991965E+03 0.  0.
         23    2    1    2    0    0 -0.23398349970E+02 -0.10175711756E+02 -0.13424881691E+03  0.16184706318E+03  0.86721964510E+02 0.  0.
          5    1    3    3  502    0  0.22442013606E+02  0.66502795830E+02 -0.46669598896E+02  0.84390696697E+02  0.41800000000E+01 0.  1.
         -5    1    3    3    0  502  0.95633636388E+00 -0.56327084074E+02 -0.22311831782E+02  0.60736687570E+02  0.41800000000E+01 0.  1.
        -11    1    4    4    0    0 -0.54138695872E+02 -0.65153386235E+00 -0.10599416762E+03  0.11902178984E+03  0.00000000000E+00 0.  1.
         11    1    4    4    0    0  0.30740345901E+02 -0.95241778932E+01 -0.28254649295E+02  0.42825273350E+02  0.00000000000E+00 0. -1.
</event>
<event>
 8    1  0.6692409E-009  0.1357404E+03  0.7561462E-02  0.1219178E+00
          1   -1    0    0  501    0  0.00000000000E+00  0.00000000000E+00  0.71235436669E+03  0.71235436669E+03  0.00000000000E+00 0. -1.
         -1   -1    0    0    0  501 -0.00000000000E+00 -0.00000000000E+00 -0.47629251445E+02  0.47629251445E+02  0.00000000000E+00 0.  1.
         25    2    1    2    0    0 -0.10473846082E+03 -0.14436831777E+02  0.56476976561E+03  0.58803959436E+03  0.12508840515E+03 0.  0.
         23    2    1    2    0    0  0.10473846082E+03  0.14436831777E+02  0.99955349633E+02  0.17194402377E+03  0.91624822534E+02 0.  0.
          5    1    3    3  502    0 -0.12171418266E+03 -0.30375566704E+02  0.53739489132E+03  0.55185845915E+03  0.41800000000E+01 0.  1.
         -5    1    3    3    0  502  0.16975721841E+02  0.15938734927E+02  0.27374874288E+02  0.36181135214E+02  0.41800000000E+01 0.  1.
        -11    1    4    4    0    0  0.84063794414E+02 -0.15939459655E+02  0.26101515716E+02  0.89454329286E+02  0.00000000000E+00 0.  1.
         11    1    4    4    0    0  0.20674666403E+02  0.30376291432E+02  0.73853833918E+02  0.82489694486E+02  0.00000000000E+00 0. -1.
</event>
<event>
 8    1  0.6692409E-009  0.7424832E+02  0.7561462E-02  0.1346215E+00
         -1   -1    0    0    0  501 -0.00000000000E+00  0.00000000000E+00  0.93223835335E+02  0.93223835335E+02  0.00000000000E+00 0.  1.
          1   -1    0    0  501    0  0.00000000000E+00 -0.00000000000E+00 -0.19765699069E+03  0.19765699069E+03  0.00000000000E+00 0. -1.
         25    2    1    2    0    0 -0.69286434224E+02 -0.17205021117E+02 -0.14878789688E+02  0.14479381214E+03  0.12508895607E+03 0.  0.
         23    2    1    2    0    0  0.69286434224E+02  0.17205021117E+02 -0.89554365665E+02  0.14608701389E+03  0.90690729941E+02 0.  0.
          5    1    3    3  502    0 -0.31612801577E+01 -0.88326008725E+01 -0.62137180155E+02  0.62980235694E+02  0.41800000000E+01 0. -1.
         -5    1    3    3    0  502 -0.66125154066E+02 -0.83724202446E+01  0.47258390467E+02  0.81813576444E+02  0.41800000000E+01 0. -1.
        -11    1    4    4    0    0  0.55388590362E+02  0.12625681062E+02 -0.10830648046E+03  0.12230125704E+03  0.00000000000E+00 0. -1.
         11    1    4    4    0    0  0.13897843862E+02  0.45793400551E+01  0.18752114795E+02  0.23785756844E+02  0.00000000000E+00 0.  1.
</event>
<event>
 8    1  0.6692409E-009  0.6846011E+02  0.7561462E-02  0.1365409E+00
          2   -1    0    0  501    0  0.00000000000E+00  0.00000000000E+00  0.35986242250E+02  0.35986242250E+02  0.00000000000E+00 0.  1.
         -2   -1    0    0    0  501 -0.00000000000E+00 -0.00000000000E+00 -0.66799292941E+03  0.66799292941E+03  0.00000000000E+00 0. -1.
         25    2    1    2    0    0  0.42818981299E+02 -0.22891171431E+02 -0.56904616679E+03  0.58465285925E+03  0.12509178634E+03 0.  0.
         23    2    1    2    0    0 -0.42818981299E+02  0.22891171431E+02 -0.62960520375E+02  0.11932631241E+03  0.88979047074E+02 0.  0.
          5    1    3    3  502    0  0.63283228074E+02 -0.11241577259E+02 -0.55084703824E+03  0.55459992062E+03  0.41800000000E+01 0. -1.
         -5    1    3    3    0  502 -0.20464246775E+02 -0.11649594172E+02 -0.18199128542E+02  0.30052938627E+02  0.41800000000E+01 0. -1.
        -11    1    4    4    0    0 -0.12689876234E+02  0.57632503335E+01  0.22859112618E+02  0.26772878869E+02  0.00000000000E+00 0.  1.
         11    1    4    4    0    0 -0.30129105064E+02  0.17127921098E+02 -0.85819632992E+02  0.92553433540E+02  0.00000000000E+00 0. -1.
</event>
<event>
 8    1  0.6692409E-009  0.6539003E+02  0.7561462E-02  0.1376510E+00
          3   -1    0    0  501    0  0.00000000000E+00  0.00000000000E+00  0.37589262242E+03  0.37589262242E+03  0.00000000000E+00 0. -1.
         -3   -1    0    0    0  501 -0.00000000000E+00 -0.00000000000E+00 -0.45082001441E+02  0.45082001441E+02  0.00000000000E+00 0.  1.
         25    2    1    2    0    0  0.15155440977E+02 -0.15076237783E+02  0.29235131298E+03  0.31870564596E+03  0.12508804191E+03 0.  0.
         23    2    1    2    0    0 -0.15155440977E+02  0.15076237783E+02  0.38459308002E+02  0.10226897790E+03  0.92319256564E+02 0.  0.
          5    1    3    3  502    0  0.86306664954E+01  0.30045710168E+02  0.10620475080E+02  0.33279122503E+02  0.41800000000E+01 0.  1.
         -5    1    3    3    0  502  0.65247744813E+01 -0.45121947951E+02  0.28173083790E+03  0.28542652346E+03  0.41800000000E+01 0.  1.
        -11    1    4    4    0    0  0.14848748381E+02  0.17974784200E+02  0.60558909700E+02  0.64891908121E+02  0.00000000000E+00 0. -1.
         11    1    4    4    0    0 -0.30004189358E+02 -0.28985464168E+01 -0.22099601698E+02  0.37377069783E+02  0.00000000000E+00 0.  1.
</event>
<event>
 8    1  0.6692409E-009  0.3256472E+03  0.7561462E-02  0.1073079E+00
         -2   -1    0    0    0  501 -0.00000000000E+00  0.00000000000E+00  0.17088598362E+03  0.17088598362E+03  0.00000000000E+00 0.  1.
          2   -1    0    0  501    0  0.00000000000E+00 -0.00000000000E+00 -0.65237831801E+03  0.65237831801E+03  0.00000000000E+00 0. -1.
         25    2    1    2    0    0  0.28296565362E+03  0.13963852586E+03 -0.25118227358E+03  0.42226905029E+03  0.12510050857E+03 0.  0.
         23    2    1    2    0    0 -0.28296565362E+03 -0.13963852586E+03 -0.23031006081E+03  0.40099525134E+03  0.90476452513E+02 0.  0.
          5    1    3    3  502    0  0.17786112006E+03  0.12360143635E+03 -0.22573179931E+03  0.31286452454E+03  0.41800000000E+01 0.  1.
         -5    1    3    3    0  502  0.10510453356E+03  0.16037089506E+02 -0.25450474273E+02  0.10940452575E+03  0.41800000000E+01 0.  1.
        -11    1    4    4    0    0 -0.26098109941E+03 -0.93630030731E+02 -0.19471194142E+03  0.33880740405E+03  0.00000000000E+00 0.  1.
         11    1    4    4    0    0 -0.21984554203E+02 -0.46008495125E+02 -0.35598119394E+02  0.62187847298E+02  0.00000000000E+00 0. -1.
</event>
<event>
 8    1  0.6692409E-009  0.8044347E+02  0.7561462E-02  0.1327798E+00
          3   -1    0    0  501    0  0.00000000000E+00  0.00000000000E+00  0.66112832417E+02  0.66112832417E+02  0.00000000000E+00 0. -1.
         -3   -1    0    0    0  501 -0.00000000000E+00 -0.00000000000E+00 -0.20783162747E+03  0.20783162747E+03  0.00000000000E+00 0.  1.
         25    2    1    2    0    0 -0.47723902492E+02  0.78366652376E+01 -0.63306671026E+02  0.14830241146E+03  0.12508751519E+03 0.  0.
         23    2    1    2    0    0  0.47723902492E+02 -0.78366652376E+01 -0.78412124022E+02  0.12564204843E+03  0.85431135708E+02 0.  0.
          5    1    3    3  502    0 -0.50579108347E+02  0.30597665288E+02  0.19412196563E+02  0.62359995972E+02  0.41800000000E+01 0.  1.
         -5    1    3    3    0  502  0.28552058555E+01 -0.22761000050E+02 -0.82718867589E+02  0.85942415483E+02  0.41800000000E+01 0.  1.
        -11    1    4    4    0    0  0.37324399973E+01  0.23819920302E+02 -0.65684732465E+02  0.69970020656E+02  0.00000000000E+00 0.  1.
         11    1    4    4    0    0  0.43991462494E+02 -0.31656585539E+02 -0.12727391556E+02  0.55672027772E+02  0.00000000000E+00 0. -1.
</event>
<event>
 8    1  0.6692409E-009  0.1580183E+03  0.7561462E-02  0.1190952E+00
          1   -1    0    0  501    0  0.00000000000E+00  0.00000000000E+00  0.51181202042E+03  0.51181202042E+03  0.00000000000E+00 0. -1.
         -1   -1    0    0    0  501 -0.00000000000E+00 -0.00000000000E+00 -0.69599851349E+02  0.69599851349E+02  0.00000000000E+00 0.  1.
         25    2    1    2    0    0 -0.15061468598E+03 -0.29873664393E+02  0.24034688646E+03  0.31143920977E+03  0.12510210269E+03 0.  0.
         23    2    1    2    0    0  0.15061468598E+03  0.29873664393E+02  0.20186528261E+03  0.26997266199E+03  0.92511763812E+02 0.  0.
          5    1    3    3  502    0 -0.94681077432E+02 -0.42532579798E+02  0.55336410299E+02  0.11769926709E+03  0.41800000000E+01 0. -1.
         -5    1    3    3    0  502 -0.55933608546E+02  0.12658915405E+02  0.18501047616E+03  0.19373994269E+03  0.41800000000E+01 0. -1.
        -11    1    4    4    0    0  0.11033617803E+03  0.30134332413E+02  0.74771828729E+02  0.13664910005E+03  0.00000000000E+00 0.  1.
         11    1    4    4    0    0  0.40278507949E+02 -0.26066801993E+00  0.12709345388E+03  0.13332356195E+03  0.00000000000E+00 0. -1.
</event>
<event>
 8    1  0.6692409E-009  0.1032359E+03  0.7561462E-02  0.1273635E+00
          2   -1    0    0  501    0  0.00000000000E+00  0.00000000000E+00  0.65978471864E+03  0.65978471864E+03  0.00000000000E+00 0.  1.
         -2   -1    0    0    0  501 -0.00000000000E+00 -0.00000000000E+00 -0.19717188805E+02  0.19717188805E+02  0.00000000000E+00 0. -1.
         25    2    1    2    0    0 -0.35347955878E+02  0.10669991329E+02  0.31697508569E+03  0.34275850729E+03  0.12508742010E+03 0.  0.
         23    2    1    2    0    0  0.35347955878E+02 -0.10669991329E+02  0.32309244414E+03  0.33674340016E+03  0.87430334482E+02 0.  0.
          5    1    3    3  502    0  0.24181252448E+02  0.39005703249E+02  0.22407677407E+03  0.22876636757E+03  0.41800000000E+01 0.  1.
         -5    1    3    3    0  502 -0.59529208326E+02 -0.28335711920E+02  0.92898311624E+02  0.11399213971E+03  0.41800000000E+01 0.  1.
        -11    1    4    4    0    0 -0.43379082015E+00  0.35730168398E+02  0.10483104958E+03  0.11075370000E+03  0.00000000000E+00 0.  1.
         11    1    4    4    0    0  0.35781746698E+02 -0.46400159727E+02  0.21826139456E+03  0.22598970016E+03  0.00000000000E+00 0. -1.
</event>
<event>
 8    1  0.6692409E-009  0.5284288E+02  0.7561462E-02  0.1430584E+00
          2   -1    0    0  501    0  0.00000000000E+00  0.00000000000E+00  0.15417161172E+03  0.15417161172E+03  0.00000000000E+00 0. -1.
         -2   -1    0    0    0  501 -0.00000000000E+00 -0.00000000000E+00 -0.82620670813E+02  0.82620670813E+02  0.00000000000E+00 0.  1.
         25    2    1    2    0    0 -0.11508405250E+02 -0.19889017397E+02  0.62874785496E+02  0.14187736380E+03  0.12509169158E+03 0.  0.
         23    2    1    2    0    0  0.11508405250E+02  0.19889017397E+02  0.86761554127E+01  0.94914918735E+02  0.91681785112E+02 0.  0.
          5    1    3    3  502    0 -0.11186737719E+02 -0.22987818705E+02 -0.35177537140E+02  0.43686547458E+02  0.41800000000E+01 0. -1.
         -5    1    3    3    0  502 -0.32166753080E+00  0.30988013079E+01  0.98052322636E+02  0.98190816341E+02  0.41800000000E+01 0. -1.
        -11    1    4    4    0    0  0.34928101278E+02 -0.10248222085E+02  0.33430816308E+02  0.49422846880E+02  0.00000000000E+00 0. -1.
         11    1    4    4    0    0 -0.23419696028E+02  0.30137239482E+02 -0.24754660895E+02  0.45492071855E+02  0.00000000000E+00 0.  1.
</event>
<event>
 8    1  0.6692409E-009  0.7643360E+02  0.7561462E-02  0.1339488E+00
          1   -1    0    0  501    0  0.00000000000E+00  0.00000000000E+00  0.48581512915E+03  0.48581512915E+03  0.00000000000E+00 0. -1.
         -1   -1    0    0    0  501 -0.00000000000E+00 -0.00000000000E+00 -0.28496997266E+02  0.28496997266E+02  0.00000000000E+00 0.  1.
         25    2    1    2    0    0  0.32935852660E+02 -0.27440310207E+02  0.27177269721E+03  0.30223604500E+03  0.12509391246E+03 0.  0.
         23    2    1    2    0    0 -0.32935852660E+02  0.27440310207E+02  0.18554543468E+03  0.21207608142E+03  0.93334961109E+02 0.  0.
          5    1    3    3  502    0  0.35555768064E+02 -0.27637558510E+02  0.28476659836E+03  0.28833580289E+03  0.41800000000E+01 0.  1.
         -5    1    3    3    0  502 -0.26199154033E+01  0.19724830349E+00 -0.12993901154E+02  0.13900242114E+02  0.41800000000E+01 0.  1.
        -11    1    4    4    0    0  0.31737065238E+02  0.20212857369E+02  0.69125678432E+02  0.78702988073E+02  0.00000000000E+00 0. -1.
         11    1    4    4    0    0 -0.64672917899E+02  0.72274528380E+01  0.11641975625E+03  0.13337309335E+03  0.00000000000E+00 0.  1.
</event>
<event>
 8    1  0.6692409E-009  0.2067030E+03  0.7561462E-02  0.1144204E+00
         -2   -1    0    0    0  501 -0.00000000000E+00  0.00000000000E+00  0.23649558859E+02  0.23649558859E+02  0.00000000000E+00 0.  1.
          2   -1    0    0  501    0  0.00000000000E+00 -0.00000000000E+00 -0.25114635650E+04  0.25114635650E+04  0.00000000000E+00 0. -1.
         25    2    1    2    0    0  0.19301278899E+03 -0.18330508749E+02 -0.17419744854E+04  0.17571889391E+04  0.12509162938E+03 0.  0.
         23    2    1    2    0    0 -0.19301278899E+03  0.18330508749E+02 -0.74583952069E+03  0.77792418468E+03  0.10629911676E+03 0.  0.
          5    1    3    3  502    0  0.72515391062E+02  0.41958120079E+02 -0.41553334568E+03  0.42391555711E+03  0.41800000000E+01 0.  1.
         -5    1    3    3    0  502  0.12049739793E+03 -0.60288628828E+02 -0.13264411397E+04  0.13332733820E+04  0.41800000000E+01 0.  1.
        -11    1    4    4    0    0 -0.10696060786E+03  0.11371529913E+01 -0.58503965736E+03  0.59473798049E+03  0.00000000000E+00 0. -1.
         11    1    4    4    0    0 -0.86052181135E+02  0.17193355758E+02 -0.16079986333E+03  0.18318620420E+03  0.00000000000E+00 0.  1.
</event>
<event>
 8    1  0.6692409E-009  0.1068798E+03  0.7561462E-02  0.1266459E+00
          1   -1    0    0  501    0  0.00000000000E+00  0.00000000000E+00  0.16179362522E+03  0.16179362522E+03  0.00000000000E+00 0. -1.
         -1   -1    0    0    0  501 -0.00000000000E+00 -0.00000000000E+00 -0.12392958158E+03  0.12392958158E+03  0.00000000000E+00 0.  1.
         25    2    1    2    0    0  0.39431180479E+02 -0.39604991333E+02  0.93155205327E+02  0.16567728601E+03  0.12509075700E+03 0.  0.
         23    2    1    2    0    0 -0.39431180479E+02  0.39604991333E+02 -0.55291161691E+02  0.12004592079E+03  0.90722308203E+02 0.  0.
          5    1    3    3  502    0 -0.30006032154E+02 -0.26158257277E+02  0.85511396156E+02  0.94415505411E+02  0.41800000000E+01 0. -1.
         -5    1    3    3    0  502  0.69437212633E+02 -0.13446734056E+02  0.76438091709E+01  0.71261780596E+02  0.41800000000E+01 0. -1.
        -11    1    4    4    0    0 -0.49116707600E+01 -0.27224891661E+02 -0.29711944684E+02  0.40597030588E+02  0.00000000000E+00 0.  1.
         11    1    4    4    0    0 -0.34519509719E+02  0.66829882994E+02 -0.25579217006E+02  0.79448890206E+02  0.00000000000E+00 0. -1.
</event>
<event>
 8    1  0.6692409E-009  0.8774116E+02  0.7561462E-02  0.1308416E+00
          1   -1    0    0  501    0  0.00000000000E+00  0.00000000000E+00  0.91244863383E+02  0.91244863383E+02  0.00000000000E+00 0. -1.
         -1   -1    0    0    0  501 -0.00000000000E+00 -0.00000000000E+00 -0.18276268277E+03  0.18276268277E+03  0.00000000000E+00 0.  1.
         25    2    1    2    0    0  0.23973599215E+01  0.71236674379E+02 -0.46181146084E+02  0.15119717771E+03  0.12508987642E+03 0.  0.
         23    2    1    2    0    0 -0.23973599215E+01 -0.71236674379E+02 -0.45336673307E+02  0.12281036845E+03  0.89143488489E+02 0.  0.
          5    1    3    3  502    0 -0.42198148746E+01 -0.11985459772E+02 -0.64291591336E+02  0.65668403361E+02  0.41800000000E+01 0.  1.
         -5    1    3    3    0  502  0.66171747961E+01  0.83222134150E+02  0.18110445252E+02  0.85528774351E+02  0.41800000000E+01 0.  1.
        -11    1    4    4    0    0 -0.14206478488E+02 -0.13545952024E+02  0.24543071663E+02  0.31427364095E+02  0.00000000000E+00 0. -1.
         11    1    4    4    0    0  0.11809118567E+02 -0.57690722354E+02 -0.69879744970E+02  0.91383004351E+02  0.00000000000E+00 0.  1.
</event>
<event>
 8    1  0.6692409E-009  0.1068598E+03  0.7561462E-02  0.1266498E+00
          1   -1    0    0  501    0  0.00000000000E+00  0.00000000000E+00  0.63504505463E+02  0.63504505463E+02  0.00000000000E+00 0. -1.
         -1   -1    0    0    0  501 -0.00000000000E+00 -0.00000000000E+00 -0.23412760522E+03  0.23412760522E+03  0.00000000000E+00 0.  1.
         25    2    1    2    0    0  0.11556792728E+02 -0.24815814599E+02 -0.34306765566E+02  0.13256885194E+03  0.12509261461E+03 0.  0.
         23    2    1    2    0    0 -0.11556792728E+02  0.24815814599E+02 -0.13631633419E+03  0.16506325874E+03  0.88962645568E+02 0.  0.
          5    1    3    3  502    0 -0.95650996919E+01 -0.70785217103E+02 -0.39176047446E+02  0.81573728528E+02  0.41800000000E+01 0.  1.
         -5    1    3    3    0  502  0.21121892420E+02  0.45969402505E+02  0.48692818804E+01  0.50995123414E+02  0.41800000000E+01 0.  1.
        -11    1    4    4    0    0 -0.29565370163E+02 -0.24821604732E+02 -0.73340089487E+02  0.82879381636E+02  0.00000000000E+00 0. -1.
         11    1    4    4    0    0  0.18008577435E+02  0.49637419331E+02 -0.62976244706E+02  0.82183877107E+02  0.00000000000E+00 0.  1.
</event>
<event>
 8    1  0.6692409E-009  0.1349190E+03  0.7561462E-02  0.1220334E+00
          1   -1    0    0  501    0  0.00000000000E+00  0.00000000000E+00  0.18357202489E+03  0.18357202489E+03  0.00000000000E+00 0. -1.
         -1   -1    0    0    0  501 -0.00000000000E+00 -0.00000000000E+00 -0.11128505092E+03  0.11128505092E+03  0.00000000000E+00 0.  1.
         25    2    1    2    0    0  0.87535048948E+02  0.30990364776E+02  0.39528110248E+02  0.16072628642E+03  0.12509068768E+03 0.  0.
         23    2    1    2    0    0 -0.87535048948E+02 -0.30990364776E+02  0.32758863722E+02  0.13413078938E+03  0.91077648215E+02 0.  0.
          5    1    3    3  502    0  0.94047207009E+02 -0.25694937125E+02  0.16094496958E+02  0.98902033206E+02  0.41800000000E+01 0.  1.
         -5    1    3    3    0  502 -0.65121580606E+01  0.56685301901E+02  0.23433613290E+02  0.61824253218E+02  0.41800000000E+01 0.  1.
        -11    1    4    4    0    0 -0.47300966413E+02 -0.51464082854E+02 -0.11582693813E+02  0.70852607881E+02  0.00000000000E+00 0.  1.
         11    1    4    4    0    0 -0.40234082535E+02  0.20473718078E+02  0.44341557535E+02  0.63278181500E+02  0.00000000000E+00 0. -1.
</event>
<event>
 8    1  0.6692409E-009  0.1201588E+03  0.7561462E-02  0.1242835E+00
          1   -1    0    0  501    0  0.00000000000E+00  0.00000000000E+00  0.21646403650E+02  0.21646403650E+02  0.00000000000E+00 0. -1.
         -1   -1    0    0    0  501 -0.00000000000E+00 -0.00000000000E+00 -0.69730389013E+03  0.69730389013E+03  0.00000000000E+00 0.  1.
         25    2    1    2    0    0 -0.52940952313E+02  0.20673327129E+02 -0.37597895597E+03  0.40029725940E+03  0.12509032603E+03 0.  0.
         23    2    1    2    0    0  0.52940952313E+02 -0.20673327129E+02 -0.29967853051E+03  0.31865303437E+03  0.92208479996E+02 0.  0.
          5    1    3    3  502    0  0.37175315795E+02  0.26598428170E+02 -0.10380360487E+03  0.11349952101E+03  0.41800000000E+01 0. -1.
         -5    1    3    3    0  502 -0.90116268108E+02 -0.59251010404E+01 -0.27217535110E+03  0.28679773839E+03  0.41800000000E+01 0. -1.
        -11    1    4    4    0    0 -0.13698923385E+02  0.21246713419E+02 -0.11753781815E+03  0.12022571284E+03  0.00000000000E+00 0. -1.
         11    1    4    4    0    0  0.66639875698E+02 -0.41920040548E+02 -0.18214071235E+03  0.19842732153E+03  0.00000000000E+00 0.  1.
</event>
<event>
 8    1  0.6692409E-009  0.3279863E+03  0.7561462E-02  0.1072031E+00
          2   -1    0    0  501    0  0.00000000000E+00  0.00000000000E+00  0.80514974692E+03  0.80514974692E+03  0.00000000000E+00 0.  1.
         -2   -1    0    0    0  501 -0.00000000000E+00 -0.00000000000E+00 -0.14607928746E+03  0.14607928746E+03  0.00000000000E+00 0. -1.
         25    2    1    2    0    0 -0.27755097061E+03 -0.16074122196E+03  0.26099098658E+03  0.43201710631E+03  0.12510077277E+03 0.  0.
         23    2    1    2    0    0  0.27755097061E+03  0.16074122196E+03  0.39807947288E+03  0.51921192807E+03  0.90782585349E+02 0.  0.
          5    1    3    3  502    0 -0.31478860589E+02 -0.26359323749E+01  0.84673077100E+02  0.90470266878E+02  0.41800000000E+01 0. -1.
         -5    1    3    3    0  502 -0.24607211002E+03 -0.15810528959E+03  0.17631790948E+03  0.34154683944E+03  0.41800000000E+01 0. -1.
        -11    1    4    4    0    0  0.34628633624E+02 -0.83397093224E+01  0.27821619865E+02  0.45196632067E+02  0.00000000000E+00 0.  1.
         11    1    4    4    0    0  0.24292233698E+03  0.16908093129E+03  0.37025785301E+03  0.47401529600E+03  0.00000000000E+00 0. -1.
</event>
<event>
 8    1  0.6692409E-009  0.7117692E+02  0.7561462E-02  0.1356136E+00
         -2   -1    0    0    0  501 -0.00000000000E+00  0.00000000000E+00  0.55994902192E+02  0.55994902192E+02  0.00000000000E+00 0. -1.
          2   -1    0    0  501    0  0.00000000000E+00 -0.00000000000E+00 -0.23542188737E+03  0.23542188737E+03  0.00000000000E+00 0.  1.
         25    2    1    2    0    0  0.16090067350E+02 -0.26522698270E+02 -0.12426882323E+03  0.17903437665E+03  0.12509286073E+03 0.  0.
         23    2    1    2    0    0 -0.16090067350E+02  0.26522698270E+02 -0.55158161956E+02  0.11238241292E+03  0.92871094057E+02 0.  0.
          5    1    3    3  502    0 -0.20493702001E+02  0.13771233734E+02  0.15179544608E+02  0.29283607612E+02  0.41800000000E+01 0. -1.
         -5    1    3    3    0  502  0.36583769351E+02 -0.40293932004E+02 -0.13944836783E+03  0.14975076904E+03  0.41800000000E+01 0. -1.
        -11    1    4    4    0    0 -0.30571183155E+02  0.34579699482E+02 -0.74047203812E+02  0.87254462626E+02  0.00000000000E+00 0.  1.
         11    1    4    4    0    0  0.14481115805E+02 -0.80570012121E+01  0.18889041856E+02  0.25127950289E+02  0.00000000000E+00 0. -1.
</event>
<event>
 8    1  0.6692409E-009  0.1125504E+03  0.7561462E-02  0.1255918E+00
         -2   -1    0    0    0  501 -0.00000000000E+00  0.00000000000E+00  0.34820990827E+02  0.34820990827E+02  0.00000000000E+00 0. -1.
          2   -1    0    0  501    0  0.00000000000E+00 -0.00000000000E+00 -0.50604198371E+03  0.50604198371E+03  0.00000000000E+00 0.  1.
         25    2    1    2    0    0  0.66213582579E+02 -0.67128468242E+01 -0.18794179235E+03  0.23536977085E+03  0.12509001115E+03 0.  0.
         23    2    1    2    0    0 -0.66213582579E+02  0.67128468242E+01 -0.28327920053E+03  0.30549320369E+03  0.93003716125E+02 0.  0.
          5    1    3    3  502    0  0.89194671046E+02 -0.22085519324E+01 -0.19150996283E+03  0.21131518002E+03  0.41800000000E+01 0. -1.
         -5    1    3    3    0  502 -0.22981088468E+02 -0.45042948919E+01  0.35681704747E+01  0.24054590833E+02  0.41800000000E+01 0. -1.
        -11    1    4    4    0    0 -0.60488207128E+02 -0.35002814188E+02 -0.20534552664E+03  0.21691197642E+03  0.00000000000E+00 0. -1.
         11    1    4    4    0    0 -0.57253754508E+01  0.41715661012E+02 -0.77933673891E+02  0.88581227266E+02  0.00000000000E+00 0.  1.
</event>
<event>
 8    1  0.6692409E-009  0.1406214E+03  0.7561462E-02  0.1212495E+00
         -2   -1    0    0    0  501 -0.00000000000E+00  0.00000000000E+00  0.99086135496E+02  0.99086135496E+02  0.00000000000E+00 0. -1.
          2   -1    0    0  501    0  0.00000000000E+00 -0.00000000000E+00 -0.35123789517E+03  0.35123789517E+03  0.00000000000E+00 0.  1.
         25    2    1    2    0    0 -0.12099855504E+03  0.71047735275E+02 -0.20133145925E+03  0.27544509986E+03  0.12508883062E+03 0.  0.
         23    2    1    2    0    0  0.12099855504E+03 -0.71047735275E+02 -0.50820300429E+02  0.17487893081E+03  0.91167464009E+02 0.  0.
          5    1    3    3  502    0 -0.41968193968E+02  0.30129055868E+02  0.36282417217E+01  0.51958886155E+02  0.41800000000E+01 0.  1.
         -5    1    3    3    0  502 -0.79030361074E+02  0.40918679407E+02 -0.20495970097E+03  0.22348621371E+03  0.41800000000E+01 0.  1.
        -11    1    4    4    0    0  0.17085367656E+02 -0.10339398319E+02 -0.50743395263E+02  0.54531689029E+02  0.00000000000E+00 0.  1.
         11    1    4    4    0    0  0.10391318739E+03 -0.60708336957E+02 -0.76905166327E-01  0.12034724178E+03  0.00000000000E+00 0. -1.
</event>
<event>
 8    1  0.6692409E-009  0.1519361E+03  0.7561462E-02  0.1198114E+00
          2   -1    0    0  501    0  0.00000000000E+00  0.00000000000E+00  0.46159969156E+02  0.46159969156E+02  0.00000000000E+00 0. -1.
         -2   -1    0    0    0  501 -0.00000000000E+00 -0.00000000000E+00 -0.58004447114E+03  0.58004447114E+03  0.00000000000E+00 0.  1.
         25    2    1    2    0    0 -0.71913677848E+02 -0.92636305648E+02 -0.21640663381E+03  0.27610593860E+03  0.12509834525E+03 0.  0.
         23    2    1    2    0    0  0.71913677848E+02  0.92636305648E+02 -0.31747786817E+03  0.35009850170E+03  0.89575118917E+02 0.  0.
          5    1    3    3  502    0 -0.31536066961E+02  0.21090610856E+02 -0.14470403137E+02  0.40819141988E+02  0.41800000000E+01 0. -1.
         -5    1    3    3    0  502 -0.40377610887E+02 -0.11372691650E+03 -0.20193623068E+03  0.23528679661E+03  0.41800000000E+01 0. -1.
        -11    1    4    4    0    0  0.60138424047E+02  0.93809437082E+01 -0.10177737218E+03  0.11858864043E+03  0.00000000000E+00 0. -1.
         11    1    4    4    0    0  0.11775253801E+02  0.83255361940E+02 -0.21570049599E+03  0.23150986127E+03  0.00000000000E+00 0.  1.
</event>
<event>
 8    1  0.6692409E-009  0.8592725E+02  0.7561462E-02  0.1313025E+00
          2   -1    0    0  501    0  0.00000000000E+00  0.00000000000E+00  0.52718269630E+03  0.52718269630E+03  0.00000000000E+00 0. -1.
         -2   -1    0    0    0  501 -0.00000000000E+00 -0.00000000000E+00 -0.28007863029E+02  0.28007863029E+02  0.00000000000E+00 0.  1.
         25    2    1    2    0    0  0.10866895468E+02 -0.30211127736E+02  0.38694679575E+03  0.40792645377E+03  0.12508144264E+03 0.  0.
         23    2    1    2    0    0 -0.10866895468E+02  0.30211127736E+02  0.11222803752E+03  0.14726410556E+03  0.89781861882E+02 0.  0.
          5    1    3    3  502    0  0.10413850745E+02  0.36047155172E+02  0.27646535443E+03  0.27903119948E+03  0.41800000000E+01 0. -1.
         -5    1    3    3    0  502  0.45304472358E+00 -0.66258282908E+02  0.11048144132E+03  0.12889525429E+03  0.41800000000E+01 0. -1.
        -11    1    4    4    0    0  0.84266322093E+01 -0.15750328023E+02  0.91587098499E+02  0.93312794272E+02  0.00000000000E+00 0. -1.
         11    1    4    4    0    0 -0.19293527678E+02  0.45961455759E+02  0.20640939025E+02  0.53951311287E+02  0.00000000000E+00 0.  1.
</event>
<event>
 8    1  0.6692409E-009  0.1023019E+03  0.7561462E-02  0.1275528E+00
         -2   -1    0    0    0  501 -0.00000000000E+00  0.00000000000E+00  0.98489361052E+01  0.98489361052E+01  0.00000000000E+00 0.  1.
          2   -1    0    0  501    0  0.00000000000E+00 -0.00000000000E+00 -0.12315617185E+04  0.12315617185E+04  0.00000000000E+00 0. -1.
         25    2    1    2    0    0 -0.26106716559E+01  0.53046961414E+00 -0.86394918008E+03  0.87296186741E+03  0.12508852537E+03 0.  0.
         23    2    1    2    0    0  0.26106716559E+01 -0.53046961414E+00 -0.35776360233E+03  0.36844878722E+03  0.88048944590E+02 0.  0.
          5    1    3    3  502    0 -0.55953298407E+02  0.20024061988E+02 -0.28147597264E+03  0.28771153998E+03  0.41800000000E+01 0. -1.
         -5    1    3    3    0  502  0.53342626751E+02 -0.19493592374E+02 -0.58247320744E+03  0.58525032743E+03  0.41800000000E+01 0. -1.
        -11    1    4    4    0    0  0.37656851786E+02  0.24579605074E+02 -0.18500106722E+03  0.19038799948E+03  0.00000000000E+00 0.  1.
         11    1    4    4    0    0 -0.35046180130E+02 -0.25110074688E+02 -0.17276253511E+03  0.17806078774E+03  0.00000000000E+00 0. -1.
</event>
<event>
 8    1  0.6692409E-009  0.1389940E+03  0.7561462E-02  0.1214689E+00
          2   -1    0    0  501    0  0.00000000000E+00  0.00000000000E+00  0.60253735199E+03  0.60253735199E+03  0.00000000000E+00 0.  1.
         -2   -1    0    0    0  501 -0.00000000000E+00 -0.00000000000E+00 -0.87205111634E+02  0.87205111634E+02  0.00000000000E+00 0. -1.
         25    2    1    2    0    0  0.78160881645E+02  0.17945960340E+02  0.53143449247E+03  0.55181657940E+03  0.12509091334E+03 0.  0.
         23    2    1    2    0    0 -0.78160881645E+02 -0.17945960340E+02 -0.16102252113E+02  0.13792588423E+03  0.11105442857E+03 0.  0.
          5    1    3    3  502    0  0.89598990938E+02 -0.27814693059E+02  0.42612645848E+03  0.43635177018E+03  0.41800000000E+01 0.  1.
         -5    1    3    3    0  502 -0.11438109294E+02  0.45760653399E+02  0.10530803399E+03  0.11546480921E+03  0.41800000000E+01 0.  1.
        -11    1    4    4    0    0 -0.74864275701E+01 -0.55971456370E+02 -0.24885172315E+01  0.56524713568E+02  0.00000000000E+00 0. -1.
         11    1    4    4    0    0 -0.70674454075E+02  0.38025496030E+02 -0.13613734882E+02  0.81401170658E+02  0.00000000000E+00 0.  1.
</event>
<event>
 8    1  0.6692409E-009  0.1194224E+03  0.7561462E-02  0.1244053E+00
          1   -1    0    0  501    0  0.00000000000E+00  0.00000000000E+00  0.14113456304E+02  0.14113456304E+02  0.00000000000E+00 0. -1.
         -1   -1    0    0    0  501 -0.00000000000E+00 -0.00000000000E+00 -0.15356323008E+04  0.15356323008E+04  0.00000000000E+00 0.  1.
         25    2    1    2    0    0 -0.94292224185E+02 -0.10652427173E+02 -0.96141739151E+03  0.97415739983E+03  0.12511890823E+03 0.  0.
         23    2    1    2    0    0  0.94292224185E+02  0.10652427173E+02 -0.56010145299E+03  0.57558835728E+03  0.92648916055E+02 0.  0.
          5    1    3    3  502    0 -0.14161306727E+02  0.17293048618E+02 -0.67548786635E+03  0.67587049212E+03  0.41800000000E+01 0.  1.
         -5    1    3    3    0  502 -0.80130917457E+02 -0.27945475791E+02 -0.28592952516E+03  0.29828690771E+03  0.41800000000E+01 0.  1.
        -11    1    4    4    0    0  0.88658510071E+02 -0.27303082866E+02 -0.43276510663E+03  0.44259623502E+03  0.00000000000E+00 0.  1.
         11    1    4    4    0    0  0.56337141133E+01  0.37955510039E+02 -0.12733634636E+03  0.13299212226E+03  0.00000000000E+00 0. -1.
</event>
<event>
 8    1  0.6692409E-009  0.1433330E+03  0.7561462E-02  0.1208913E+00
         -2   -1    0    0    0  501 -0.00000000000E+00  0.00000000000E+00  0.46460899130E+02  0.46460899130E+02  0.00000000000E+00 0.  1.
          2   -1    0    0  501    0  0.00000000000E+00 -0.00000000000E+00 -0.58431168879E+03  0.58431168879E+03  0.00000000000E+00 0. -1.
         25    2    1    2    0    0  0.11993880611E+03 -0.19116680999E+01 -0.22773555267E+03  0.28618493976E+03  0.12509742647E+03 0.  0.
         23    2    1    2    0    0 -0.11993880611E+03  0.19116680999E+01 -0.31011523698E+03  0.34458764815E+03  0.90444543035E+02 0.  0.
          5    1    3    3  502    0 -0.11249714651E+02  0.45737386792E+00 -0.10749689327E+03  0.10816570497E+03  0.41800000000E+01 0. -1.
         -5    1    3    3    0  502  0.13118852076E+03 -0.23690419679E+01 -0.12023865940E+03  0.17801923479E+03  0.41800000000E+01 0. -1.
        -11    1    4    4    0    0 -0.57391143815E+02  0.40175856844E+02 -0.10041487186E+03  0.12243769580E+03  0.00000000000E+00 0.  1.
         11    1    4    4    0    0 -0.62547662294E+02 -0.38264188744E+02 -0.20970036513E+03  0.22214995236E+03  0.00000000000E+00 0. -1.
</event>
<event>
 8    1  0.6692409E-009  0.7154876E+02  0.7561462E-02  0.1354904E+00
          1   -1    0    0  501    0  0.00000000000E+00  0.00000000000E+00  0.40347804994E+03  0.40347804994E+03  0.00000000000E+00 0. -1.
         -1   -1    0    0    0  501 -0.00000000000E+00 -0.00000000000E+00 -0.81613610858E+02  0.81613610858E+02  0.00000000000E+00 0.  1.
         25    2    1    2    0    0 -0.42614262026E+02 -0.39110987884E+01 -0.14687365624E+02  0.13302028002E+03  0.12508958456E+03 0.  0.
         23    2    1    2    0    0  0.42614262026E+02  0.39110987884E+01  0.33655180470E+03  0.35207138078E+03  0.94105620946E+02 0.  0.
          5    1    3    3  502    0 -0.25097450438E+02 -0.55995314682E+01 -0.70071298878E+02  0.74757582208E+02  0.41800000000E+01 0. -1.
         -5    1    3    3    0  502 -0.17516811588E+02  0.16884326798E+01  0.55383933254E+02  0.58262697808E+02  0.41800000000E+01 0. -1.
        -11    1    4    4    0    0  0.67528181992E+02 -0.13104255148E+02  0.27568974864E+03  0.28414189126E+03  0.00000000000E+00 0.  1.
         11    1    4    4    0    0 -0.24913919966E+02  0.17015353936E+02  0.60862056069E+02  0.67929489521E+02  0.00000000000E+00 0. -1.
</event>
<event>
 8    1  0.6692409E-009  0.1844729E+03  0.7561462E-02  0.1163543E+00
          1   -1    0    0  501    0  0.00000000000E+00  0.00000000000E+00  0.25242019355E+03  0.25242019355E+03  0.00000000000E+00 0. -1.
         -1   -1    0    0    0  501 -0.00000000000E+00 -0.00000000000E+00 -0.16149774134E+03  0.16149774134E+03  0.00000000000E+00 0.  1.
         25    2    1    2    0    0 -0.13924425172E+02 -0.16165319904E+03  0.99737384411E+02  0.22786148471E+03  0.12509062310E+03 0.  0.
         23    2    1    2    0    0  0.13924425172E+02  0.16165319904E+03 -0.88149322043E+01  0.18605645018E+03  0.90629207471E+02 0.  0.
          5    1    3    3  502    0  0.50645183859E+02 -0.32809592417E+02  0.24845338070E+02  0.65392409548E+02  0.41800000000E+01 0. -1.
         -5    1    3    3    0  502 -0.64569609031E+02 -0.12884360662E+03  0.74892046341E+02  0.16246907516E+03  0.41800000000E+01 0. -1.
        -11    1    4    4    0    0  0.10056365168E+02  0.18362112708E+02 -0.34572574017E+02  0.40417329670E+02  0.00000000000E+00 0.  1.
         11    1    4    4    0    0  0.38680600032E+01  0.14329108633E+03  0.25757641813E+02  0.14563912051E+03  0.00000000000E+00 0. -1.
</event>
<event>
 8    1  0.6692409E-009  0.1740274E+03  0.7561462E-02  0.1173712E+00
         -2   -1    0    0    0  501 -0.00000000000E+00  0.00000000000E+00  0.16087405121E+03  0.16087405121E+03  0.00000000000E+00 0.  1.
          2   -1    0    0  501    0  0.00000000000E+00 -0.00000000000E+00 -0.31006458180E+03  0.31006458180E+03  0.00000000000E+00 0. -1.
         25    2    1    2    0    0  0.86087954562E+02  0.13152282183E+03 -0.20100297997E+03  0.28418225881E+03  0.12509184499E+03 0.  0.
         23    2    1    2    0    0 -0.86087954562E+02 -0.13152282183E+03  0.51812449377E+02  0.18675637420E+03  0.86510258412E+02 0.  0.
          5    1    3    3  502    0  0.65003512714E+02  0.38630740112E+02 -0.16627318938E+03  0.18270751669E+03  0.41800000000E+01 0. -1.
         -5    1    3    3    0  502  0.21084441848E+02  0.92892081722E+02 -0.34729790587E+02  0.10147474212E+03  0.41800000000E+01 0. -1.
        -11    1    4    4    0    0 -0.32146729325E+02 -0.11668467644E+03  0.49502073189E+02  0.13076383741E+03  0.00000000000E+00 0. -1.
         11    1    4    4    0    0 -0.53941225237E+02 -0.14838145390E+02  0.23103761882E+01  0.55992536796E+02  0.00000000000E+00 0.  1.
</event>
<event>
 8    1  0.6692409E-009  0.1756883E+03  0.7561462E-02  0.1172042E+00
         -2   -1    0    0    0  501 -0.00000000000E+00  0.00000000000E+00  0.44202639971E+02  0.44202639971E+02  0.00000000000E+00 0.  1.
          2   -1    0    0  501    0  0.00000000000E+00 -0.00000000000E+00 -0.10605980866E+04  0.10605980866E+04  0.00000000000E+00 0. -1.
         25    2    1    2    0    0 -0.17050785880E+03  0.37060072906E+01 -0.72666995966E+03  0.75682508995E+03  0.12509325364E+03 0.  0.
         23    2    1    2    0    0  0.17050785880E+03 -0.37060072906E+01 -0.28972548701E+03  0.34797563666E+03  0.89774837700E+02 0.  0.
          5    1    3    3  502    0 -0.20171466408E+02 -0.88734804130E+01 -0.10213584805E+02  0.24645819651E+02  0.41800000000E+01 0.  1.
         -5    1    3    3    0  502 -0.15033639239E+03  0.12579487704E+02 -0.71645637486E+03  0.73217927030E+03  0.41800000000E+01 0.  1.
        -11    1    4    4    0    0  0.81091745671E+01  0.12416611738E+02 -0.84403322838E+02  0.85696276846E+02  0.00000000000E+00 0. -1.
         11    1    4    4    0    0  0.16239868423E+03 -0.16122619028E+02 -0.20532216417E+03  0.26227935982E+03  0.00000000000E+00 0.  1.
</event>
<event>
 8    1  0.6692409E-009  0.1554884E+03  0.7561462E-02  0.1193887E+00
          2   -1    0    0  501    0  0.00000000000E+00  0.00000000000E+00  0.70925657058E+03  0.70925657058E+03  0.00000000000E+00 0. -1.
         -2   -1    0    0    0  501 -0.00000000000E+00 -0.00000000000E+00 -0.43793729001E+02  0.43793729001E+02  0.00000000000E+00 0.  1.
         25    2    1    2    0    0 -0.88019261103E+02 -0.95854774994E+02  0.46048571271E+03  0.49460152318E+03  0.12509215363E+03 0.  0.
         23    2    1    2    0    0  0.88019261103E+02  0.95854774994E+02  0.20497712886E+03  0.25844877641E+03  0.88569850705E+02 0.  0.
          5    1    3    3  502    0  0.23181160885E+02  0.68726295620E+01  0.11156087630E+03  0.11422740817E+03  0.41800000000E+01 0.  1.
         -5    1    3    3    0  502 -0.11120042199E+03 -0.10272740456E+03  0.34892483642E+03  0.38037411500E+03  0.41800000000E+01 0.  1.
        -11    1    4    4    0    0  0.47505033930E+02  0.76604306838E+02  0.19143386052E+03  0.21159364600E+03  0.00000000000E+00 0. -1.
         11    1    4    4    0    0  0.40514227174E+02  0.19250468156E+02  0.13543268344E+02  0.46855130404E+02  0.00000000000E+00 0.  1.
</event>
<event>
 8    1  0.6692409E-009  0.9558111E+02  0.7561462E-02  0.1289873E+00
         -2   -1    0    0    0  501 -0.00000000000E+00  0.00000000000E+00  0.10471991985E+03  0.10471991985E+03  0.00000000000E+00 0.  1.
          2   -1    0    0  501    0  0.00000000000E+00 -0.00000000000E+00 -0.14167824839E+03  0.14167824839E+03  0.00000000000E+00 0. -1.
         25    2    1    2    0    0 -0.22005158182E+02 -0.44475689824E+02  0.77366914831E+01  0.13479188842E+03  0.12508670120E+03 0.  0.
         23    2    1    2    0    0  0.22005158182E+02  0.44475689824E+02 -0.44695020023E+02  0.11160627981E+03  0.89420371870E+02 0.  0.
          5    1    3    3  502    0  0.66365578343E+01 -0.62025940122E+02 -0.41501331838E+02  0.75040616283E+02  0.41800000000E+01 0. -1.
         -5    1    3    3    0  502 -0.28641716016E+02  0.17550250297E+02  0.49238023321E+02  0.59751272141E+02  0.41800000000E+01 0. -1.
        -11    1    4    4    0    0  0.26566181953E+02  0.66861775669E+02 -0.13923681839E+02  0.73281157094E+02  0.00000000000E+00 0.  1.
         11    1    4    4    0    0 -0.45610237709E+01 -0.22386085845E+02 -0.30771338184E+02  0.38325122712E+02  0.00000000000E+00 0. -1.
</event>
<event>
 8    1  0.6692409E-009  0.1082106E+03  0.7561462E-02  0.1263920E+00
          2   -1    0    0  501    0  0.00000000000E+00  0.00000000000E+00  0.99863851815E+03  0.99863851815E+03  0.00000000000E+00 0. -1.
         -2   -1    0    0    0  501 -0.00000000000E+00 -0.00000000000E+00 -0.12155036073E+02  0.12155036073E+02  0.00000000000E+00 0.  1.
         25    2    1    2    0    0 -0.10800282830E+02  0.21937210705E+02  0.60909644508E+03  0.62229066960E+03  0.12509720517E+03 0.  0.
         23    2    1    2    0    0  0.10800282830E+02 -0.21937210705E+02  0.37738703700E+03  0.38850288462E+03  0.88969817036E+02 0.  0.
          5    1    3    3  502    0 -0.20167251930E+02  0.71057424982E+02  0.42907671417E+03  0.43540805544E+03  0.41800000000E+01 0. -1.
         -5    1    3    3    0  502  0.93669690993E+01 -0.49120214276E+02  0.18001973090E+03  0.18688261416E+03  0.41800000000E+01 0. -1.
        -11    1    4    4    0    0 -0.25762362902E+02  0.22855065584E+02  0.14356427652E+03  0.14763724075E+03  0.00000000000E+00 0. -1.
         11    1    4    4    0    0  0.36562645733E+02 -0.44792276289E+02  0.23382276048E+03  0.24086564387E+03  0.00000000000E+00 0.  1.
</event>
<event>
 8    1  0.6692409E-009  0.7679798E+02  0.7561462E-02  0.1338392E+00
         -1   -1    0    0    0  501 -0.00000000000E+00  0.00000000000E+00  0.26743040561E+02  0.26743040561E+02  0.00000000000E+00 0.  1.
          1   -1    0    0  501    0  0.00000000000E+00 -0.00000000000E+00 -0.47904900728E+03  0.47904900728E+03  0.00000000000E+00 0. -1.
         25    2    1    2    0    0 -0.18493447787E+02  0.22024141818E+02 -0.22054618895E+03  0.25517729810E+03  0.12509101315E+03 0.  0.
         23    2    1    2    0    0  0.18493447787E+02 -0.22024141818E+02 -0.23175977777E+03  0.25061474974E+03  0.90929025971E+02 0.  0.
          5    1    3    3  502    0 -0.33599518012E+02  0.27148307312E+02 -0.23140084503E+03  0.23543530254E+03  0.41800000000E+01 0.  1.
         -5    1    3    3    0  502  0.15106070225E+02 -0.51241654945E+01  0.10854656086E+02  0.19741995553E+02  0.41800000000E+01 0.  1.
        -11    1    4    4    0    0  0.50103492242E+02 -0.33284447832E+02 -0.16999524372E+03  0.18032359050E+03  0.00000000000E+00 0.  1.
         11    1    4    4    0    0 -0.31610044456E+02  0.11260306014E+02 -0.61764534048E+02  0.70291159246E+02  0.00000000000E+00 0. -1.
</event>
<event>
 8    1  0.6692409E-009  0.9633039E+02  0.7561462E-02  0.1288208E+00
          1   -1    0    0  501    0  0.00000000000E+00  0.00000000000E+00  0.23266283992E+03  0.23266283992E+03  0.00000000000E+00 0. -1.
         -1   -1    0    0    0  501 -0.00000000000E+00 -0.00000000000E+00 -0.77939683896E+02  0.77939683896E+02  0.00000000000E+00 0.  1.
         25    2    1    2    0    0  0.72858747857E+02  0.19672843374E+02  0.11735722193E+03  0.18739191004E+03  0.12509033737E+03 0.  0.
         23    2    1    2    0    0 -0.72858747857E+02 -0.19672843374E+02  0.37365934093E+02  0.12321061378E+03  0.89940115692E+02 0.  0.
          5    1    3    3  502    0  0.39167250797E+01 -0.47673905630E+01 -0.25649281620E+02  0.26710050463E+02  0.41800000000E+01 0.  1.
         -5    1    3    3    0  502  0.68942022777E+02  0.24440233937E+02  0.14300650355E+03  0.16068185958E+03  0.41800000000E+01 0.  1.
        -11    1    4    4    0    0 -0.77387029209E+02  0.13419714833E+02  0.42680655244E+02  0.89389481306E+02  0.00000000000E+00 0. -1.
         11    1    4    4    0    0  0.45282813524E+01 -0.33092558206E+02 -0.53147211511E+01  0.33821132470E+02  0.00000000000E+00 0.  1.
</event>
<event>
 8    1  0.6692409E-009  0.8836459E+02  0.7561462E-02  0.1306861E+00
          3   -1    0    0  501    0  0.00000000000E+00  0.00000000000E+00  0.14690329564E+03  0.14690329564E+03  0.00000000000E+00 0. -1.
         -3   -1    0    0    0  501 -0.00000000000E+00 -0.00000000000E+00 -0.14200924902E+03  0.14200924902E+03  0.00000000000E+00 0.  1.
         25    2    1    2    0    0  0.49799220886E+02 -0.56658674137E+02  0.61754078988E+02  0.15859147463E+03  0.12509005475E+03 0.  0.
         23    2    1    2    0    0 -0.49799220886E+02  0.56658674137E+02 -0.56860032364E+02  0.13032107003E+03  0.89779453422E+02 0.  0.
          5    1    3    3  502    0  0.15437993766E+02 -0.49640545904E+02 -0.30075499909E+02  0.60204016012E+02  0.41800000000E+01 0.  1.
         -5    1    3    3    0  502  0.34361227120E+02 -0.70181282331E+01  0.91829578898E+02  0.98387458620E+02  0.41800000000E+01 0.  1.
        -11    1    4    4    0    0 -0.53160993619E+01 -0.87006377945E+01  0.18483438698E+02  0.21109228232E+02  0.00000000000E+00 0.  1.
         11    1    4    4    0    0 -0.44483121524E+02  0.65359311932E+02 -0.75343471062E+02  0.10921184180E+03  0.00000000000E+00 0. -1.
</event>
<event>
 8    1  0.6692409E-009  0.2229123E+03  0.7561462E-02  0.1131730E+00
         -4   -1    0    0    0  501 -0.00000000000E+00  0.00000000000E+00  0.68017605141E+03  0.68017605141E+03  0.00000000000E+00 0. -1.
          4   -1    0    0  501    0  0.00000000000E+00 -0.00000000000E+00 -0.15558140723E+03  0.15558140723E+03  0.00000000000E+00 0.  1.
         25    2    1    2    0    0 -0.20685483528E+03 -0.31911714068E+02 -0.20654815777E+02  0.24470743072E+03  0.12509126613E+03 0.  0.
         23    2    1    2    0    0  0.20685483528E+03  0.31911714068E+02  0.54524945996E+03  0.59105002791E+03  0.90751757750E+02 0.  0.
          5    1    3    3  502    0 -0.33805332097E+02 -0.52080485773E+02 -0.32174630181E+02  0.70056096836E+02  0.41800000000E+01 0. -1.
         -5    1    3    3    0  502 -0.17304950319E+03  0.20168771705E+02  0.11519814404E+02  0.17465133389E+03  0.41800000000E+01 0. -1.
        -11    1    4    4    0    0  0.34199252927E+02  0.41604372117E+01  0.26047701697E+02  0.43190055594E+02  0.00000000000E+00 0.  1.
         11    1    4    4    0    0  0.17265558236E+03  0.27751276856E+02  0.51920175826E+03  0.54785997232E+03  0.00000000000E+00 0. -1.
</event>
<event>
 8    1  0.6692409E-009  0.2017868E+03  0.7561462E-02  0.1148240E+00
         -1   -1    0    0    0  501 -0.00000000000E+00  0.00000000000E+00  0.19715965501E+03  0.19715965501E+03  0.00000000000E+00 0.  1.
          1   -1    0    0  501    0  0.00000000000E+00 -0.00000000000E+00 -0.33335810048E+03  0.33335810048E+03  0.00000000000E+00 0. -1.
         25    2    1    2    0    0 -0.17287893940E+03 -0.60255278659E+02  0.78302180534E+02  0.23515177036E+03  0.12508915753E+03 0.  0.
         23    2    1    2    0    0  0.17287893940E+03  0.60255278659E+02 -0.21450062600E+03  0.29536598513E+03  0.87822094740E+02 0.  0.
          5    1    3    3  502    0 -0.11975608690E+03 -0.97590081088E+02  0.39933780916E+02  0.15961680217E+03  0.41800000000E+01 0. -1.
         -5    1    3    3    0  502 -0.53122852502E+02  0.37334802429E+02  0.38368399618E+02  0.75534968192E+02  0.41800000000E+01 0. -1.
        -11    1    4    4    0    0  0.16135673157E+03  0.60804385021E+02 -0.14611694654E+03  0.22601621651E+03  0.00000000000E+00 0.  1.
         11    1    4    4    0    0  0.11522207830E+02 -0.54910636231E+00 -0.68383679458E+02  0.69349768617E+02  0.00000000000E+00 0. -1.
</event>
<event>
 8    1  0.6692409E-009  0.1278385E+03  0.7561462E-02  0.1230699E+00
         -2   -1    0    0    0  501 -0.00000000000E+00  0.00000000000E+00  0.23971257502E+02  0.23971257502E+02  0.00000000000E+00 0.  1.
          2   -1    0    0  501    0  0.00000000000E+00 -0.00000000000E+00 -0.79166929081E+03  0.79166929081E+03  0.00000000000E+00 0. -1.
         25    2    1    2    0    0 -0.40486940660E+02 -0.67112647886E+02 -0.32388249399E+03  0.35593703965E+03  0.12509199180E+03 0.  0.
         23    2    1    2    0    0  0.40486940660E+02  0.67112647886E+02 -0.44381553932E+03  0.45970350866E+03  0.90618889112E+02 0.  0.
          5    1    3    3  502    0 -0.73582504589E+02 -0.60869164089E+01 -0.12491021826E+03  0.14516015486E+03  0.41800000000E+01 0. -1.
         -5    1    3    3    0  502  0.33095563929E+02 -0.61025731477E+02 -0.19897227573E+03  0.21077688479E+03  0.41800000000E+01 0. -1.
        -11    1    4    4    0    0 -0.15176105060E+02  0.52469166558E+02 -0.29753392908E+03  0.30250581244E+03  0.00000000000E+00 0. -1.
         11    1    4    4    0    0  0.55663045720E+02  0.14643481328E+02 -0.14628161024E+03  0.15719769623E+03  0.00000000000E+00 0.  1.
</event>
<event>
 8    1  0.6692409E-009  0.1065423E+03  0.7561462E-02  0.1267110E+00
          2   -1    0    0  501    0  0.00000000000E+00  0.00000000000E+00  0.21761239359E+04  0.21761239359E+04  0.00000000000E+00 0. -1.
         -2   -1    0    0    0  501 -0.00000000000E+00 -0.00000000000E+00 -0.16841781193E+02  0.16841781193E+02  0.00000000000E+00 0.  1.
         25    2    1    2    0    0 -0.29372659342E+02  0.19731170674E+02  0.20128903954E+04  0.20170837719E+04  0.12508847444E+03 0.  0.
         23    2    1    2    0    0  0.29372659342E+02 -0.19731170674E+02  0.14639175923E+03  0.17588194520E+03  0.90839634866E+02 0.  0.
          5    1    3    3  502    0 -0.57320213025E+02 -0.26157600627E+02  0.63307759292E+03  0.63621893870E+03  0.41800000000E+01 0.  1.
         -5    1    3    3    0  502  0.27947553683E+02  0.45888771301E+02  0.13798128025E+04  0.13808648332E+04  0.41800000000E+01 0.  1.
        -11    1    4    4    0    0 -0.58623098521E+01  0.32510253986E+02  0.36689429020E+02  0.49370006004E+02  0.00000000000E+00 0.  1.
         11    1    4    4    0    0  0.35234969194E+02 -0.52241424660E+02  0.10970233021E+03  0.12651193920E+03  0.00000000000E+00 0. -1.
</event>
<event>
 8    1  0.6692409E-009  0.1514265E+03  0.7561462E-02  0.1198731E+00
          1   -1    0    0  501    0  0.00000000000E+00  0.00000000000E+00  0.69183526181E+03  0.69183526181E+03  0.00000000000E+00 0. -1.
         -1   -1    0    0    0  501 -0.00000000000E+00 -0.00000000000E+00 -0.42188310167E+02  0.42188310167E+02  0.00000000000E+00 0.  1.
         25    2    1    2    0    0 -0.87043252310E+02  0.96770579270E+02  0.31458613406E+03  0.36270329698E+03  0.12509265809E+03 0.  0.
         23    2    1    2    0    0  0.87043252310E+02 -0.96770579270E+02  0.33506081758E+03  0.37132027500E+03  0.93123156977E+02 0.  0.
          5    1    3    3  502    0  0.11081174211E+02  0.45271918160E+02  0.19103348116E+03  0.19668147426E+03  0.41800000000E+01 0.  1.
         -5    1    3    3    0  502 -0.98124426521E+02  0.51498661110E+02  0.12355265291E+03  0.16602182271E+03  0.41800000000E+01 0.  1.
        -11    1    4    4    0    0  0.76814384183E+02 -0.38356727481E+02  0.26983701596E+03  0.28316727096E+03  0.00000000000E+00 0.  1.
         11    1    4    4    0    0  0.10228868127E+02 -0.58413851789E+02  0.65223801619E+02  0.88153004042E+02  0.00000000000E+00 0. -1.
</event>
<event>
 8    1  0.6692409E-009  0.1032133E+03  0.7561462E-02  0.1273680E+00
          1   -1    0    0  501    0  0.00000000000E+00  0.00000000000E+00  0.81455914332E+02  0.81455914332E+02  0.00000000000E+00 0. -1.
         -1   -1    0    0    0  501 -0.00000000000E+00 -0.00000000000E+00 -0.19460046154E+03  0.19460046154E+03  0.00000000000E+00 0.  1.
         25    2    1    2    0    0  0.84174047956E+01 -0.53015599662E+02 -0.26163238886E+02  0.13861108661E+03  0.12508801602E+03 0.  0.
         23    2    1    2    0    0 -0.84174047956E+01  0.53015599662E+02 -0.86981308326E+02  0.13744528927E+03  0.91890984500E+02 0.  0.
          5    1    3    3  502    0 -0.13993392886E+02 -0.77618478322E+02  0.20071806519E+02  0.81491061095E+02  0.41800000000E+01 0. -1.
         -5    1    3    3    0  502  0.22410797682E+02  0.24602878661E+02 -0.46235045405E+02  0.57120025514E+02  0.41800000000E+01 0. -1.
        -11    1    4    4    0    0  0.21857393631E+02  0.59110895103E+02 -0.24255005961E+02  0.67528874494E+02  0.00000000000E+00 0. -1.
         11    1    4    4    0    0 -0.30274798427E+02 -0.60952954413E+01 -0.62726302365E+02  0.69916414773E+02  0.00000000000E+00 0.  1.
</event>
<event>
 8    1  0.6692409E-009  0.1732278E+03  0.7561462E-02  0.1174523E+00
         -1   -1    0    0    0  501 -0.00000000000E+00  0.00000000000E+00  0.10284746723E+03  0.10284746723E+03  0.00000000000E+00 0.  1.
          1   -1    0    0  501    0  0.00000000000E+00 -0.00000000000E+00 -0.35881465873E+03  0.35881465873E+03  0.00000000000E+00 0. -1.
         25    2    1    2    0    0  0.14189306385E+03 -0.43477193808E+02 -0.19966403740E+03  0.27845559099E+03  0.12509148800E+03 0.  0.
         23    2    1    2    0    0 -0.14189306385E+03  0.43477193808E+02 -0.56303154094E+02  0.18320653498E+03  0.91491427717E+02 0.  0.
          5    1    3    3  502    0  0.83786919484E+02  0.25813286799E+02 -0.15353734784E+03  0.17685520415E+03  0.41800000000E+01 0.  1.
         -5    1    3    3    0  502  0.58106144370E+02 -0.69290480607E+02 -0.46126689559E+02  0.10160038684E+03  0.41800000000E+01 0.  1.
        -11    1    4    4    0    0 -0.92392578378E+01 -0.19300803285E+02 -0.25431072238E+02  0.33235889156E+02  0.00000000000E+00 0. -1.
         11    1    4    4    0    0 -0.13265380602E+03  0.62777997092E+02 -0.30872081856E+02  0.14997064582E+03  0.00000000000E+00 0.  1.
</event>
<event>
 8    1  0.6692409E-009  0.1483855E+03  0.7561462E-02  0.1202471E+00
          2   -1    0    0  501    0  0.00000000000E+00  0.00000000000E+00  0.59701404308E+03  0.59701404308E+03  0.00000000000E+00 0. -1.
         -2   -1    0    0    0  501 -0.00000000000E+00 -0.00000000000E+00 -0.50106597090E+02  0.50106597090E+02  0.00000000000E+00 0.  1.
         25    2    1    2    0    0  0.10927472571E+03  0.54079360764E+02  0.18424884752E+03  0.25389395948E+03  0.12509581092E+03 0.  0.
         23    2    1    2    0    0 -0.10927472571E+03 -0.54079360764E+02  0.36265859847E+03  0.39322668069E+03  0.90776761463E+02 0.  0.
          5    1    3    3  502    0  0.84264788263E+02 -0.22305126602E+02  0.13094435034E+03  0.15735936101E+03  0.41800000000E+01 0.  1.
         -5    1    3    3    0  502  0.25009937446E+02  0.76384487366E+02  0.53304497182E+02  0.96534598466E+02  0.41800000000E+01 0.  1.
        -11    1    4    4    0    0 -0.70136037379E+02 -0.56125673681E+02  0.33061930648E+03  0.34260513832E+03  0.00000000000E+00 0.  1.
         11    1    4    4    0    0 -0.39138688330E+02  0.20463129174E+01  0.32039291994E+02  0.50621542373E+02  0.00000000000E+00 0. -1.
</event>
<event>
 8    1  0.6692409E-009  0.1099919E+03  0.7561462E-02  0.1260585E+00
         -2   -1    0    0    0  501 -0.00000000000E+00  0.00000000000E+00  0.18166131057E+03  0.18166131057E+03  0.00000000000E+00 0. -1.
          2   -1    0    0  501    0  0.00000000000E+00 -0.00000000000E+00 -0.93737629385E+02  0.93737629385E+02  0.00000000000E+00 0.  1.
         25    2    1    2    0    0 -0.52438375872E+02  0.49002296797E+02  0.48510391224E+02  0.15215754855E+03  0.12509057986E+03 0.  0.
         23    2    1    2    0    0  0.52438375872E+02 -0.49002296797E+02  0.39413289958E+02  0.12324139140E+03  0.92108765998E+02 0.  0.
          5    1    3    3  502    0  0.34541820335E+02 -0.12382977373E+02  0.58496643650E+01  0.37392064049E+02  0.41800000000E+01 0. -1.
         -5    1    3    3    0  502 -0.86980196207E+02  0.61385274170E+02  0.42660726859E+02  0.11476548450E+03  0.41800000000E+01 0. -1.
        -11    1    4    4    0    0  0.29286024194E+02 -0.96180289088E+01 -0.28108359643E+02  0.41716394559E+02  0.00000000000E+00 0.  1.
         11    1    4    4    0    0  0.23152351678E+02 -0.39384267888E+02  0.67521649600E+02  0.81524996842E+02  0.00000000000E+00 0. -1.
</event>
<event>
 8    1  0.6692409E-009  0.8276951E+02  0.7561462E-02  0.1321371E+00
         -3   -1    0    0    0  501 -0.00000000000E+00  0.00000000000E+00  0.80137692359E+02  0.80137692359E+02  0.00000000000E+00 0.  1.
          3   -1    0    0  501    0  0.00000000000E+00 -0.00000000000E+00 -0.25118152712E+03  0.25118152712E+03  0.00000000000E+00 0. -1.
         25    2    1    2    0    0  0.36661604001E+02  0.65499948510E+02 -0.35608138420E+02  0.15016524236E+03  0.12508934419E+03 0.  0.
         23    2    1    2    0    0 -0.36661604001E+02 -0.65499948510E+02 -0.13543569634E+03  0.18115397712E+03  0.94019248663E+02 0.  0.
          5    1    3    3  502    0 -0.73252167504E+01  0.42689954292E+01  0.41310566923E+02  0.42378278185E+02  0.41800000000E+01 0.  1.
         -5    1    3    3    0  502  0.43986820751E+02  0.61230953081E+02 -0.76918705343E+02  0.10778696418E+03  0.41800000000E+01 0.  1.
        -11    1    4    4    0    0 -0.19441396314E+02 -0.59085109630E+02 -0.14687836277E+03  0.15950633693E+03  0.00000000000E+00 0. -1.
         11    1    4    4    0    0 -0.17220207686E+02 -0.64148388805E+01  0.11442666430E+02  0.21647640187E+02  0.00000000000E+00 0.  1.
</event>
<event>
 8    1  0.6692409E-009  0.1182098E+03  0.7561462E-02  0.1246080E+00
          4   -1    0    0  501    0  0.00000000000E+00  0.00000000000E+00  0.36395851840E+03  0.36395851840E+03  0.00000000000E+00 0. -1.
         -4   -1    0    0    0  501 -0.00000000000E+00 -0.00000000000E+00 -0.56737758779E+02  0.56737758779E+02  0.00000000000E+00 0.  1.
         25    2    1    2    0    0 -0.58575640004E+02  0.48891530664E+02  0.24563062208E+03  0.28599750817E+03  0.12505472723E+03 0.  0.
         23    2    1    2    0    0  0.58575640004E+02 -0.48891530664E+02  0.61590137542E+02  0.13469876901E+03  0.92352184373E+02 0.  0.
          5    1    3    3  502    0  0.21613644317E+02 -0.20054546526E+02  0.10999993633E+03  0.11395961061E+03  0.41800000000E+01 0.  1.
         -5    1    3    3    0  502 -0.80189284322E+02  0.68946077190E+02  0.13563068575E+03  0.17203789756E+03  0.41800000000E+01 0.  1.
        -11    1    4    4    0    0  0.48003909857E+02 -0.65444749681E+02  0.12880692495E+02  0.82178481743E+02  0.00000000000E+00 0.  1.
         11    1    4    4    0    0  0.10571730147E+02  0.16553219017E+02  0.48709445046E+02  0.52520287269E+02  0.00000000000E+00 0. -1.
</event>
<event>
 8    1  0.6692409E-009  0.1108248E+03  0.7561462E-02  0.1259050E+00
          1   -1    0    0  501    0  0.00000000000E+00  0.00000000000E+00  0.10975015303E+03  0.10975015303E+03  0.00000000000E+00 0. -1.
         -1   -1    0    0    0  501 -0.00000000000E+00 -0.00000000000E+00 -0.13819246086E+03  0.13819246086E+03  0.00000000000E+00 0.  1.
         25    2    1    2    0    0  0.20246951796E+01 -0.63645039928E+02  0.85499735121E+00  0.14036286481E+03  0.12508482042E+03 0.  0.
         23    2    1    2    0    0 -0.20246951796E+01  0.63645039928E+02 -0.29297305183E+02  0.10757974907E+03  0.81610537441E+02 0.  0.
          5    1    3    3  502    0  0.53081387314E+02 -0.41683249476E+02 -0.32901985032E+02  0.75200664792E+02  0.41800000000E+01 0.  1.
         -5    1    3    3    0  502 -0.51056692135E+02 -0.21961790452E+02  0.33756982383E+02  0.65162200018E+02  0.41800000000E+01 0.  1.
        -11    1    4    4    0    0 -0.35946033817E+02  0.50335600251E+02 -0.34415825423E+02  0.70783042032E+02  0.00000000000E+00 0.  1.
         11    1    4    4    0    0  0.33921338637E+02  0.13309439677E+02  0.51185202408E+01  0.36796707039E+02  0.00000000000E+00 0. -1.
</event>
<event>
 8    1  0.6692409E-009  0.3811106E+03  0.7561462E-02  0.1050524E+00
         -2   -1    0    0    0  501 -0.00000000000E+00  0.00000000000E+00  0.17734748439E+03  0.17734748439E+03  0.00000000000E+00 0.  1.
          2   -1    0    0  501    0  0.00000000000E+00 -0.00000000000E+00 -0.94073767222E+03  0.94073767222E+03  0.00000000000E+00 0. -1.
         25    2    1    2    0    0 -0.67646865239E+02  0.37124656498E+03 -0.23384452652E+03  0.46122750516E+03  0.12508972199E+03 0.  0.
         23    2    1    2    0    0  0.67646865239E+02 -0.37124656498E+03 -0.52954566131E+03  0.65685765144E+03  0.92969115612E+02 0.  0.
          5    1    3    3  502    0 -0.62242650588E+02  0.22078160471E+03 -0.20541663339E+03  0.30794825897E+03  0.41800000000E+01 0. -1.
         -5    1    3    3    0  502 -0.54042146504E+01  0.15046496027E+03 -0.28427893131E+02  0.15327924619E+03  0.41800000000E+01 0. -1.
        -11    1    4    4    0    0  0.25334032526E+02 -0.34615736285E+02 -0.10480970207E+03  0.11324811720E+03  0.00000000000E+00 0. -1.
         11    1    4    4    0    0  0.42312832713E+02 -0.33663082869E+03 -0.42473595924E+03  0.54360953424E+03  0.00000000000E+00 0.  1.
</event>
<event>
 8    1  0.6692409E-009  0.1589556E+03  0.7561462E-02  0.1189881E+00
          1   -1    0    0  501    0  0.00000000000E+00  0.00000000000E+00  0.22098657183E+03  0.22098657183E+03  0.00000000000E+00 0. -1.
         -1   -1    0    0    0  501 -0.00000000000E+00 -0.00000000000E+00 -0.13351077020E+03  0.13351077020E+03  0.00000000000E+00 0.  1.
         25    2    1    2    0    0 -0.50258115672E+02  0.11797131528E+03  0.28436601435E+02  0.18137873736E+03  0.12508595702E+03 0.  0.
         23    2    1    2    0    0  0.50258115672E+02 -0.11797131528E+03  0.59039200195E+02  0.17311860468E+03  0.10020636061E+03 0.  0.
          5    1    3    3  502    0 -0.57159413744E+02  0.13683869963E+03  0.44975149292E+02  0.15502343291E+03  0.41800000000E+01 0. -1.
         -5    1    3    3    0  502  0.69012980713E+01 -0.18867384352E+02 -0.16538547857E+02  0.26355304449E+02  0.41800000000E+01 0. -1.
        -11    1    4    4    0    0 -0.20281664722E+02 -0.21912376199E+02 -0.14381317302E+02  0.33140917940E+02  0.00000000000E+00 0.  1.
         11    1    4    4    0    0  0.70539780394E+02 -0.96058939080E+02  0.73420517498E+02  0.13997768674E+03  0.00000000000E+00 0. -1.
</event>
<event>
 8    1  0.6692409E-009  0.1157954E+03  0.7561462E-02  0.1250199E+00
          1   -1    0    0  501    0  0.00000000000E+00  0.00000000000E+00  0.67099701488E+02  0.67099701488E+02  0.00000000000E+00 0.  1.
         -1   -1    0    0    0  501 -0.00000000000E+00 -0.00000000000E+00 -0.20127835157E+03  0.20127835157E+03  0.00000000000E+00 0. -1.
         25    2    1    2    0    0 -0.36183307546E+02 -0.20515041721E+02 -0.76155008227E+02  0.15224057205E+03  0.12508999887E+03 0.  0.
         23    2    1    2    0    0  0.36183307546E+02  0.20515041721E+02 -0.58023641855E+02  0.11613748101E+03  0.91602799083E+02 0.  0.
          5    1    3    3  502    0  0.40677539490E+02  0.19071767670E+02 -0.29524107668E+02  0.53921608606E+02  0.41800000000E+01 0.  1.
         -5    1    3    3    0  502 -0.76860847037E+02 -0.39586809391E+02 -0.46630900559E+02  0.98318963440E+02  0.41800000000E+01 0.  1.
        -11    1    4    4    0    0  0.16165791825E+02 -0.36266471028E+02 -0.29792723316E+02  0.49640669906E+02  0.00000000000E+00 0. -1.
         11    1    4    4    0    0  0.20017515722E+02  0.56781512749E+02 -0.28230918538E+02  0.66496811106E+02  0.00000000000E+00 0.  1.
</event>
<event>
 8    1  0.6692409E-009  0.1119119E+03  0.7561462E-02  0.1257070E+00
         -1   -1    0    0    0  501 -0.00000000000E+00  0.00000000000E+00  0.23833563043E+02  0.23833563043E+02  0.00000000000E+00 0.  1.
          1   -1    0    0  501    0  0.00000000000E+00 -0.00000000000E+00 -0.60323924574E+03  0.60323924574E+03  0.00000000000E+00 0. -1.
         25    2    1    2    0    0 -0.29410457996E+02 -0.36808331828E+02 -0.38826819736E+03  0.41063290689E+03  0.12508941924E+03 0.  0.
         23    2    1    2    0    0  0.29410457996E+02  0.36808331828E+02 -0.19113748534E+03  0.21643990189E+03  0.89960349599E+02 0.  0.
          5    1    3    3  502    0 -0.70504500252E+02 -0.39450392027E+02 -0.16744041673E+03  0.18595962880E+03  0.41800000000E+01 0. -1.
         -5    1    3    3    0  502  0.41094042256E+02  0.26420601984E+01 -0.22082778063E+03  0.22467327809E+03  0.41800000000E+01 0. -1.
        -11    1    4    4    0    0  0.60175305084E+02  0.10563300760E+02 -0.11304153306E+03  0.12849528731E+03  0.00000000000E+00 0. -1.
         11    1    4    4    0    0 -0.30764847088E+02  0.26245031068E+02 -0.78095952278E+02  0.87944614584E+02  0.00000000000E+00 0.  1.
</event>
<event>
 8    1  0.6692409E-009  0.1997774E+03  0.7561462E-02  0.1149927E+00
          2   -1    0    0  501    0  0.00000000000E+00  0.00000000000E+00  0.27580294322E+03  0.27580294322E+03  0.00000000000E+00 0. -1.
         -2   -1    0    0    0  501 -0.00000000000E+00 -0.00000000000E+00 -0.16958745502E+03  0.16958745502E+03  0.00000000000E+00 0.  1.
         25    2    1    2    0    0 -0.16262301484E+03 -0.73607409894E+02 -0.11223068064E+01  0.21797500412E+03  0.12509015588E+03 0.  0.
         23    2    1    2    0    0  0.16262301484E+03  0.73607409894E+02  0.10733779500E+03  0.22741539412E+03  0.91280137491E+02 0.  0.
          5    1    3    3  502    0 -0.84088075464E+02  0.15343125857E+02 -0.38016215179E+02  0.93642516855E+02  0.41800000000E+01 0. -1.
         -5    1    3    3    0  502 -0.78534939378E+02 -0.88950535751E+02  0.36893908373E+02  0.12433248726E+03  0.41800000000E+01 0. -1.
        -11    1    4    4    0    0  0.17787738968E+02  0.43936275943E+02  0.49850808105E+02  0.68788829544E+02  0.00000000000E+00 0.  1.
         11    1    4    4    0    0  0.14483527587E+03  0.29671133951E+02  0.57486986897E+02  0.15862656458E+03  0.00000000000E+00 0. -1.
</event>
<event>
 8    1  0.6692409E-009  0.1190799E+03  0.7561462E-02  0.1244623E+00
          1   -1    0    0  501    0  0.00000000000E+00  0.00000000000E+00  0.35168186150E+03  0.35168186150E+03  0.00000000000E+00 0. -1.
         -1   -1    0    0    0  501 -0.00000000000E+00 -0.00000000000E+00 -0.47487075848E+02  0.47487075848E+02  0.00000000000E+00 0.  1.
         25    2    1    2    0    0  0.69400124576E+02  0.35973578858E+01  0.18540830009E+03  0.23421461234E+03  0.12510367147E+03 0.  0.
         23    2    1    2    0    0 -0.69400124576E+02 -0.35973578858E+01  0.11878648556E+03  0.16495432501E+03  0.90941640143E+02 0.  0.
          5    1    3    3  502    0  0.36447262777E+02  0.63201590842E+02  0.77313980150E+02  0.10638499883E+03  0.41800000000E+01 0.  1.
         -5    1    3    3    0  502  0.32952861799E+02 -0.59604232956E+02  0.10809431994E+03  0.12782961351E+03  0.41800000000E+01 0.  1.
        -11    1    4    4    0    0 -0.52816876872E+02 -0.33577331286E+02  0.11441713124E+03  0.13041602501E+03  0.00000000000E+00 0. -1.
         11    1    4    4    0    0 -0.16583247705E+02  0.29979973400E+02  0.43693543225E+01  0.34538299997E+02  0.00000000000E+00 0.  1.
</event>
<event>
 8    1  0.6692409E-009  0.9153012E+02  0.7561462E-02  0.1299188E+00
         -2   -1    0    0    0  501 -0.00000000000E+00  0.00000000000E+00  0.57963201910E+03  0.57963201910E+03  0.00000000000E+00 0.  1.
          2   -1    0    0  501    0  0.00000000000E+00 -0.00000000000E+00 -0.33854912546E+02  0.33854912546E+02  0.00000000000E+00 0. -1.
         25    2    1    2    0    0 -0.25316676797E+02  0.63666256482E+02  0.22027975995E+03  0.26242162240E+03  0.12509040298E+03 0.  0.
         23    2    1    2    0    0  0.25316676797E+02 -0.63666256482E+02  0.32549734660E+03  0.35106530925E+03  0.11226754819E+03 0.  0.
          5    1    3    3  502    0  0.12107381416E+01  0.67652856459E+02  0.22488831626E+03  0.23488423120E+03  0.41800000000E+01 0.  1.
         -5    1    3    3    0  502 -0.26527414938E+02 -0.39865999768E+01 -0.46085563090E+01  0.27537391197E+02  0.41800000000E+01 0.  1.
        -11    1    4    4    0    0  0.27156246870E+02 -0.28845516414E+01  0.89621826602E+01  0.28742009329E+02  0.00000000000E+00 0. -1.
         11    1    4    4    0    0 -0.18395700733E+01 -0.60781704841E+02  0.31653516394E+03  0.32232329992E+03  0.00000000000E+00 0.  1.
</event>
<event>
 8    1  0.6692409E-009  0.2329527E+03  0.7561462E-02  0.1124579E+00
          2   -1    0    0  501    0  0.00000000000E+00  0.00000000000E+00  0.21604588445E+03  0.21604588445E+03  0.00000000000E+00 0. -1.
         -2   -1    0    0    0  501 -0.00000000000E+00 -0.00000000000E+00 -0.27457201593E+03  0.27457201593E+03  0.00000000000E+00 0.  1.
         25    2    1    2    0    0  0.14192098185E+03 -0.16369494753E+03 -0.56076946281E+02  0.25638393404E+03  0.12510194561E+03 0.  0.
         23    2    1    2    0    0 -0.14192098185E+03  0.16369494753E+03 -0.24491852026E+01  0.23423396634E+03  0.89005345594E+02 0.  0.
          5    1    3    3  502    0  0.11027757117E+02 -0.10392947402E+03 -0.92425899339E+01  0.10500402309E+03  0.41800000000E+01 0.  1.
         -5    1    3    3    0  502  0.13089322473E+03 -0.59765473505E+02 -0.46834356347E+02  0.15137991095E+03  0.41800000000E+01 0.  1.
        -11    1    4    4    0    0 -0.22174515916E+02  0.36139644924E+02 -0.36557567756E+02  0.55984273252E+02  0.00000000000E+00 0.  1.
         11    1    4    4    0    0 -0.11974646593E+03  0.12755530260E+03  0.34108382553E+02  0.17824969309E+03  0.00000000000E+00 0. -1.
</event>
<event>
 8    1  0.6692409E-009  0.1208659E+03  0.7561462E-02  0.1241675E+00
         -2   -1    0    0    0  501 -0.00000000000E+00  0.00000000000E+00  0.12024567393E+03  0.12024567393E+03  0.00000000000E+00 0.  1.
          2   -1    0    0  501    0  0.00000000000E+00 -0.00000000000E+00 -0.13731939822E+03  0.13731939822E+03  0.00000000000E+00 0. -1.
         25    2    1    2    0    0  0.59830920349E+02 -0.14718048958E+01  0.25882968046E+02  0.14106211817E+03  0.12508672155E+03 0.  0.
         23    2    1    2    0    0 -0.59830920349E+02  0.14718048958E+01 -0.42956692339E+02  0.11650295398E+03  0.90253839977E+02 0.  0.
          5    1    3    3  502    0  0.96232932904E+02 -0.18752795798E+02  0.17144865644E+02  0.99618590351E+02  0.41800000000E+01 0. -1.
         -5    1    3    3    0  502 -0.36402012555E+02  0.17280990903E+02  0.87381024019E+01  0.41443527821E+02  0.41800000000E+01 0. -1.
        -11    1    4    4    0    0  0.16428394974E+02  0.18715570419E+02 -0.26954529603E+02  0.36697566726E+02  0.00000000000E+00 0. -1.
         11    1    4    4    0    0 -0.76259315323E+02 -0.17243765523E+02 -0.16002162736E+02  0.79805387257E+02  0.00000000000E+00 0.  1.
</event>
<event>
 8    1  0.6692409E-009  0.3117338E+03  0.7561462E-02  0.1079518E+00
         -2   -1    0    0    0  501 -0.00000000000E+00  0.00000000000E+00  0.96694215688E+02  0.96694215688E+02  0.00000000000E+00 0.  1.
          2   -1    0    0  501    0  0.00000000000E+00 -0.00000000000E+00 -0.10663243046E+04  0.10663243046E+04  0.00000000000E+00 0. -1.
         25    2    1    2    0    0  0.14058956763E+03  0.26264772237E+03 -0.40860948810E+03  0.52092140510E+03  0.12509254149E+03 0.  0.
         23    2    1    2    0    0 -0.14058956763E+03 -0.26264772237E+03 -0.56102060085E+03  0.64209711523E+03  0.93783464496E+02 0.  0.
          5    1    3    3  502    0  0.43425237438E+02  0.77939836996E+00 -0.60340835152E+02  0.74463732751E+02  0.41800000000E+01 0. -1.
         -5    1    3    3    0  502  0.97164330190E+02  0.26186832400E+03 -0.34826865295E+03  0.44645767235E+03  0.41800000000E+01 0. -1.
        -11    1    4    4    0    0 -0.54133600554E+01 -0.37433854055E+02 -0.14696772248E+03  0.15175674399E+03  0.00000000000E+00 0. -1.
         11    1    4    4    0    0 -0.13517620757E+03 -0.22521386831E+03 -0.41405287837E+03  0.49034037123E+03  0.00000000000E+00 0.  1.
</event>
<event>
 8    1  0.6692409E-009  0.1205223E+03  0.7561462E-02  0.1242238E+00
         -2   -1    0    0    0  501 -0.00000000000E+00  0.00000000000E+00  0.12747503059E+03  0.12747503059E+03  0.00000000000E+00 0.  1.
          2   -1    0    0  501    0  0.00000000000E+00 -0.00000000000E+00 -0.13203201419E+03  0.13203201419E+03  0.00000000000E+00 0. -1.
         25    2    1    2    0    0 -0.15894799834E+02 -0.69943209300E+02 -0.89523739938E+01  0.14447358925E+03  0.12509107003E+03 0.  0.
         23    2    1    2    0    0  0.15894799834E+02  0.69943209300E+02  0.43953903976E+01  0.11503345553E+03  0.89825827280E+02 0.  0.
          5    1    3    3  502    0  0.54709156260E+02 -0.36870770212E+02 -0.50263887943E+01  0.66296926467E+02  0.41800000000E+01 0. -1.
         -5    1    3    3    0  502 -0.70603956094E+02 -0.33072439089E+02 -0.39259851996E+01  0.78176662778E+02  0.41800000000E+01 0. -1.
        -11    1    4    4    0    0 -0.13442798490E+02  0.65886278270E+02  0.32069483025E+02  0.74499410985E+02  0.00000000000E+00 0.  1.
         11    1    4    4    0    0  0.29337598324E+02  0.40569310297E+01 -0.27674092627E+02  0.40534044550E+02  0.00000000000E+00 0. -1.
</event>
<event>
 8    1  0.6692409E-009  0.7895075E+02  0.7561462E-02  0.1332056E+00
         -2   -1    0    0    0  501 -0.00000000000E+00  0.00000000000E+00  0.19459532411E+02  0.19459532411E+02  0.00000000000E+00 0.  1.
          2   -1    0    0  501    0  0.00000000000E+00 -0.00000000000E+00 -0.88317350544E+03  0.88317350544E+03  0.00000000000E+00 0. -1.
         25    2    1    2    0    0 -0.67305635098E+02 -0.25997761498E+02 -0.51096038129E+03  0.53097450403E+03  0.12508988994E+03 0.  0.
         23    2    1    2    0    0  0.67305635098E+02  0.25997761498E+02 -0.35275359174E+03  0.37165853382E+03  0.92135971030E+02 0.  0.
          5    1    3    3  502    0 -0.34564215757E+02  0.16701049854E+01 -0.47079238143E+03  0.47208093911E+03  0.41800000000E+01 0. -1.
         -5    1    3    3    0  502 -0.32741419341E+02 -0.27667866483E+02 -0.40167999866E+02  0.58893564924E+02  0.41800000000E+01 0. -1.
        -11    1    4    4    0    0  0.25271832834E+01  0.13836962890E+02 -0.13536471477E+01  0.14130837129E+02  0.00000000000E+00 0.  1.
         11    1    4    4    0    0  0.64778451815E+02  0.12160798607E+02 -0.35139994459E+03  0.35752769669E+03  0.00000000000E+00 0. -1.
</event>
<event>
 8    1  0.6692409E-009  0.7775410E+02  0.7561462E-02  0.1335549E+00
          1   -1    0    0  501    0  0.00000000000E+00  0.00000000000E+00  0.11948992746E+03  0.11948992746E+03  0.00000000000E+00 0. -1.
         -1   -1    0    0    0  501 -0.00000000000E+00 -0.00000000000E+00 -0.13274507318E+03  0.13274507318E+03  0.00000000000E+00 0.  1.
         25    2    1    2    0    0  0.25391622554E+02  0.28673353768E+01  0.49613963184E+02  0.13697492211E+03  0.12509047860E+03 0.  0.
         23    2    1    2    0    0 -0.25391622554E+02 -0.28673353768E+01 -0.62869108905E+02  0.11526007854E+03  0.93163322946E+02 0.  0.
          5    1    3    3  502    0 -0.42280884875E+01  0.59554313422E+02  0.75859482214E+01  0.60329196828E+02  0.41800000000E+01 0. -1.
         -5    1    3    3    0  502  0.29619711042E+02 -0.56686978046E+02  0.42028014963E+02  0.76645725281E+02  0.41800000000E+01 0. -1.
        -11    1    4    4    0    0 -0.13510702670E+02  0.77955305180E+01  0.23071311355E+02  0.27849502515E+02  0.00000000000E+00 0. -1.
         11    1    4    4    0    0 -0.11880919884E+02 -0.10662865895E+02 -0.85940420261E+02  0.87410576025E+02  0.00000000000E+00 0.  1.
</event>
<event>
 8    1  0.6692409E-009  0.7994369E+02  0.7561462E-02  0.1329211E+00
          1   -1    0    0  501    0  0.00000000000E+00  0.00000000000E+00  0.93905321620E+03  0.93905321620E+03  0.00000000000E+00 0. -1.
         -1   -1    0    0    0  501 -0.00000000000E+00 -0.00000000000E+00 -0.13722061449E+02  0.13722061449E+02  0.00000000000E+00 0.  1.
         25    2    1    2    0    0 -0.14002285957E+02  0.29616651826E+02  0.55990406869E+03  0.57464218624E+03  0.12509143053E+03 0.  0.
         23    2    1    2    0    0  0.14002285957E+02 -0.29616651826E+02  0.36542708606E+03  0.37813309141E+03  0.91512127696E+02 0.  0.
          5    1    3    3  502    0  0.20400528574E+02  0.26284435993E+02  0.34593678400E+02  0.48179332984E+02  0.41800000000E+01 0.  1.
         -5    1    3    3    0  502 -0.34402814530E+02  0.33322158324E+01  0.52531039029E+03  0.52646285326E+03  0.41800000000E+01 0.  1.
        -11    1    4    4    0    0  0.47603334202E+02 -0.32765141141E+02  0.16366624538E+03  0.17356921322E+03  0.00000000000E+00 0.  1.
         11    1    4    4    0    0 -0.33601048245E+02  0.31484893157E+01  0.20176084068E+03  0.20456387819E+03  0.00000000000E+00 0. -1.
</event>
<event>
 8    1  0.6692409E-009  0.2824169E+03  0.7561462E-02  0.1094376E+00
         -1   -1    0    0    0  501 -0.00000000000E+00  0.00000000000E+00  0.31007409414E+03  0.31007409414E+03  0.00000000000E+00 0.  1.
          1   -1    0    0  501    0  0.00000000000E+00 -0.00000000000E+00 -0.29921181708E+03  0.29921181708E+03  0.00000000000E+00 0. -1.
         25    2    1    2    0    0  0.16891174915E+03 -0.20971104764E+03 -0.86312864177E+02  0.30920234530E+03  0.12508508030E+03 0.  0.
         23    2    1    2    0    0 -0.16891174915E+03  0.20971104764E+03  0.97175141236E+02  0.30008356591E+03  0.89984642876E+02 0.  0.
          5    1    3    3  502    0  0.50586589511E+02 -0.13773135516E+03 -0.87012454904E+02  0.17063870880E+03  0.41800000000E+01 0. -1.
         -5    1    3    3    0  502  0.11832515964E+03 -0.71979692478E+02  0.69959072693E+00  0.13856363650E+03  0.41800000000E+01 0. -1.
        -11    1    4    4    0    0 -0.93210304417E+02  0.57583418826E+02  0.64214677922E+02  0.12699423544E+03  0.00000000000E+00 0.  1.
         11    1    4    4    0    0 -0.75701444735E+02  0.15212762881E+03  0.32960463313E+02  0.17308933048E+03  0.00000000000E+00 0. -1.
</event>
<event>
 8    1  0.6692409E-009  0.1179590E+03  0.7561462E-02  0.1246503E+00
         -2   -1    0    0    0  501 -0.00000000000E+00  0.00000000000E+00  0.16176291570E+02  0.16176291570E+02  0.00000000000E+00 0.  1.
          2   -1    0    0  501    0  0.00000000000E+00 -0.00000000000E+00 -0.10967966250E+04  0.10967966250E+04  0.00000000000E+00 0. -1.
         25    2    1    2    0    0 -0.62025497847E+02 -0.81438895969E+01 -0.84534543053E+03  0.85683713961E+03  0.12508997396E+03 0.  0.
         23    2    1    2    0    0  0.62025497847E+02  0.81438895969E+01 -0.23527490287E+03  0.25613577692E+03  0.79610118573E+02 0.  0.
          5    1    3    3  502    0 -0.95964708280E+02  0.16489636322E+02 -0.56577123847E+03  0.57410425885E+03  0.41800000000E+01 0.  1.
         -5    1    3    3    0  502  0.33939210432E+02 -0.24633525919E+02 -0.27957419206E+03  0.28273288077E+03  0.41800000000E+01 0.  1.
        -11    1    4    4    0    0  0.65692243169E+02 -0.19422644015E+02 -0.12644584140E+03  0.14380980746E+03  0.00000000000E+00 0.  1.
         11    1    4    4    0    0 -0.36667453221E+01  0.27566533612E+02 -0.10882906146E+03  0.11232596946E+03  0.00000000000E+00 0. -1.
</event>
<event>
 8    1  0.6692409E-009  0.1403224E+03  0.7561462E-02  0.1212896E+00
         -1   -1    0    0    0  501 -0.00000000000E+00  0.00000000000E+00  0.18074893163E+03  0.18074893163E+03  0.00000000000E+00 0.  1.
          1   -1    0    0  501    0  0.00000000000E+00 -0.00000000000E+00 -0.15886038481E+03  0.15886038481E+03  0.00000000000E+00 0. -1.
         25    2    1    2    0    0  0.61409615552E+02 -0.95858015408E+02 -0.50628413633E+02  0.17656662518E+03  0.12511049860E+03 0.  0.
         23    2    1    2    0    0 -0.61409615552E+02  0.95858015408E+02  0.72516960452E+02  0.16304269127E+03  0.91456599666E+02 0.  0.
          5    1    3    3  502    0 -0.31420113904E+02 -0.48843844714E+02  0.51050572275E+01  0.58450652122E+02  0.41800000000E+01 0.  1.
         -5    1    3    3    0  502  0.92829729457E+02 -0.47014170695E+02 -0.55733470860E+02  0.11811597306E+03  0.41800000000E+01 0.  1.
        -11    1    4    4    0    0 -0.14529452694E+02  0.38759300913E+01 -0.19584157443E+02  0.24691436824E+02  0.00000000000E+00 0. -1.
         11    1    4    4    0    0 -0.46880162858E+02  0.91982085317E+02  0.92101117895E+02  0.13835125444E+03  0.00000000000E+00 0.  1.
</event>
<event>
 8    1  0.6692409E-009  0.1569655E+03  0.7561462E-02  0.1192166E+00
         -3   -1    0    0    0  501 -0.00000000000E+00  0.00000000000E+00  0.48543751355E+02  0.48543751355E+02  0.00000000000E+00 0.  1.
          3   -1    0    0  501    0  0.00000000000E+00 -0.00000000000E+00 -0.74225540086E+03  0.74225540086E+03  0.00000000000E+00 0. -1.
         25    2    1    2    0    0  0.92845065599E+02  0.89324088569E+02 -0.54936635385E+03  0.57796957372E+03  0.12508572422E+03 0.  0.
         23    2    1    2    0    0 -0.92845065599E+02 -0.89324088569E+02 -0.14434529566E+03  0.21282957849E+03  0.88667164713E+02 0.  0.
          5    1    3    3  502    0  0.28326490600E+02  0.10595195400E+03 -0.28775776167E+03  0.30797761027E+03  0.41800000000E+01 0.  1.
         -5    1    3    3    0  502  0.64518574999E+02 -0.16627865428E+02 -0.26160859218E+03  0.26999196345E+03  0.41800000000E+01 0.  1.
        -11    1    4    4    0    0 -0.69113835323E+02 -0.90246599480E+02 -0.15020466802E+03  0.18836829150E+03  0.00000000000E+00 0. -1.
         11    1    4    4    0    0 -0.23731230275E+02  0.92251091111E+00  0.58593723560E+01  0.24461286989E+02  0.00000000000E+00 0.  1.
</event>
<event>
 8    1  0.6692409E-009  0.8205943E+02  0.7561462E-02  0.1323307E+00
         -2   -1    0    0    0  501 -0.00000000000E+00  0.00000000000E+00  0.48214894191E+03  0.48214894191E+03  0.00000000000E+00 0. -1.
          2   -1    0    0  501    0  0.00000000000E+00 -0.00000000000E+00 -0.40987451943E+02  0.40987451943E+02  0.00000000000E+00 0.  1.
         25    2    1    2    0    0  0.23162057574E+02  0.17220378689E+02  0.39710724107E+03  0.41734170469E+03  0.12508763013E+03 0.  0.
         23    2    1    2    0    0 -0.23162057574E+02 -0.17220378689E+02  0.44054248893E+02  0.10579468916E+03  0.91753566990E+02 0.  0.
          5    1    3    3  502    0 -0.18016238474E+02  0.43965187831E+02  0.59984753638E+02  0.76636581727E+02  0.41800000000E+01 0.  1.
         -5    1    3    3    0  502  0.41178296048E+02 -0.26744809142E+02  0.33712248743E+03  0.34070512296E+03  0.41800000000E+01 0.  1.
        -11    1    4    4    0    0  0.20834542979E+02 -0.41254123395E+01  0.54694571042E+02  0.58673616810E+02  0.00000000000E+00 0. -1.
         11    1    4    4    0    0 -0.43996600553E+02 -0.13094966350E+02 -0.10640322148E+02  0.47121072349E+02  0.00000000000E+00 0.  1.
</event>
<event>
 8    1  0.6692409E-009  0.1235664E+03  0.7561462E-02  0.1237327E+00
          1   -1    0    0  501    0  0.00000000000E+00  0.00000000000E+00  0.38555032395E+03  0.38555032395E+03  0.00000000000E+00 0. -1.
         -1   -1    0    0    0  501 -0.00000000000E+00 -0.00000000000E+00 -0.59258061101E+02  0.59258061101E+02  0.00000000000E+00 0.  1.
         25    2    1    2    0    0 -0.10170227608E+03  0.26500854670E+02  0.18494813431E+03  0.24677716705E+03  0.12509000573E+03 0.  0.
         23    2    1    2    0    0  0.10170227608E+03 -0.26500854670E+02  0.14134412854E+03  0.19803121801E+03  0.90512719401E+02 0.  0.
          5    1    3    3  502    0 -0.72768529968E+01  0.32353543950E+02 -0.56982822122E+01  0.33906447998E+02  0.41800000000E+01 0.  1.
         -5    1    3    3    0  502 -0.94425423084E+02 -0.58526892802E+01  0.19064641652E+03  0.21287071905E+03  0.41800000000E+01 0.  1.
        -11    1    4    4    0    0  0.34820024657E+02 -0.37562389638E+02  0.11391797861E+03  0.12490265442E+03  0.00000000000E+00 0. -1.
         11    1    4    4    0    0  0.66882251424E+02  0.11061534968E+02  0.27426149938E+02  0.73128563584E+02  0.00000000000E+00 0.  1.
</event>
<event>
 8    1  0.6692409E-009  0.1332523E+03  0.7561462E-02  0.1222708E+00
         -2   -1    0    0    0  501 -0.00000000000E+00  0.00000000000E+00  0.38881128729E+02  0.38881128729E+02  0.00000000000E+00 0.  1.
          2   -1    0    0  501    0  0.00000000000E+00 -0.00000000000E+00 -0.56895443293E+03  0.56895443293E+03  0.00000000000E+00 0. -1.
         25    2    1    2    0    0  0.10902831165E+02 -0.94617631076E+02 -0.36631236245E+03  0.39862393159E+03  0.12507967106E+03 0.  0.
         23    2    1    2    0    0 -0.10902831165E+02  0.94617631076E+02 -0.16376094175E+03  0.20921163007E+03  0.88772136824E+02 0.  0.
          5    1    3    3  502    0 -0.14288542864E+02  0.22100333999E+02 -0.23294509622E+02  0.35393414621E+02  0.41800000000E+01 0. -1.
         -5    1    3    3    0  502  0.25191374028E+02 -0.11671796507E+03 -0.34301785283E+03  0.36323051696E+03  0.41800000000E+01 0. -1.
        -11    1    4    4    0    0  0.34567064713E+01 -0.12159189309E+02 -0.53807895907E+02  0.55272817607E+02  0.00000000000E+00 0. -1.
         11    1    4    4    0    0 -0.14359537636E+02  0.10677682039E+03 -0.10995304584E+03  0.15393881246E+03  0.00000000000E+00 0.  1.
</event>
<event>
 8    1  0.6692409E-009  0.1691610E+03  0.7561462E-02  0.1178726E+00
          1   -1    0    0  501    0  0.00000000000E+00  0.00000000000E+00  0.40845667140E+03  0.40845667140E+03  0.00000000000E+00 0. -1.
         -1   -1    0    0    0  501 -0.00000000000E+00 -0.00000000000E+00 -0.89065579373E+02  0.89065579373E+02  0.00000000000E+00 0.  1.
         25    2    1    2    0    0  0.13635029259E+03 -0.75285796037E+02  0.20262416512E+03  0.28454153940E+03  0.12509189414E+03 0.  0.
         23    2    1    2    0    0 -0.13635029259E+03  0.75285796037E+02  0.11676692690E+03  0.21298071137E+03  0.86411311905E+02 0.  0.
          5    1    3    3  502    0  0.11229824530E+01 -0.80347199121E+01  0.10336751723E+03  0.10376961902E+03  0.41800000000E+01 0. -1.
         -5    1    3    3    0  502  0.13522731013E+03 -0.67251076125E+02  0.99256647892E+02  0.18077192038E+03  0.41800000000E+01 0. -1.
        -11    1    4    4    0    0 -0.14372686129E+02 -0.19083178980E+02  0.16342325506E+02  0.28945006987E+02  0.00000000000E+00 0.  1.
         11    1    4    4    0    0 -0.12197760646E+03  0.94368975017E+02  0.10042460140E+03  0.18403570438E+03  0.00000000000E+00 0. -1.
</event>
<event>
 8    1  0.6692409E-009  0.1061311E+03  0.7561462E-02  0.1267907E+00
          1   -1    0    0  501    0  0.00000000000E+00  0.00000000000E+00  0.24726689708E+02  0.24726689708E+02  0.00000000000E+00 0. -1.
         -1   -1    0    0    0  501 -0.00000000000E+00 -0.00000000000E+00 -0.48858032333E+03  0.48858032333E+03  0.00000000000E+00 0.  1.
         25    2    1    2    0    0  0.13332395053E+02  0.12791022062E+02 -0.24594399929E+03  0.27652606085E+03  0.12504738518E+03 0.  0.
         23    2    1    2    0    0 -0.13332395053E+02 -0.12791022062E+02 -0.21790963433E+03  0.23678095219E+03  0.90770301201E+02 0.  0.
          5    1    3    3  502    0 -0.10874628720E+02  0.63543127879E+02 -0.90663039617E+02  0.11132495589E+03  0.41800000000E+01 0.  1.
         -5    1    3    3    0  502  0.24207023773E+02 -0.50752105817E+02 -0.15528095968E+03  0.16520110497E+03  0.41800000000E+01 0.  1.
        -11    1    4    4    0    0  0.37917129534E+02  0.18908579231E+01 -0.71261910023E+02  0.80743692483E+02  0.00000000000E+00 0.  1.
         11    1    4    4    0    0 -0.51249524587E+02 -0.14681879985E+02 -0.14664772431E+03  0.15603725970E+03  0.00000000000E+00 0. -1.
</event>
<event>
 8    1  0.6692409E-009  0.7923403E+02  0.7561462E-02  0.1331239E+00
          4   -1    0    0  501    0  0.00000000000E+00  0.00000000000E+00  0.93761869730E+02  0.93761869730E+02  0.00000000000E+00 0. -1.
         -4   -1    0    0    0  501 -0.00000000000E+00 -0.00000000000E+00 -0.17559171413E+03  0.17559171413E+03  0.00000000000E+00 0.  1.
         25    2    1    2    0    0  0.46122746760E+02  0.51742503301E+02 -0.40297374482E+02  0.14858018242E+03  0.12509035855E+03 0.  0.
         23    2    1    2    0    0 -0.46122746760E+02 -0.51742503301E+02 -0.41532469916E+02  0.12077340144E+03  0.89758977384E+02 0.  0.
          5    1    3    3  502    0  0.29664379627E+02  0.51707294710E+02  0.36435877916E+02  0.69990466096E+02  0.41800000000E+01 0.  1.
         -5    1    3    3    0  502  0.16458367133E+02  0.35208591199E-01 -0.76733252398E+02  0.78589716324E+02  0.41800000000E+01 0.  1.
        -11    1    4    4    0    0 -0.46080817670E+02 -0.20414207346E+02  0.17986020671E+02  0.53513349346E+02  0.00000000000E+00 0. -1.
         11    1    4    4    0    0 -0.41929090007E-01 -0.31328295955E+02 -0.59518490587E+02  0.67260052091E+02  0.00000000000E+00 0.  1.
</event>
<event>
 8    1  0.6692409E-009  0.1333783E+03  0.7561462E-02  0.1222527E+00
         -2   -1    0    0    0  501 -0.00000000000E+00  0.00000000000E+00  0.27293029497E+03  0.27293029497E+03  0.00000000000E+00 0.  1.
          2   -1    0    0  501    0  0.00000000000E+00 -0.00000000000E+00 -0.78982948291E+02  0.78982948291E+02  0.00000000000E+00 0. -1.
         25    2    1    2    0    0  0.83848767835E+02  0.32545023013E+02  0.13148678799E+03  0.20254822217E+03  0.12508881844E+03 0.  0.
         23    2    1    2    0    0 -0.83848767835E+02 -0.32545023013E+02  0.62460558696E+02  0.14936502109E+03  0.10158146358E+03 0.  0.
          5    1    3    3  502    0  0.21453022787E+02 -0.45567009148E+02  0.65324298982E+02  0.82591288565E+02  0.41800000000E+01 0. -1.
         -5    1    3    3    0  502  0.62395745048E+02  0.78112032162E+02  0.66162489005E+02  0.11995693360E+03  0.41800000000E+01 0. -1.
        -11    1    4    4    0    0 -0.78431516066E+02 -0.53221214104E+02  0.78152876213E+02  0.12284898210E+03  0.00000000000E+00 0.  1.
         11    1    4    4    0    0 -0.54172517695E+01  0.20676191091E+02 -0.15692317517E+02  0.26516038992E+02  0.00000000000E+00 0. -1.
</event>
<event>
 8    1  0.6692409E-009  0.1846210E+03  0.7561462E-02  0.1163404E+00
          2   -1    0    0  501    0  0.00000000000E+00  0.00000000000E+00  0.12434351042E+04  0.12434351042E+04  0.00000000000E+00 0. -1.
         -2   -1    0    0    0  501 -0.00000000000E+00 -0.00000000000E+00 -0.29825785809E+02  0.29825785809E+02  0.00000000000E+00 0.  1.
         25    2    1    2    0    0 -0.11553745811E+03 -0.10173584463E+03  0.51861562249E+03  0.55525540911E+03  0.12508924472E+03 0.  0.
         23    2    1    2    0    0  0.11553745811E+03  0.10173584463E+03  0.69499369588E+03  0.71800548088E+03  0.93896469337E+02 0.  0.
          5    1    3    3  502    0 -0.10931997043E+03 -0.12911289355E+03  0.42579163929E+03  0.45818881229E+03  0.41800000000E+01 0.  1.
         -5    1    3    3    0  502 -0.62174876737E+01  0.27377048928E+02  0.92823983202E+02  0.97066596822E+02  0.41800000000E+01 0.  1.
        -11    1    4    4    0    0  0.63232285347E+01 -0.12238294036E+02  0.17012415215E+02  0.21890210859E+02  0.00000000000E+00 0.  1.
         11    1    4    4    0    0  0.10921422957E+03  0.11397413866E+03  0.67798128066E+03  0.69611527002E+03  0.00000000000E+00 0. -1.
</event>
<event>
 8    1  0.6692409E-009  0.1085631E+03  0.7561462E-02  0.1263254E+00
         -2   -1    0    0    0  501 -0.00000000000E+00  0.00000000000E+00  0.38136757560E+02  0.38136757560E+02  0.00000000000E+00 0.  1.
          2   -1    0    0  501    0  0.00000000000E+00 -0.00000000000E+00 -0.39033968297E+03  0.39033968297E+03  0.00000000000E+00 0. -1.
         25    2    1    2    0    0  0.58526373061E+02  0.98826036791E+00 -0.27427000205E+03  0.30707918125E+03  0.12508907439E+03 0.  0.
         23    2    1    2    0    0 -0.58526373061E+02 -0.98826036791E+00 -0.77932923358E+02  0.12139725928E+03  0.72370166604E+02 0.  0.
          5    1    3    3  502    0  0.98529043120E+01  0.53434714680E+02 -0.18350917341E+03  0.19142998088E+03  0.41800000000E+01 0.  1.
         -5    1    3    3    0  502  0.48673468749E+02 -0.52446454312E+02 -0.90760828639E+02  0.11564920037E+03  0.41800000000E+01 0.  1.
        -11    1    4    4    0    0 -0.14684093886E+02  0.32581331166E+02 -0.18391109860E+02  0.40192022538E+02  0.00000000000E+00 0.  1.
         11    1    4    4    0    0 -0.43842279175E+02 -0.33569591534E+02 -0.59541813498E+02  0.81205236738E+02  0.00000000000E+00 0. -1.
</event>
<event>
 8    1  0.6692409E-009  0.1764010E+03  0.7561462E-02  0.1171332E+00
          1   -1    0    0  501    0  0.00000000000E+00  0.00000000000E+00  0.17977937767E+04  0.17977937767E+04  0.00000000000E+00 0. -1.
         -1   -1    0    0    0  501 -0.00000000000E+00 -0.00000000000E+00 -0.26349686074E+02  0.26349686074E+02  0.00000000000E+00 0.  1.
         25    2    1    2    0    0  0.81853142206E+02  0.15339954053E+03  0.12113443808E+04  0.12301359363E+04  0.12509139416E+03 0.  0.
         23    2    1    2    0    0 -0.81853142206E+02 -0.15339954053E+03  0.56009970987E+03  0.59400752655E+03  0.94349884327E+02 0.  0.
          5    1    3    3  502    0  0.60817635852E+01  0.81520353486E+01  0.50150070277E+03  0.50162124238E+03  0.41800000000E+01 0. -1.
         -5    1    3    3    0  502  0.75771378621E+02  0.14524750518E+03  0.70984367803E+03  0.72851469389E+03  0.41800000000E+01 0. -1.
        -11    1    4    4    0    0 -0.50538882834E+02 -0.12797546878E+03  0.51692061155E+03  0.53491944995E+03  0.00000000000E+00 0. -1.
         11    1    4    4    0    0 -0.31314259372E+02 -0.25424071747E+02  0.43179098322E+02  0.59088076598E+02  0.00000000000E+00 0.  1.
</event>
<event>
 8    1  0.6692409E-009  0.1660215E+03  0.7561462E-02  0.1182061E+00
         -2   -1    0    0    0  501 -0.00000000000E+00  0.00000000000E+00  0.53853922225E+02  0.53853922225E+02  0.00000000000E+00 0.  1.
          2   -1    0    0  501    0  0.00000000000E+00 -0.00000000000E+00 -0.53691817926E+03  0.53691817926E+03  0.00000000000E+00 0. -1.
         25    2    1    2    0    0 -0.61139793342E+02  0.11093666269E+03 -0.19997152512E+03  0.26773429755E+03  0.12509206918E+03 0.  0.
         23    2    1    2    0    0  0.61139793342E+02 -0.11093666269E+03 -0.28309273192E+03  0.32303780393E+03  0.90370960181E+02 0.  0.
          5    1    3    3  502    0  0.13954675449E+02  0.10096597781E+03 -0.10930921968E+03  0.14951534887E+03  0.41800000000E+01 0. -1.
         -5    1    3    3    0  502 -0.75094468791E+02  0.99706848785E+01 -0.90662305439E+02  0.11821894868E+03  0.41800000000E+01 0. -1.
        -11    1    4    4    0    0  0.61659061005E+02 -0.22365411567E+02 -0.99157485952E+02  0.11888758749E+03  0.00000000000E+00 0.  1.
         11    1    4    4    0    0 -0.51926766240E+00 -0.88571251121E+02 -0.18393524596E+03  0.20415021644E+03  0.00000000000E+00 0. -1.
</event>
<event>
 7    1  0.6692409E-009  0.1139215E+03  0.7561462E-02  0.1253475E+00
          2   -1    0    0  501    0  0.00000000000E+00  0.00000000000E+00  0.51769017064E+03  0.51769017064E+03  0.00000000000E+00 0. -1.
         -2   -1    0    0    0  501 -0.00000000000E+00 -0.00000000000E+00 -0.65528183621E+02  0.65528183621E+02  0.00000000000E+00 0.  1.
         23    2    1    2    0    0 -0.45245557152E+02 -0.69554097830E+02  0.40910125448E+03  0.42712041320E+03  0.90460366981E+02 0.  0.
          5    1    1    2  502    0 -0.17364836501E+02  0.36675721291E+02  0.69413963308E+02  0.80513457142E+02  0.41800000000E+01 0. -1.
         -5    1    1    2    0  502  0.62610393653E+02  0.32878376539E+02 -0.26353230764E+02  0.75584483916E+02  0.41800000000E+01 0. -1.
        -11    1    3    3    0    0 -0.37678729880E+02  0.78057881249E+01  0.77445649928E+02  0.86478007067E+02  0.00000000000E+00 0.  1.
         11    1    3    3    0    0 -0.75668272725E+01 -0.77359885955E+02  0.33165560455E+03  0.34064240614E+03  0.00000000000E+00 0. -1.
</event>
<event>
 8    1  0.6692409E-009  0.4867105E+03  0.7561462E-02  0.1017307E+00
         -2   -1    0    0    0  501 -0.00000000000E+00  0.00000000000E+00  0.27986960562E+03  0.27986960562E+03  0.00000000000E+00 0.  1.
          2   -1    0    0  501    0  0.00000000000E+00 -0.00000000000E+00 -0.13027044936E+04  0.13027044936E+04  0.00000000000E+00 0. -1.
         25    2    1    2    0    0  0.26910434267E+03  0.39793598811E+03 -0.96992714980E+03  0.10895763698E+04  0.12509113450E+03 0.  0.
         23    2    1    2    0    0 -0.26910434267E+03 -0.39793598811E+03 -0.52907738167E+02  0.49299772937E+03  0.97351602592E+02 0.  0.
          5    1    3    3  502    0  0.43363614431E+02  0.10301442928E+03 -0.34419604881E+03  0.36191265260E+03  0.41800000000E+01 0. -1.
         -5    1    3    3    0  502  0.22574072823E+03  0.29492155884E+03 -0.62573110099E+03  0.72766371725E+03  0.41800000000E+01 0. -1.
        -11    1    4    4    0    0 -0.20766443541E+02 -0.10072925655E+03 -0.11111860049E+02  0.10344612963E+03  0.00000000000E+00 0.  1.
         11    1    4    4    0    0 -0.24833789912E+03 -0.29720673156E+03 -0.41795878118E+02  0.38955159973E+03  0.00000000000E+00 0. -1.
</event>
<event>
 8    1  0.6692409E-009  0.2400986E+03  0.7561462E-02  0.1119727E+00
          1   -1    0    0  501    0  0.00000000000E+00  0.00000000000E+00  0.55696985954E+03  0.55696985954E+03  0.00000000000E+00 0. -1.
         -1   -1    0    0    0  501 -0.00000000000E+00 -0.00000000000E+00 -0.12093230880E+03  0.12093230880E+03  0.00000000000E+00 0.  1.
         25    2    1    2    0    0 -0.14060306999E+03 -0.18516875484E+03  0.27263364087E+03  0.37951130689E+03  0.12507213465E+03 0.  0.
         23    2    1    2    0    0  0.14060306999E+03  0.18516875484E+03  0.16340390986E+03  0.29839086145E+03  0.90992183061E+02 0.  0.
          5    1    3    3  502    0 -0.80895279082E+02 -0.13780217829E+03  0.25534223592E+03  0.30124842965E+03  0.41800000000E+01 0.  1.
         -5    1    3    3    0  502 -0.59707790909E+02 -0.47366576554E+02  0.17291404947E+02  0.78262877245E+02  0.41800000000E+01 0.  1.
        -11    1    4    4    0    0  0.19736156154E+02 -0.34148850588E+01  0.34671302158E+02  0.40040935217E+02  0.00000000000E+00 0.  1.
         11    1    4    4    0    0  0.12086691384E+03  0.18858363990E+03  0.12873260771E+03  0.25834992623E+03  0.00000000000E+00 0. -1.
</event>
<event>
 8    1  0.6692409E-009  0.1074949E+03  0.7561462E-02  0.1265281E+00
          1   -1    0    0  501    0  0.00000000000E+00  0.00000000000E+00  0.48904920424E+02  0.48904920424E+02  0.00000000000E+00 0. -1.
         -1   -1    0    0    0  501 -0.00000000000E+00 -0.00000000000E+00 -0.31327628129E+03  0.31327628129E+03  0.00000000000E+00 0.  1.
         25    2    1    2    0    0  0.36444715958E+02 -0.46641966078E+02 -0.14606974696E+03  0.20122015136E+03  0.12509791370E+03 0.  0.
         23    2    1    2    0    0 -0.36444715958E+02  0.46641966078E+02 -0.11830161390E+03  0.16096105036E+03  0.91703312694E+02 0.  0.
          5    1    3    3  502    0  0.47398441574E+01 -0.82313416141E+02 -0.12277412732E+03  0.14794905657E+03  0.41800000000E+01 0. -1.
         -5    1    3    3    0  502  0.31704871801E+02  0.35671450064E+02 -0.23295619640E+02  0.53271094789E+02  0.41800000000E+01 0. -1.
        -11    1    4    4    0    0 -0.15953380377E+02 -0.13556981783E+02 -0.88116924212E+02  0.90569831805E+02  0.00000000000E+00 0.  1.
         11    1    4    4    0    0 -0.20491335582E+02  0.60198947861E+02 -0.30184689689E+02  0.70391218551E+02  0.00000000000E+00 0. -1.
</event>
<event>
 8    1  0.6692409E-009  0.9199166E+02  0.7561462E-02  0.1298099E+00
         -1   -1    0    0    0  501 -0.00000000000E+00  0.00000000000E+00  0.49494934638E+03  0.49494934638E+03  0.00000000000E+00 0.  1.
          1   -1    0    0  501    0  0.00000000000E+00 -0.00000000000E+00 -0.29799964493E+02  0.29799964493E+02  0.00000000000E+00 0. -1.
         25    2    1    2    0    0 -0.36133592875E+02  0.24157467329E+02  0.18887414024E+03  0.23067977149E+03  0.12510194387E+03 0.  0.
         23    2    1    2    0    0  0.36133592875E+02 -0.24157467329E+02  0.27627524165E+03  0.29406953939E+03  0.90882699591E+02 0.  0.
          5    1    3    3  502    0 -0.73991703134E+02  0.13246994281E+01  0.63258221291E+02  0.97445379173E+02  0.41800000000E+01 0. -1.
         -5    1    3    3    0  502  0.37858110259E+02  0.22832767901E+02  0.12561591895E+03  0.13323439231E+03  0.41800000000E+01 0. -1.
        -11    1    4    4    0    0 -0.69650565877E+01  0.87823884002E+01 -0.12629065036E+01  0.11279950892E+02  0.00000000000E+00 0. -1.
         11    1    4    4    0    0  0.43098649463E+02 -0.32939855730E+02  0.27753814815E+03  0.28278958850E+03  0.00000000000E+00 0.  1.
</event>
<event>
 8    1  0.6692409E-009  0.8580888E+02  0.7561462E-02  0.1313331E+00
         -1   -1    0    0    0  501 -0.00000000000E+00  0.00000000000E+00  0.97247678108E+02  0.97247678108E+02  0.00000000000E+00 0.  1.
          1   -1    0    0  501    0  0.00000000000E+00 -0.00000000000E+00 -0.55315154850E+03  0.55315154850E+03  0.00000000000E+00 0. -1.
         25    2    1    2    0    0 -0.69750627442E+02 -0.79914961520E+01 -0.50694281601E+03  0.52684595209E+03  0.12508646803E+03 0.  0.
         23    2    1    2    0    0  0.69750627442E+02  0.79914961520E+01  0.51038945627E+02  0.12355327451E+03  0.87928514335E+02 0.  0.
          5    1    3    3  502    0 -0.84011072211E+02 -0.67549831668E+01 -0.17213869415E+03  0.19170991752E+03  0.41800000000E+01 0. -1.
         -5    1    3    3    0  502  0.14260444769E+02 -0.12365129852E+01 -0.33480412187E+03  0.33513603457E+03  0.41800000000E+01 0. -1.
        -11    1    4    4    0    0  0.12006460810E+02  0.82635539028E+01  0.62930834192E+02  0.64596681930E+02  0.00000000000E+00 0. -1.
         11    1    4    4    0    0  0.57744166632E+02 -0.27205775076E+00 -0.11891888565E+02  0.58956592584E+02  0.00000000000E+00 0.  1.
</event>
<event>
 8    1  0.6692409E-009  0.1569986E+03  0.7561462E-02  0.1192128E+00
         -4   -1    0    0    0  501 -0.00000000000E+00  0.00000000000E+00  0.69847475907E+03  0.69847475907E+03  0.00000000000E+00 0.  1.
          4   -1    0    0  501    0  0.00000000000E+00 -0.00000000000E+00 -0.73194304326E+02  0.73194304326E+02  0.00000000000E+00 0. -1.
         25    2    1    2    0    0  0.56481058606E+02  0.98596468540E+02  0.60092847777E+03  0.62423737465E+03  0.12508353578E+03 0.  0.
         23    2    1    2    0    0 -0.56481058606E+02 -0.98596468540E+02  0.24351976975E+02  0.14743168875E+03  0.90728774238E+02 0.  0.
          5    1    3    3  502    0  0.87581532044E+02  0.10476212181E+03  0.50283355201E+03  0.52106111000E+03  0.41800000000E+01 0.  1.
         -5    1    3    3    0  502 -0.31100473438E+02 -0.61656532660E+01  0.98094925754E+02  0.10317626465E+03  0.41800000000E+01 0.  1.
        -11    1    4    4    0    0  0.15907079449E+02 -0.62543576030E+02  0.10378309045E+02  0.65363930251E+02  0.00000000000E+00 0.  1.
         11    1    4    4    0    0 -0.72388138055E+02 -0.36052892510E+02  0.13973667929E+02  0.82067758497E+02  0.00000000000E+00 0. -1.
</event>
<event>
 8    1  0.6692409E-009  0.8588674E+02  0.7561462E-02  0.1313130E+00
         -2   -1    0    0    0  501 -0.00000000000E+00  0.00000000000E+00  0.14937964182E+03  0.14937964182E+03  0.00000000000E+00 0. -1.
          2   -1    0    0  501    0  0.00000000000E+00 -0.00000000000E+00 -0.92996112027E+02  0.92996112027E+02  0.00000000000E+00 0.  1.
         25    2    1    2    0    0  0.13648256316E+01  0.18823873245E+02 -0.11613663359E+02  0.12703841711E+03  0.12509069226E+03 0.  0.
         23    2    1    2    0    0 -0.13648256316E+01 -0.18823873245E+02  0.67997193156E+02  0.11533733675E+03  0.91229830744E+02 0.  0.
          5    1    3    3  502    0  0.34108211510E+02 -0.93422490653E+01  0.43932304252E+02  0.56552342718E+02  0.41800000000E+01 0. -1.
         -5    1    3    3    0  502 -0.32743385879E+02  0.28166122310E+02 -0.55545967610E+02  0.70486074387E+02  0.41800000000E+01 0. -1.
        -11    1    4    4    0    0  0.41244665458E+02 -0.27117745691E+02  0.30890556093E+02  0.58229897955E+02  0.00000000000E+00 0.  1.
         11    1    4    4    0    0 -0.42609491090E+02  0.82938724463E+01  0.37106637063E+02  0.57107438791E+02  0.00000000000E+00 0. -1.
</event>
<event>
 8    1  0.6692409E-009  0.1178231E+03  0.7561462E-02  0.1246732E+00
          1   -1    0    0  501    0  0.00000000000E+00  0.00000000000E+00  0.57447901827E+02  0.57447901827E+02  0.00000000000E+00 0. -1.
         -1   -1    0    0    0  501 -0.00000000000E+00 -0.00000000000E+00 -0.44296046617E+03  0.44296046617E+03  0.00000000000E+00 0.  1.
         25    2    1    2    0    0  0.91702372998E+02 -0.35622417957E+02 -0.10789419453E+03  0.19226604926E+03  0.12508714807E+03 0.  0.
         23    2    1    2    0    0 -0.91702372998E+02  0.35622417957E+02 -0.27761836981E+03  0.30814231873E+03  0.90561843300E+02 0.  0.
          5    1    3    3  502    0  0.18787867649E+02  0.19690922779E+02  0.20647258224E+02  0.34416537926E+02  0.41800000000E+01 0. -1.
         -5    1    3    3    0  502  0.72914505349E+02 -0.55313340736E+02 -0.12854145275E+03  0.15784951134E+03  0.41800000000E+01 0. -1.
        -11    1    4    4    0    0 -0.99162118416E+02  0.22940085656E+02 -0.27495619868E+03  0.29318984371E+03  0.00000000000E+00 0.  1.
         11    1    4    4    0    0  0.74597454179E+01  0.12682332300E+02 -0.26621711297E+01  0.14952475026E+02  0.00000000000E+00 0. -1.
</event>
<event>
 8    1  0.6692409E-009  0.1177835E+03  0.7561462E-02  0.1246799E+00
          2   -1    0    0  501    0  0.00000000000E+00  0.00000000000E+00  0.11214279188E+04  0.11214279188E+04  0.00000000000E+00 0. -1.
         -2   -1    0    0    0  501 -0.00000000000E+00 -0.00000000000E+00 -0.12675355576E+02  0.12675355576E+02  0.00000000000E+00 0.  1.
         25    2    1    2    0    0  0.50108353996E+02 -0.52063959348E+01  0.63847917116E+03  0.65256447918E+03  0.12508714475E+03 0.  0.
         23    2    1    2    0    0 -0.50108353996E+02  0.52063959348E+01  0.47027339211E+03  0.48153879524E+03  0.90468747631E+02 0.  0.
          5    1    3    3  502    0  0.86687933305E+01 -0.62847383081E+02  0.28571386926E+03  0.29270262900E+03  0.41800000000E+01 0.  1.
         -5    1    3    3    0  502  0.41439560665E+02  0.57640987146E+02  0.35276530190E+03  0.35986185018E+03  0.41800000000E+01 0.  1.
        -11    1    4    4    0    0 -0.37341954406E+02 -0.39513488704E+02  0.19829227093E+03  0.20561021876E+03  0.00000000000E+00 0.  1.
         11    1    4    4    0    0 -0.12766399589E+02  0.44719884639E+02  0.27198112118E+03  0.27592857648E+03  0.00000000000E+00 0. -1.
</event>
<event>
 8    1  0.6692409E-009  0.7923125E+02  0.7561462E-02  0.1331247E+00
         -1   -1    0    0    0  501 -0.00000000000E+00  0.00000000000E+00  0.13175311257E+03  0.13175311257E+03  0.00000000000E+00 0.  1.
          1   -1    0    0  501    0  0.00000000000E+00 -0.00000000000E+00 -0.10712934285E+03  0.10712934285E+03  0.00000000000E+00 0. -1.
         25    2    1    2    0    0  0.33192647499E+02 -0.94382026647E+01 -0.14104806853E+02  0.13053660759E+03  0.12510007525E+03 0.  0.
         23    2    1    2    0    0 -0.33192647499E+02  0.94382026647E+01  0.38728576573E+02  0.10834584783E+03  0.95121441227E+02 0.  0.
          5    1    3    3  502    0 -0.23442817941E+02  0.30460508467E+02 -0.40768455085E+02  0.56186721021E+02  0.41800000000E+01 0.  1.
         -5    1    3    3    0  502  0.56635465439E+02 -0.39898711132E+02  0.26663648232E+02  0.74349886567E+02  0.41800000000E+01 0.  1.
        -11    1    4    4    0    0 -0.24494411276E+01  0.18249808475E+02  0.64623535452E+02  0.67195659127E+02  0.00000000000E+00 0.  1.
         11    1    4    4    0    0 -0.30743206371E+02 -0.88116058106E+01 -0.25894958879E+02  0.41150188703E+02  0.00000000000E+00 0. -1.
</event>
<event>
 8    1  0.6692409E-009  0.2648017E+03  0.7561462E-02  0.1104292E+00
         -2   -1    0    0    0  501 -0.00000000000E+00  0.00000000000E+00  0.66518764411E+02  0.66518764411E+02  0.00000000000E+00 0.  1.
          2   -1    0    0  501    0  0.00000000000E+00 -0.00000000000E+00 -0.14439679399E+04  0.14439679399E+04  0.00000000000E+00 0. -1.
         25    2    1    2    0    0  0.26292744097E+03 -0.14597642133E+02 -0.40495301865E+03  0.49897750590E+03  0.12509066197E+03 0.  0.
         23    2    1    2    0    0 -0.26292744097E+03  0.14597642133E+02 -0.97249615687E+03  0.10115091984E+04  0.89767215786E+02 0.  0.
          5    1    3    3  502    0  0.18216204145E+03 -0.24791229071E+01 -0.36500605859E+03  0.40796574685E+03  0.41800000000E+01 0.  1.
         -5    1    3    3    0  502  0.80765399520E+02 -0.12118519226E+02 -0.39946960061E+02  0.91011759054E+02  0.41800000000E+01 0.  1.
        -11    1    4    4    0    0 -0.13990832165E+03 -0.95483654318E+01 -0.36071926384E+03  0.38701924636E+03  0.00000000000E+00 0.  1.
         11    1    4    4    0    0 -0.12301911932E+03  0.24146007565E+02 -0.61177689303E+03  0.62448995208E+03  0.00000000000E+00 0. -1.
</event>
<event>
 8    1  0.6692409E-009  0.7806475E+02  0.7561462E-02  0.1334635E+00
          3   -1    0    0  501    0  0.00000000000E+00  0.00000000000E+00  0.47171893400E+03  0.47171893400E+03  0.00000000000E+00 0. -1.
         -3   -1    0    0    0  501 -0.00000000000E+00 -0.00000000000E+00 -0.30808223346E+02  0.30808223346E+02  0.00000000000E+00 0.  1.
         25    2    1    2    0    0 -0.15779506509E+01 -0.41308862507E+02  0.31642722800E+03  0.34275736900E+03  0.12509001292E+03 0.  0.
         23    2    1    2    0    0  0.15779506509E+01  0.41308862507E+02  0.12448348266E+03  0.15976978835E+03  0.91221355859E+02 0.  0.
          5    1    3    3  502    0  0.23623832292E+02 -0.22887711886E+01  0.28612706451E+03  0.28714019811E+03  0.41800000000E+01 0.  1.
         -5    1    3    3    0  502 -0.25201782943E+02 -0.39020091318E+02  0.30300163487E+02  0.55617170886E+02  0.41800000000E+01 0.  1.
        -11    1    4    4    0    0  0.12202864707E+02 -0.19858297283E+02  0.32087256361E+01  0.23527809041E+02  0.00000000000E+00 0.  1.
         11    1    4    4    0    0 -0.10624914056E+02  0.61167159790E+02  0.12127475702E+03  0.13624197931E+03  0.00000000000E+00 0. -1.
</event>
<event>
 8    1  0.6692409E-009  0.1170318E+03  0.7561462E-02  0.1248075E+00
         -3   -1    0    0    0  501 -0.00000000000E+00  0.00000000000E+00  0.83095531600E+02  0.83095531600E+02  0.00000000000E+00 0. -1.
          3   -1    0    0  501    0  0.00000000000E+00 -0.00000000000E+00 -0.29593657187E+03  0.29593657187E+03  0.00000000000E+00 0.  1.
         25    2    1    2    0    0  0.36381440116E+02 -0.10172820953E+03 -0.76742432149E+02  0.18223340081E+03  0.12508946271E+03 0.  0.
         23    2    1    2    0    0 -0.36381440116E+02  0.10172820953E+03 -0.13609860812E+03  0.19679870266E+03  0.92383225959E+02 0.  0.
          5    1    3    3  502    0  0.20416337469E+02 -0.42828842475E+02  0.32060661166E+02  0.57415111058E+02  0.41800000000E+01 0.  1.
         -5    1    3    3    0  502  0.15965102647E+02 -0.58899367050E+02 -0.10880309331E+03  0.12481828975E+03  0.41800000000E+01 0.  1.
        -11    1    4    4    0    0 -0.24702173618E+02  0.10882919868E+03 -0.14307641875E+03  0.18145206935E+03  0.00000000000E+00 0.  1.
         11    1    4    4    0    0 -0.11679266498E+02 -0.71009891564E+01  0.69778106300E+01  0.15346633316E+02  0.00000000000E+00 0. -1.
</event>
<event>
 8    1  0.6692409E-009  0.1237901E+03  0.7561462E-02  0.1236972E+00
         -1   -1    0    0    0  501 -0.00000000000E+00  0.00000000000E+00  0.43235342922E+02  0.43235342922E+02  0.00000000000E+00 0.  1.
          1   -1    0    0  501    0  0.00000000000E+00 -0.00000000000E+00 -0.37151333269E+03  0.37151333269E+03  0.00000000000E+00 0. -1.
         25    2    1    2    0    0 -0.23479184675E+02  0.59772644970E+02 -0.16561984673E+03  0.21726017481E+03  0.12509200105E+03 0.  0.
         23    2    1    2    0    0  0.23479184675E+02 -0.59772644970E+02 -0.16265814303E+03  0.19748850080E+03  0.91760532110E+02 0.  0.
          5    1    3    3  502    0  0.45711954115E+02  0.46622662578E+02 -0.52255761561E+02  0.83734057774E+02  0.41800000000E+01 0. -1.
         -5    1    3    3    0  502 -0.69191138790E+02  0.13149982392E+02 -0.11336408517E+03  0.13352611704E+03  0.41800000000E+01 0. -1.
        -11    1    4    4    0    0  0.58679457873E+02 -0.42040889063E+02 -0.11302113622E+03  0.13410627264E+03  0.00000000000E+00 0. -1.
         11    1    4    4    0    0 -0.35200273198E+02 -0.17731755907E+02 -0.49637006809E+02  0.63382228154E+02  0.00000000000E+00 0.  1.
</event>
<event>
 8    1  0.6692409E-009  0.9607043E+02  0.7561462E-02  0.1288783E+00
          2   -1    0    0  501    0  0.00000000000E+00  0.00000000000E+00  0.75401540838E+03  0.75401540838E+03  0.00000000000E+00 0. -1.
         -2   -1    0    0    0  501 -0.00000000000E+00 -0.00000000000E+00 -0.18751654008E+02  0.18751654008E+02  0.00000000000E+00 0.  1.
         25    2    1    2    0    0  0.13038550377E+02 -0.39571905026E+02  0.50178283926E+03  0.51881462483E+03  0.12508660079E+03 0.  0.
         23    2    1    2    0    0 -0.13038550377E+02  0.39571905026E+02  0.23348091511E+03  0.25395243756E+03  0.90788564025E+02 0.  0.
          5    1    3    3  502    0  0.52236765011E+02 -0.30315419413E+02  0.11540473361E+03  0.13032048654E+03  0.41800000000E+01 0. -1.
         -5    1    3    3    0  502 -0.39198214634E+02 -0.92564856134E+01  0.38637810566E+03  0.38849413829E+03  0.41800000000E+01 0. -1.
        -11    1    4    4    0    0  0.33358901543E+02  0.27323257071E+02  0.16356011869E+03  0.16914871893E+03  0.00000000000E+00 0. -1.
         11    1    4    4    0    0 -0.46397451920E+02  0.12248647955E+02  0.69920796419E+02  0.84803718628E+02  0.00000000000E+00 0.  1.
</event>
<event>
 8    1  0.6692409E-009  0.6635890E+02  0.7561462E-02  0.1372932E+00
          2   -1    0    0  501    0  0.00000000000E+00  0.00000000000E+00  0.10399467122E+03  0.10399467122E+03  0.00000000000E+00 0.  1.
         -2   -1    0    0    0  501 -0.00000000000E+00 -0.00000000000E+00 -0.12013757044E+03  0.12013757044E+03  0.00000000000E+00 0. -1.
         25    2    1    2    0    0 -0.27653759906E+02  0.81789251981E+01 -0.38251255412E+01  0.12842675804E+03  0.12508866991E+03 0.  0.
         23    2    1    2    0    0  0.27653759906E+02 -0.81789251981E+01 -0.12317773677E+02  0.95705483626E+02  0.90422269345E+02 0.  0.
          5    1    3    3  502    0  0.15355386706E+02  0.21196102193E+02  0.50963721449E+02  0.57444198602E+02  0.41800000000E+01 0. -1.
         -5    1    3    3    0  502 -0.43009146611E+02 -0.13017176995E+02 -0.54788846991E+02  0.70982559433E+02  0.41800000000E+01 0. -1.
        -11    1    4    4    0    0 -0.10157510584E+02 -0.19179816953E+02  0.30563737719E+02  0.37485763470E+02  0.00000000000E+00 0.  1.
         11    1    4    4    0    0  0.37811270489E+02  0.11000891755E+02 -0.42881511396E+02  0.58219720156E+02  0.00000000000E+00 0. -1.
</event>
<event>
 8    1  0.6692409E-009  0.1017347E+03  0.7561462E-02  0.1276690E+00
          4   -1    0    0  501    0  0.00000000000E+00  0.00000000000E+00  0.85862072950E+02  0.85862072950E+02  0.00000000000E+00 0. -1.
         -4   -1    0    0    0  501 -0.00000000000E+00 -0.00000000000E+00 -0.16738366532E+03  0.16738366532E+03  0.00000000000E+00 0.  1.
         25    2    1    2    0    0  0.20686068566E+02 -0.56251889914E+02 -0.58427951303E+02  0.15051014520E+03  0.12508912727E+03 0.  0.
         23    2    1    2    0    0 -0.20686068566E+02  0.56251889914E+02 -0.23093641071E+02  0.10273559308E+03  0.80181651738E+02 0.  0.
          5    1    3    3  502    0  0.54440534552E+02 -0.39051024506E+02  0.14085252268E+02  0.68590240186E+02  0.41800000000E+01 0.  1.
         -5    1    3    3    0  502 -0.33754465987E+02 -0.17200865407E+02 -0.72513203571E+02  0.81919905011E+02  0.41800000000E+01 0.  1.
        -11    1    4    4    0    0 -0.47969956883E+01  0.74143283431E+02 -0.25809890263E+02  0.78653595474E+02  0.00000000000E+00 0.  1.
         11    1    4    4    0    0 -0.15889072877E+02 -0.17891393518E+02  0.27162491918E+01  0.24081997603E+02  0.00000000000E+00 0. -1.
</event>
<event>
 7    1  0.6692409E-009  0.1099908E+03  0.7561462E-02  0.1260587E+00
         -1   -1    0    0    0  501 -0.00000000000E+00  0.00000000000E+00  0.45799566198E+02  0.45799566198E+02  0.00000000000E+00 0.  1.
          1   -1    0    0  501    0  0.00000000000E+00 -0.00000000000E+00 -0.42247748831E+03  0.42247748831E+03  0.00000000000E+00 0. -1.
         23    2    1    2    0    0  0.24988694601E+02  0.26162776026E+02 -0.30421074395E+03  0.31912237623E+03  0.89364358493E+02 0.  0.
          5    1    1    2  502    0 -0.67288325193E+02 -0.46768195497E+02 -0.36602527456E+02  0.89845424110E+02  0.41800000000E+01 0.  1.
         -5    1    1    2    0  502  0.42299630592E+02  0.20605419471E+02 -0.35864650708E+02  0.59309254170E+02  0.41800000000E+01 0.  1.
        -11    1    3    3    0    0  0.30524580713E+01  0.54652017068E+02 -0.23307077159E+03  0.23941208206E+03  0.00000000000E+00 0. -1.
         11    1    3    3    0    0  0.21936236529E+02 -0.28489241042E+02 -0.71139972361E+02  0.79710294165E+02  0.00000000000E+00 0.  1.
</event>
<event>
 8    1  0.6692409E-009  0.2790342E+03  0.7561462E-02  0.1096218E+00
         -2   -1    0    0    0  501 -0.00000000000E+00  0.00000000000E+00  0.25204064099E+03  0.25204064099E+03  0.00000000000E+00 0.  1.
          2   -1    0    0  501    0  0.00000000000E+00 -0.00000000000E+00 -0.33809201395E+03  0.33809201395E+03  0.00000000000E+00 0. -1.
         25    2    1    2    0    0 -0.22344540289E+03  0.13759643275E+03 -0.64464531248E+02  0.29776550110E+03  0.12509193211E+03 0.  0.
         23    2    1    2    0    0  0.22344540289E+03 -0.13759643275E+03 -0.21586841720E+02  0.29236715383E+03  0.12709026133E+03 0.  0.
          5    1    3    3  502    0 -0.73634910757E+02  0.89220795902E+02  0.22413843940E+02  0.11790802900E+03  0.41800000000E+01 0. -1.
         -5    1    3    3    0  502 -0.14981049214E+03  0.48375636850E+02 -0.86878375187E+02  0.17985747210E+03  0.41800000000E+01 0. -1.
        -11    1    4    4    0    0  0.15758480782E+03 -0.32657539339E+02  0.18867719116E+02  0.16203542007E+03  0.00000000000E+00 0. -1.
         11    1    4    4    0    0  0.65860595072E+02 -0.10493889341E+03 -0.40454560837E+02  0.13033173377E+03  0.00000000000E+00 0.  1.
</event>
<event>
 8    1  0.6692409E-009  0.6989892E+02  0.7561462E-02  0.1360437E+00
          3   -1    0    0  501    0  0.00000000000E+00  0.00000000000E+00  0.39020364071E+03  0.39020364071E+03  0.00000000000E+00 0. -1.
         -3   -1    0    0    0  501 -0.00000000000E+00 -0.00000000000E+00 -0.35969958927E+02  0.35969958927E+02  0.00000000000E+00 0.  1.
         25    2    1    2    0    0  0.39224973720E+02 -0.14351829002E+02  0.24266156319E+03  0.27618247991E+03  0.12509018508E+03 0.  0.
         23    2    1    2    0    0 -0.39224973720E+02  0.14351829002E+02  0.11157211859E+03  0.14999111972E+03  0.91128616742E+02 0.  0.
          5    1    3    3  502    0  0.41706688035E+02 -0.15926340855E+02  0.25704070994E+03  0.26092239292E+03  0.41800000000E+01 0. -1.
         -5    1    3    3    0  502 -0.24817143143E+01  0.15745118532E+01 -0.14379146756E+02  0.15260086990E+02  0.41800000000E+01 0. -1.
        -11    1    4    4    0    0 -0.26779520796E+02  0.47451478935E+02  0.97971931959E+02  0.11210390287E+03  0.00000000000E+00 0.  1.
         11    1    4    4    0    0 -0.12445452924E+02 -0.33099649933E+02  0.13600186631E+02  0.37887216849E+02  0.00000000000E+00 0. -1.
</event>
<event>
 7    1  0.6692409E-009  0.1685348E+03  0.7561462E-02  0.1179385E+00
         -1   -1    0    0    0  501 -0.00000000000E+00  0.00000000000E+00  0.41393443536E+02  0.41393443536E+02  0.00000000000E+00 0.  1.
          1   -1    0    0  501    0  0.00000000000E+00 -0.00000000000E+00 -0.75618455553E+03  0.75618455553E+03  0.00000000000E+00 0. -1.
         23    2    1    2    0    0 -0.79107952887E+02 -0.10935932266E+03 -0.40982500033E+03  0.44136630837E+03  0.92898641576E+02 0.  0.
          5    1    1    2  502    0  0.98233196647E+02  0.48848518669E+02 -0.24641005275E+03  0.26976160809E+03  0.41800000000E+01 0. -1.
         -5    1    1    2    0  502 -0.19125243760E+02  0.60510803989E+02 -0.58556058919E+02  0.86450082617E+02  0.41800000000E+01 0. -1.
        -11    1    3    3    0    0  0.10420882753E+02 -0.61086549581E+02 -0.16500747770E+03  0.17626011754E+03  0.00000000000E+00 0. -1.
         11    1    3    3    0    0 -0.89528835640E+02 -0.48272773078E+02 -0.24481752263E+03  0.26510619083E+03  0.00000000000E+00 0.  1.
</event>
<event>
 8    1  0.6692409E-009  0.1782227E+03  0.7561462E-02  0.1169534E+00
          1   -1    0    0  501    0  0.00000000000E+00  0.00000000000E+00  0.52038243105E+03  0.52038243105E+03  0.00000000000E+00 0. -1.
         -1   -1    0    0    0  501 -0.00000000000E+00 -0.00000000000E+00 -0.67993521988E+02  0.67993521988E+02  0.00000000000E+00 0.  1.
         25    2    1    2    0    0  0.27578943386E+02 -0.14959649009E+03  0.20985665303E+03  0.28779633844E+03  0.12508880699E+03 0.  0.
         23    2    1    2    0    0 -0.27578943386E+02  0.14959649009E+03  0.24253225604E+03  0.30057961460E+03  0.91577844094E+02 0.  0.
          5    1    3    3  502    0  0.16344891010E+02  0.10924610284E+02 -0.36310689027E+01  0.20424486122E+02  0.41800000000E+01 0.  1.
         -5    1    3    3    0  502  0.11234052377E+02 -0.16052110037E+03  0.21348772193E+03  0.26737185232E+03  0.41800000000E+01 0.  1.
        -11    1    4    4    0    0  0.31885187754E+02  0.57609826162E+02  0.11454055431E+03  0.13211773480E+03  0.00000000000E+00 0.  1.
         11    1    4    4    0    0 -0.59464131140E+02  0.91986663927E+02  0.12799170173E+03  0.16846187979E+03  0.00000000000E+00 0. -1.
</event>
<event>
 8    1  0.6692409E-009  0.1186566E+03  0.7561462E-02  0.1245330E+00
         -1   -1    0    0    0  501 -0.00000000000E+00  0.00000000000E+00  0.39410698414E+03  0.39410698414E+03  0.00000000000E+00 0.  1.
          1   -1    0    0  501    0  0.00000000000E+00 -0.00000000000E+00 -0.46176385192E+02  0.46176385192E+02  0.00000000000E+00 0. -1.
         25    2    1    2    0    0 -0.27770148579E+02  0.48038341385E+02  0.22489926658E+03  0.26325958418E+03  0.12508822949E+03 0.  0.
         23    2    1    2    0    0  0.27770148579E+02 -0.48038341385E+02  0.12303133236E+03  0.17702378515E+03  0.11455063671E+03 0.  0.
          5    1    3    3  502    0 -0.48827913427E+02  0.71940878783E+02  0.92497299610E+02  0.12701526682E+03  0.41800000000E+01 0. -1.
         -5    1    3    3    0  502  0.21057764848E+02 -0.23902537398E+02  0.13240196697E+03  0.13624431736E+03  0.41800000000E+01 0. -1.
        -11    1    4    4    0    0  0.36058977927E+02 -0.78597709483E+02  0.11583443951E+03  0.14455264509E+03  0.00000000000E+00 0. -1.
         11    1    4    4    0    0 -0.82888293478E+01  0.30559368098E+02  0.71968928560E+01  0.32471140068E+02  0.00000000000E+00 0.  1.
</event>
<event>
 8    1  0.6692409E-009  0.1302630E+03  0.7561462E-02  0.1227066E+00
          1   -1    0    0  501    0  0.00000000000E+00  0.00000000000E+00  0.19028689809E+04  0.19028689809E+04  0.00000000000E+00 0. -1.
         -1   -1    0    0    0  501 -0.00000000000E+00 -0.00000000000E+00 -0.57331278839E+02  0.57331278839E+02  0.00000000000E+00 0.  1.
         25    2    1    2    0    0 -0.91435155791E+02  0.76406809692E+01  0.18207632292E+04  0.18273601446E+04  0.12509034114E+03 0.  0.
         23    2    1    2    0    0  0.91435155791E+02 -0.76406809692E+01  0.24774472842E+02  0.13284011515E+03  0.92811389211E+02 0.  0.
          5    1    3    3  502    0  0.18501825336E+02  0.76944904744E+01  0.87190128794E+03  0.87214153154E+03  0.41800000000E+01 0. -1.
         -5    1    3    3    0  502 -0.10993698113E+03 -0.53809505193E-01  0.94886194128E+03  0.95521861306E+03  0.41800000000E+01 0. -1.
        -11    1    4    4    0    0 -0.12564896719E+02 -0.21718947623E+02  0.92858505403E+01  0.26754744171E+02  0.00000000000E+00 0.  1.
         11    1    4    4    0    0  0.10400005251E+03  0.14078266654E+02  0.15488622302E+02  0.10608537098E+03  0.00000000000E+00 0. -1.
</event>
<event>
 8    1  0.6692409E-009  0.1104926E+03  0.7561462E-02  0.1259660E+00
         -2   -1    0    0    0  501 -0.00000000000E+00  0.00000000000E+00  0.33796345872E+02  0.33796345872E+02  0.00000000000E+00 0. -1.
          2   -1    0    0  501    0  0.00000000000E+00 -0.00000000000E+00 -0.57108829392E+03  0.57108829392E+03  0.00000000000E+00 0.  1.
         25    2    1    2    0    0  0.85675852461E+02  0.10753775397E+02 -0.27742056467E+03  0.31633099150E+03  0.12508849308E+03 0.  0.
         23    2    1    2    0    0 -0.85675852461E+02 -0.10753775397E+02 -0.25987138338E+03  0.28855364830E+03  0.90961951737E+02 0.  0.
          5    1    3    3  502    0  0.10964059322E+03  0.66732932730E+01 -0.26845083194E+03  0.29008432238E+03  0.41800000000E+01 0.  1.
         -5    1    3    3    0  502 -0.23964740763E+02  0.40804821241E+01 -0.89697327291E+01  0.26246669112E+02  0.41800000000E+01 0.  1.
        -11    1    4    4    0    0 -0.50236161201E+02 -0.48805966484E+01 -0.24419934618E+03  0.24936080845E+03  0.00000000000E+00 0.  1.
         11    1    4    4    0    0 -0.35439691260E+02 -0.58731787487E+01 -0.15672037204E+02  0.39192839848E+02  0.00000000000E+00 0. -1.
</event>
<event>
 8    1  0.6692409E-009  0.9611120E+02  0.7561462E-02  0.1288693E+00
         -2   -1    0    0    0  501 -0.00000000000E+00  0.00000000000E+00  0.56007036881E+02  0.56007036881E+02  0.00000000000E+00 0.  1.
          2   -1    0    0  501    0  0.00000000000E+00 -0.00000000000E+00 -0.33258365934E+03  0.33258365934E+03  0.00000000000E+00 0. -1.
         25    2    1    2    0    0  0.34388542479E+02  0.67148819133E+02 -0.98991933949E+02  0.17645310234E+03  0.12507900933E+03 0.  0.
         23    2    1    2    0    0 -0.34388542479E+02 -0.67148819133E+02 -0.17758468851E+03  0.21213759388E+03  0.88173132976E+02 0.  0.
          5    1    3    3  502    0 -0.55751638363E+01 -0.37253399725E+01  0.26043895268E+02  0.27216125559E+02  0.41800000000E+01 0. -1.
         -5    1    3    3    0  502  0.39963706315E+02  0.70874159105E+02 -0.12503582922E+03  0.14923697678E+03  0.41800000000E+01 0. -1.
        -11    1    4    4    0    0  0.17834612712E+02 -0.40426802919E+02 -0.30236102457E+02  0.53540841389E+02  0.00000000000E+00 0.  1.
         11    1    4    4    0    0 -0.52223155191E+02 -0.26722016213E+02 -0.14734858605E+03  0.15859675249E+03  0.00000000000E+00 0. -1.
</event>
<event>
 8    1  0.6692409E-009  0.1323354E+03  0.7561462E-02  0.1224031E+00
          2   -1    0    0  501    0  0.00000000000E+00  0.00000000000E+00  0.56871755590E+03  0.56871755590E+03  0.00000000000E+00 0. -1.
         -2   -1    0    0    0  501 -0.00000000000E+00 -0.00000000000E+00 -0.52934676790E+02  0.52934676790E+02  0.00000000000E+00 0.  1.
         25    2    1    2    0    0 -0.29111245015E+02 -0.88134348666E+02  0.44911349129E+03  0.47535842575E+03  0.12509027489E+03 0.  0.
         23    2    1    2    0    0  0.29111245015E+02  0.88134348666E+02  0.66669387823E+02  0.14629380694E+03  0.91334236055E+02 0.  0.
          5    1    3    3  502    0  0.93726339477E+01  0.18727849795E+02  0.13739502214E+02  0.25393403595E+02  0.41800000000E+01 0. -1.
         -5    1    3    3    0  502 -0.38483878963E+02 -0.10686219846E+03  0.43537398908E+03  0.44996502216E+03  0.41800000000E+01 0. -1.
        -11    1    4    4    0    0 -0.27758599322E+02  0.60213601804E+02  0.40868455488E+02  0.77887408049E+02  0.00000000000E+00 0. -1.
         11    1    4    4    0    0  0.56869844337E+02  0.27920746862E+02  0.25800932334E+02  0.68406398893E+02  0.00000000000E+00 0.  1.
</event>
<event>
 8    1  0.6692409E-009  0.9593440E+02  0.7561462E-02  0.1289085E+00
         -1   -1    0    0    0  501 -0.00000000000E+00  0.00000000000E+00  0.20102804678E+03  0.20102804678E+03  0.00000000000E+00 0.  1.
          1   -1    0    0  501    0  0.00000000000E+00 -0.00000000000E+00 -0.91239431177E+02  0.91239431177E+02  0.00000000000E+00 0. -1.
         25    2    1    2    0    0 -0.78508240747E+02 -0.56166220144E+01  0.77578806640E+02  0.16691622440E+03  0.12508982541E+03 0.  0.
         23    2    1    2    0    0  0.78508240747E+02  0.56166220144E+01  0.32209808963E+02  0.12535125355E+03  0.92088949750E+02 0.  0.
          5    1    3    3  502    0 -0.53565619274E+02  0.18215652158E+02  0.10717912058E+03  0.12126797533E+03  0.41800000000E+01 0. -1.
         -5    1    3    3    0  502 -0.24942621473E+02 -0.23832274173E+02 -0.29600313941E+02  0.45648249074E+02  0.41800000000E+01 0. -1.
        -11    1    4    4    0    0  0.28050471829E+02  0.32729680876E+02 -0.20298284331E+02  0.47645370466E+02  0.00000000000E+00 0. -1.
         11    1    4    4    0    0  0.50457768918E+02 -0.27113058862E+02  0.52508093295E+02  0.77705883088E+02  0.00000000000E+00 0.  1.
</event>
<event>
 8    1  0.6692409E-009  0.8471494E+02  0.7561462E-02  0.1316180E+00
         -4   -1    0    0    0  501 -0.00000000000E+00  0.00000000000E+00  0.53541142715E+03  0.53541142715E+03  0.00000000000E+00 0.  1.
          4   -1    0    0  501    0  0.00000000000E+00 -0.00000000000E+00 -0.23755017833E+02  0.23755017833E+02  0.00000000000E+00 0. -1.
         25    2    1    2    0    0  0.69537049758E+01  0.24780854197E+02  0.34014306862E+03  0.36332558078E+03  0.12508287561E+03 0.  0.
         23    2    1    2    0    0 -0.69537049758E+01 -0.24780854197E+02  0.17151334070E+03  0.19584086420E+03  0.90963582310E+02 0.  0.
          5    1    3    3  502    0  0.27970339719E+02 -0.29416233721E+02  0.38491159703E+02  0.56095423036E+02  0.41800000000E+01 0. -1.
         -5    1    3    3    0  502 -0.21016634743E+02  0.54197087918E+02  0.30165190892E+03  0.30723015775E+03  0.41800000000E+01 0. -1.
        -11    1    4    4    0    0  0.28894768312E+02 -0.47601890070E+01  0.12901002334E+02  0.32000045257E+02  0.00000000000E+00 0. -1.
         11    1    4    4    0    0 -0.35848473288E+02 -0.20020665190E+02  0.15861233836E+03  0.16384081894E+03  0.00000000000E+00 0.  1.
</event>
<event>
 8    1  0.6692409E-009  0.1349723E+03  0.7561462E-02  0.1220259E+00
         -1   -1    0    0    0  501 -0.00000000000E+00  0.00000000000E+00  0.20216069502E+02  0.20216069502E+02  0.00000000000E+00 0.  1.
          1   -1    0    0  501    0  0.00000000000E+00 -0.00000000000E+00 -0.12320397867E+04  0.12320397867E+04  0.00000000000E+00 0. -1.
         25    2    1    2    0    0  0.11333319960E+03  0.12280778606E+02 -0.68529268073E+03  0.70588301239E+03  0.12509811053E+03 0.  0.
         23    2    1    2    0    0 -0.11333319960E+03 -0.12280778606E+02 -0.52653103649E+03  0.54637284383E+03  0.91066571466E+02 0.  0.
          5    1    3    3  502    0  0.25661818613E+02  0.30178152086E+02 -0.48227093765E+02  0.62550577702E+02  0.41800000000E+01 0.  1.
         -5    1    3    3    0  502  0.87671380991E+02 -0.17897373480E+02 -0.63706558696E+03  0.64333243468E+03  0.41800000000E+01 0.  1.
        -11    1    4    4    0    0 -0.30477569281E+02  0.33974283387E+02 -0.10853830046E+03  0.11774420082E+03  0.00000000000E+00 0.  1.
         11    1    4    4    0    0 -0.82855630323E+02 -0.46255061994E+02 -0.41799273603E+03  0.42862864301E+03  0.00000000000E+00 0. -1.
</event>
<event>
 8    1  0.6692409E-009  0.8720152E+02  0.7561462E-02  0.1309774E+00
          2   -1    0    0  501    0  0.00000000000E+00  0.00000000000E+00  0.27540729896E+03  0.27540729896E+03  0.00000000000E+00 0. -1.
         -2   -1    0    0    0  501 -0.00000000000E+00 -0.00000000000E+00 -0.44399033858E+02  0.44399033858E+02  0.00000000000E+00 0.  1.
         25    2    1    2    0    0 -0.17286633321E+02  0.72456327401E+01  0.14641912212E+03  0.19345841180E+03  0.12504507542E+03 0.  0.
         23    2    1    2    0    0  0.17286633321E+02 -0.72456327401E+01  0.84589142979E+02  0.12634792102E+03  0.91962748715E+02 0.  0.
          5    1    3    3  502    0  0.30490426843E+02 -0.29854865383E+02  0.97923024636E+01  0.43981140317E+02  0.41800000000E+01 0.  1.
         -5    1    3    3    0  502 -0.47777060163E+02  0.37100498123E+02  0.13662681966E+03  0.14947727148E+03  0.41800000000E+01 0.  1.
        -11    1    4    4    0    0  0.43427524845E+02  0.11270977432E+01  0.69439044969E+01  0.43993614004E+02  0.00000000000E+00 0.  1.
         11    1    4    4    0    0 -0.26140891524E+02 -0.83727304833E+01  0.77645238482E+02  0.82354307018E+02  0.00000000000E+00 0. -1.
</event>
<event>
 8    1  0.6692409E-009  0.1126622E+03  0.7561462E-02  0.1255718E+00
          2   -1    0    0  501    0  0.00000000000E+00  0.00000000000E+00  0.30295912087E+02  0.30295912087E+02  0.00000000000E+00 0. -1.
         -2   -1    0    0    0  501 -0.00000000000E+00 -0.00000000000E+00 -0.64086127082E+03  0.64086127082E+03  0.00000000000E+00 0.  1.
         25    2    1    2    0    0 -0.20595137992E+02  0.74714819377E+02 -0.43334328126E+03  0.45764611807E+03  0.12508839284E+03 0.  0.
         23    2    1    2    0    0  0.20595137992E+02 -0.74714819377E+02 -0.17722207748E+03  0.21351106484E+03  0.90403794844E+02 0.  0.
          5    1    3    3  502    0  0.20018696875E+01  0.10722215216E+03 -0.31936816378E+03  0.33691852699E+03  0.41800000000E+01 0.  1.
         -5    1    3    3    0  502 -0.22597007679E+02 -0.32507332786E+02 -0.11397511748E+03  0.12072759107E+03  0.41800000000E+01 0.  1.
        -11    1    4    4    0    0  0.16655591356E+02 -0.41088313652E+02 -0.13529856172E+02  0.46354236595E+02  0.00000000000E+00 0. -1.
         11    1    4    4    0    0  0.39395466357E+01 -0.33626505725E+02 -0.16369222130E+03  0.16715682825E+03  0.00000000000E+00 0.  1.
</event>
<event>
 8    1  0.6692409E-009  0.1016829E+03  0.7561462E-02  0.1276796E+00
         -1   -1    0    0    0  501 -0.00000000000E+00  0.00000000000E+00  0.73344197197E+02  0.73344197197E+02  0.00000000000E+00 0.  1.
          1   -1    0    0  501    0  0.00000000000E+00 -0.00000000000E+00 -0.19703210509E+03  0.19703210509E+03  0.00000000000E+00 0. -1.
         25    2    1    2    0    0  0.15050077002E+02  0.43163710151E+02 -0.93690593534E+02  0.16283432272E+03  0.12508988228E+03 0.  0.
         23    2    1    2    0    0 -0.15050077002E+02 -0.43163710151E+02 -0.29997314360E+02  0.10754197957E+03  0.92605765526E+02 0.  0.
          5    1    3    3  502    0  0.34769337196E+02 -0.18056383680E+02  0.10086173191E+02  0.40671157966E+02  0.41800000000E+01 0.  1.
         -5    1    3    3    0  502 -0.19719260193E+02  0.61220093831E+02 -0.10377676672E+03  0.12216316476E+03  0.41800000000E+01 0.  1.
        -11    1    4    4    0    0  0.25950076463E+02 -0.51503904152E+02 -0.30037247283E+01  0.57750159944E+02  0.00000000000E+00 0.  1.
         11    1    4    4    0    0 -0.41000153465E+02  0.83401940014E+01 -0.26993589632E+02  0.49791819623E+02  0.00000000000E+00 0. -1.
</event>
<event>
 8    1  0.6692409E-009  0.8978411E+02  0.7561462E-02  0.1303375E+00
         -3   -1    0    0    0  501 -0.00000000000E+00  0.00000000000E+00  0.10398727946E+03  0.10398727946E+03  0.00000000000E+00 0.  1.
          3   -1    0    0  501    0  0.00000000000E+00 -0.00000000000E+00 -0.15236312977E+03  0.15236312977E+03  0.00000000000E+00 0. -1.
         25    2    1    2    0    0 -0.26807136162E+01 -0.50969909297E+02  0.11364539332E+02  0.13558062290E+03  0.12509130534E+03 0.  0.
         23    2    1    2    0    0  0.26807136162E+01  0.50969909297E+02 -0.59740389643E+02  0.12076978634E+03  0.91713190208E+02 0.  0.
          5    1    3    3  502    0  0.18562288777E+02  0.10204451588E+02 -0.44817270732E+02  0.49746854702E+02  0.41800000000E+01 0.  1.
         -5    1    3    3    0  502 -0.21243002393E+02 -0.61174360885E+02  0.56181810064E+02  0.85833768194E+02  0.41800000000E+01 0.  1.
        -11    1    4    4    0    0  0.32692719198E+02  0.53784592861E+02 -0.64650197519E+02  0.90228844374E+02  0.00000000000E+00 0. -1.
         11    1    4    4    0    0 -0.30012005582E+02 -0.28146835647E+01  0.49098078767E+01  0.30540941963E+02  0.00000000000E+00 0.  1.
</event>
<event>
 8    1  0.6692409E-009  0.1532026E+03  0.7561462E-02  0.1196592E+00
          2   -1    0    0  501    0  0.00000000000E+00  0.00000000000E+00  0.10834836398E+04  0.10834836398E+04  0.00000000000E+00 0.  1.
         -2   -1    0    0    0  501 -0.00000000000E+00 -0.00000000000E+00 -0.34002483552E+02  0.34002483552E+02  0.00000000000E+00 0. -1.
         25    2    1    2    0    0  0.10163032716E+03  0.10552272318E+03  0.38011731460E+03  0.42614432530E+03  0.12508415016E+03 0.  0.
         23    2    1    2    0    0 -0.10163032716E+03 -0.10552272318E+03  0.66936384164E+03  0.69134179804E+03  0.91879054852E+02 0.  0.
          5    1    3    3  502    0  0.85420867344E+02  0.76670411454E+02  0.37524932574E+03  0.39243420523E+03  0.41800000000E+01 0.  1.
         -5    1    3    3    0  502  0.16209459817E+02  0.28852311724E+02  0.48679888604E+01  0.33710120067E+02  0.41800000000E+01 0.  1.
        -11    1    4    4    0    0  0.62118448175E+01 -0.18811446679E+02  0.23110803087E+02  0.30439559154E+02  0.00000000000E+00 0. -1.
         11    1    4    4    0    0 -0.10784217198E+03 -0.86711276499E+02  0.64625303855E+03  0.66090223888E+03  0.00000000000E+00 0.  1.
</event>
<event>
 8    1  0.6692409E-009  0.1269622E+03  0.7561462E-02  0.1232034E+00
         -2   -1    0    0    0  501 -0.00000000000E+00  0.00000000000E+00  0.37624186248E+02  0.37624186248E+02  0.00000000000E+00 0.  1.
          2   -1    0    0  501    0  0.00000000000E+00 -0.00000000000E+00 -0.46158019768E+03  0.46158019768E+03  0.00000000000E+00 0. -1.
         25    2    1    2    0    0  0.68833496517E+02  0.22698507497E+02 -0.25842832296E+03  0.29611795516E+03  0.12508945910E+03 0.  0.
         23    2    1    2    0    0 -0.68833496517E+02 -0.22698507497E+02 -0.16552768848E+03  0.20308642877E+03  0.92689856035E+02 0.  0.
          5    1    3    3  502    0 -0.26411099971E+02 -0.20163038736E+02 -0.10698201278E+03  0.11210137283E+03  0.41800000000E+01 0. -1.
         -5    1    3    3    0  502  0.95244596488E+02  0.42861546233E+02 -0.15144631018E+03  0.18401658233E+03  0.41800000000E+01 0. -1.
        -11    1    4    4    0    0 -0.73548485036E+02  0.17361636940E+02 -0.90496862454E+02  0.11790033165E+03  0.00000000000E+00 0.  1.
         11    1    4    4    0    0  0.47149885198E+01 -0.40060144437E+02 -0.75030826024E+02  0.85186097122E+02  0.00000000000E+00 0. -1.
</event>
<event>
 8    1  0.6692409E-009  0.1380972E+03  0.7561462E-02  0.1215913E+00
          2   -1    0    0  501    0  0.00000000000E+00  0.00000000000E+00  0.14822098862E+03  0.14822098862E+03  0.00000000000E+00 0. -1.
         -2   -1    0    0    0  501 -0.00000000000E+00 -0.00000000000E+00 -0.17938538831E+03  0.17938538831E+03  0.00000000000E+00 0.  1.
         25    2    1    2    0    0  0.31173762851E+02  0.90352904385E+02 -0.90270368771E+02  0.18147080282E+03  0.12508981564E+03 0.  0.
         23    2    1    2    0    0 -0.31173762851E+02 -0.90352904385E+02  0.59105969084E+02  0.14613557411E+03  0.93416484723E+02 0.  0.
          5    1    3    3  502    0 -0.33086384282E+02  0.49777051620E+00 -0.56972200535E+02  0.66017123795E+02  0.41800000000E+01 0. -1.
         -5    1    3    3    0  502  0.64260147133E+02  0.89855133869E+02 -0.33298168236E+02  0.11545367902E+03  0.41800000000E+01 0. -1.
        -11    1    4    4    0    0 -0.46520434781E+02 -0.64107383760E+01  0.11210497521E+02  0.48279640361E+02  0.00000000000E+00 0. -1.
         11    1    4    4    0    0  0.15346671930E+02 -0.83942166009E+02  0.47895471563E+02  0.97855933749E+02  0.00000000000E+00 0.  1.
</event>
<event>
 8    1  0.6692409E-009  0.9898329E+02  0.7561462E-02  0.1282449E+00
         -1   -1    0    0    0  501 -0.00000000000E+00  0.00000000000E+00  0.12587769491E+03  0.12587769491E+03  0.00000000000E+00 0.  1.
          1   -1    0    0  501    0  0.00000000000E+00 -0.00000000000E+00 -0.11961968299E+03  0.11961968299E+03  0.00000000000E+00 0. -1.
         25    2    1    2    0    0  0.20410548499E+01  0.53293928414E+02 -0.25444486094E+02  0.13834975225E+03  0.12509525716E+03 0.  0.
         23    2    1    2    0    0 -0.20410548499E+01 -0.53293928414E+02  0.31702498018E+02  0.10714762565E+03  0.87356491408E+02 0.  0.
          5    1    3    3  502    0  0.57226216497E+02  0.18354557353E+02 -0.38658188406E+02  0.71579728702E+02  0.41800000000E+01 0. -1.
         -5    1    3    3    0  502 -0.55185161647E+02  0.34939371061E+02  0.13213702312E+02  0.66770023551E+02  0.41800000000E+01 0. -1.
        -11    1    4    4    0    0 -0.14578228721E+02  0.27584336079E+01  0.45684126852E+02  0.48033042324E+02  0.00000000000E+00 0.  1.
         11    1    4    4    0    0  0.12537173871E+02 -0.56052362022E+02 -0.13981628834E+02  0.59114583326E+02  0.00000000000E+00 0. -1.
</event>
<event>
 8    1  0.6692409E-009  0.9407831E+02  0.7561462E-02  0.1293266E+00
         -2   -1    0    0    0  501 -0.00000000000E+00  0.00000000000E+00  0.88099587775E+02  0.88099587775E+02  0.00000000000E+00 0.  1.
          2   -1    0    0  501    0  0.00000000000E+00 -0.00000000000E+00 -0.15865521434E+03  0.15865521434E+03  0.00000000000E+00 0. -1.
         25    2    1    2    0    0  0.41491104214E+02  0.14032524935E+02 -0.21930453191E+02  0.13433982566E+03  0.12509124868E+03 0.  0.
         23    2    1    2    0    0 -0.41491104214E+02 -0.14032524935E+02 -0.48625173374E+02  0.11241497645E+03  0.91401837841E+02 0.  0.
          5    1    3    3  502    0  0.41358982695E+02 -0.40398477357E+02  0.24251325984E+02  0.62834716792E+02  0.41800000000E+01 0. -1.
         -5    1    3    3    0  502  0.13212151858E+00  0.54431002291E+02 -0.46181779175E+02  0.71505108868E+02  0.41800000000E+01 0. -1.
        -11    1    4    4    0    0  0.63175049879E+01  0.17313814179E+02 -0.51977267385E+02  0.55148121958E+02  0.00000000000E+00 0. -1.
         11    1    4    4    0    0 -0.47808609202E+02 -0.31346339114E+02  0.33520940112E+01  0.57266854497E+02  0.00000000000E+00 0.  1.
</event>
<event>
 8    1  0.6692409E-009  0.1104801E+03  0.7561462E-02  0.1259683E+00
          1   -1    0    0  501    0  0.00000000000E+00  0.00000000000E+00  0.27334103953E+02  0.27334103953E+02  0.00000000000E+00 0.  1.
         -1   -1    0    0    0  501 -0.00000000000E+00 -0.00000000000E+00 -0.57573564379E+03  0.57573564379E+03  0.00000000000E+00 0. -1.
         25    2    1    2    0    0 -0.46534541570E+02  0.37562703702E+02 -0.36427784304E+03  0.38977457126E+03  0.12509775860E+03 0.  0.
         23    2    1    2    0    0  0.46534541570E+02 -0.37562703702E+02 -0.18412369680E+03  0.21329517648E+03  0.89537010882E+02 0.  0.
          5    1    3    3  502    0  0.24201577991E+02 -0.14180179013E+02 -0.20543091768E+02  0.35018350525E+02  0.41800000000E+01 0. -1.
         -5    1    3    3    0  502 -0.70736119561E+02  0.51742882715E+02 -0.34373475127E+03  0.35475622074E+03  0.41800000000E+01 0. -1.
        -11    1    4    4    0    0 -0.15423829309E+02 -0.39982645685E+02 -0.52286600372E+02  0.67604696915E+02  0.00000000000E+00 0. -1.
         11    1    4    4    0    0  0.61958370879E+02  0.24199419826E+01 -0.13183709643E+03  0.14569047956E+03  0.00000000000E+00 0.  1.
</event>
<event>
 8    1  0.6692409E-009  0.9022852E+02  0.7561462E-02  0.1302299E+00
         -2   -1    0    0    0  501 -0.00000000000E+00  0.00000000000E+00  0.88027659045E+02  0.88027659045E+02  0.00000000000E+00 0.  1.
          2   -1    0    0  501    0  0.00000000000E+00 -0.00000000000E+00 -0.14737213763E+03  0.14737213763E+03  0.00000000000E+00 0. -1.
         25    2    1    2    0    0 -0.78993606727E+01 -0.11956085850E+02 -0.30405374463E+00  0.12591233443E+03  0.12509386726E+03 0.  0.
         23    2    1    2    0    0  0.78993606727E+01  0.11956085850E+02 -0.59040424836E+02  0.10948746224E+03  0.91084492286E+02 0.  0.
          5    1    3    3  502    0 -0.11013434468E+02 -0.50862894612E+02 -0.43201164144E+02  0.67765350810E+02  0.41800000000E+01 0. -1.
         -5    1    3    3    0  502  0.31140737948E+01  0.38906808761E+02  0.42897110399E+02  0.58146983621E+02  0.41800000000E+01 0. -1.
        -11    1    4    4    0    0  0.39970708414E+02  0.31975374170E+02 -0.19484219143E+02  0.54769671170E+02  0.00000000000E+00 0. -1.
         11    1    4    4    0    0 -0.32071347741E+02 -0.20019288320E+02 -0.39556205693E+02  0.54717791070E+02  0.00000000000E+00 0.  1.
</event>
<event>
 8    1  0.6692409E-009  0.1423810E+03  0.7561462E-02  0.1210161E+00
         -1   -1    0    0    0  501 -0.00000000000E+00  0.00000000000E+00  0.41364311608E+03  0.41364311608E+03  0.00000000000E+00 0.  1.
          1   -1    0    0  501    0  0.00000000000E+00 -0.00000000000E+00 -0.83778355760E+02  0.83778355760E+02  0.00000000000E+00 0. -1.
         25    2    1    2    0    0  0.93049243442E+02 -0.17187905925E+02  0.16293672070E+02  0.15769113221E+03  0.12508966229E+03 0.  0.
         23    2    1    2    0    0 -0.93049243442E+02  0.17187905925E+02  0.31357108825E+03  0.33973033963E+03  0.90201388379E+02 0.  0.
          5    1    3    3  502    0 -0.23886277518E+02  0.20269728700E+02  0.14613420962E+02  0.34820118142E+02  0.41800000000E+01 0.  1.
         -5    1    3    3    0  502  0.11693552096E+03 -0.37457634624E+02  0.16802511083E+01  0.12287101407E+03  0.41800000000E+01 0.  1.
        -11    1    4    4    0    0  0.11081337898E+02  0.23493669045E+02  0.52100912616E+02  0.58217296658E+02  0.00000000000E+00 0.  1.
         11    1    4    4    0    0 -0.10413058134E+03 -0.63057631196E+01  0.26147017563E+03  0.28151304297E+03  0.00000000000E+00 0. -1.
</event>
<event>
 8    1  0.6692409E-009  0.9501697E+02  0.7561462E-02  0.1291138E+00
          1   -1    0    0  501    0  0.00000000000E+00  0.00000000000E+00  0.36433580944E+03  0.36433580944E+03  0.00000000000E+00 0. -1.
         -1   -1    0    0    0  501 -0.00000000000E+00 -0.00000000000E+00 -0.38367728339E+02  0.38367728339E+02  0.00000000000E+00 0.  1.
         25    2    1    2    0    0 -0.28995681674E+02 -0.14426175783E+02  0.12941941697E+03  0.18289994128E+03  0.12511650142E+03 0.  0.
         23    2    1    2    0    0  0.28995681674E+02  0.14426175783E+02  0.19654866414E+03  0.21980359650E+03  0.92915981179E+02 0.  0.
          5    1    3    3  502    0 -0.51989219804E+02 -0.36075231959E+02  0.13627974237E+03  0.15031281355E+03  0.41800000000E+01 0.  1.
         -5    1    3    3    0  502  0.22993538130E+02  0.21649056176E+02 -0.68603254010E+01  0.32587127730E+02  0.41800000000E+01 0.  1.
        -11    1    4    4    0    0 -0.28757905112E+02  0.22407751038E+02  0.48391634951E+02  0.60587744192E+02  0.00000000000E+00 0.  1.
         11    1    4    4    0    0  0.57753586786E+02 -0.79815752545E+01  0.14815702918E+03  0.15921585231E+03  0.00000000000E+00 0. -1.
</event>
<event>
 8    1  0.6692409E-009  0.1341196E+03  0.7561462E-02  0.1221468E+00
         -1   -1    0    0    0  501 -0.00000000000E+00  0.00000000000E+00  0.17811435256E+03  0.17811435256E+03  0.00000000000E+00 0.  1.
          1   -1    0    0  501    0  0.00000000000E+00 -0.00000000000E+00 -0.17016777407E+03  0.17016777407E+03  0.00000000000E+00 0. -1.
         25    2    1    2    0    0 -0.40493243338E+02  0.11248247378E+03 -0.58426444457E+02  0.18264519170E+03  0.12511437558E+03 0.  0.
         23    2    1    2    0    0  0.40493243338E+02 -0.11248247378E+03  0.66373022951E+02  0.16563693493E+03  0.93478373824E+02 0.  0.
          5    1    3    3  502    0 -0.20780978966E+02  0.10261531260E+03 -0.93881374670E+02  0.14068737106E+03  0.41800000000E+01 0.  1.
         -5    1    3    3    0  502 -0.19712264372E+02  0.98671611785E+01  0.35454930213E+02  0.41957820639E+02  0.41800000000E+01 0.  1.
        -11    1    4    4    0    0  0.59572534805E+02 -0.57395271963E+02  0.68347891691E+02  0.10730581739E+03  0.00000000000E+00 0. -1.
         11    1    4    4    0    0 -0.19079291467E+02 -0.55087201815E+02 -0.19748687403E+01  0.58331117538E+02  0.00000000000E+00 0.  1.
</event>
<event>
 8    1  0.6692409E-009  0.1852544E+03  0.7561462E-02  0.1162813E+00
         -1   -1    0    0    0  501 -0.00000000000E+00  0.00000000000E+00  0.16326501879E+03  0.16326501879E+03  0.00000000000E+00 0.  1.
          1   -1    0    0  501    0  0.00000000000E+00 -0.00000000000E+00 -0.44064091183E+03  0.44064091183E+03  0.00000000000E+00 0. -1.
         25    2    1    2    0    0  0.15918864203E+03 -0.91525832974E+02  0.40110275104E+02  0.22577518277E+03  0.12509035587E+03 0.  0.
         23    2    1    2    0    0 -0.15918864203E+03  0.91525832974E+02 -0.31748616814E+03  0.37813074786E+03  0.92018441971E+02 0.  0.
          5    1    3    3  502    0  0.89033502318E+02 -0.70143024365E+02 -0.36971142391E+02  0.11929520599E+03  0.41800000000E+01 0.  1.
         -5    1    3    3    0  502  0.70155139711E+02 -0.21382808609E+02  0.77081417495E+02  0.10647997678E+03  0.41800000000E+01 0.  1.
        -11    1    4    4    0    0 -0.55510753630E+02  0.32399111110E+02 -0.39086333438E+02  0.75225578302E+02  0.00000000000E+00 0.  1.
         11    1    4    4    0    0 -0.10367788840E+03  0.59126721863E+02 -0.27839983470E+03  0.30290516955E+03  0.00000000000E+00 0. -1.
</event>
<event>
 8    1  0.6692409E-009  0.9850743E+02  0.7561462E-02  0.1283466E+00
         -3   -1    0    0    0  501 -0.00000000000E+00  0.00000000000E+00  0.13613407683E+03  0.13613407683E+03  0.00000000000E+00 0.  1.
          3   -1    0    0  501    0  0.00000000000E+00 -0.00000000000E+00 -0.11753987569E+03  0.11753987569E+03  0.00000000000E+00 0. -1.
         25    2    1    2    0    0 -0.77815796015E+01 -0.29205880175E+02  0.62662007828E+02  0.14312728548E+03  0.12508139832E+03 0.  0.
         23    2    1    2    0    0  0.77815796015E+01  0.29205880175E+02 -0.44067806686E+02  0.11054666704E+03  0.96773227645E+02 0.  0.
          5    1    3    3  502    0 -0.34389240430E+02  0.35480081408E+02  0.70208155029E+00  0.49592553398E+02  0.41800000000E+01 0. -1.
         -5    1    3    3    0  502  0.26607660829E+02 -0.64685961583E+02  0.61959926278E+02  0.93534732079E+02  0.41800000000E+01 0. -1.
        -11    1    4    4    0    0 -0.95036042877E+01  0.49669799115E+02  0.87521078519E+01  0.51322576226E+02  0.00000000000E+00 0. -1.
         11    1    4    4    0    0  0.17285183889E+02 -0.20463918940E+02 -0.52819914538E+02  0.59224090810E+02  0.00000000000E+00 0.  1.
</event>
<event>
 8    1  0.6692409E-009  0.1418042E+03  0.7561462E-02  0.1210922E+00
          3   -1    0    0  501    0  0.00000000000E+00  0.00000000000E+00  0.36788356316E+02  0.36788356316E+02  0.00000000000E+00 0. -1.
         -3   -1    0    0    0  501 -0.00000000000E+00 -0.00000000000E+00 -0.69928219341E+03  0.69928219341E+03  0.00000000000E+00 0.  1.
         25    2    1    2    0    0  0.18482815849E+02 -0.10391045968E+03 -0.47527017531E+03  0.50266049082E+03  0.12508729506E+03 0.  0.
         23    2    1    2    0    0 -0.18482815849E+02  0.10391045968E+03 -0.18722366179E+03  0.23341005890E+03  0.91041517736E+02 0.  0.
          5    1    3    3  502    0 -0.39421677605E+02 -0.71478937916E+02 -0.36373568492E+03  0.37280615354E+03  0.41800000000E+01 0.  1.
         -5    1    3    3    0  502  0.57904493454E+02 -0.32431521764E+02 -0.11153449038E+03  0.12985433728E+03  0.41800000000E+01 0.  1.
        -11    1    4    4    0    0  0.21826024064E+01 -0.14757911751E+02 -0.42926000051E+02  0.45444484735E+02  0.00000000000E+00 0.  1.
         11    1    4    4    0    0 -0.20665418256E+02  0.11866837143E+03 -0.14429766173E+03  0.18796557417E+03  0.00000000000E+00 0. -1.
</event>
<event>
 8    1  0.6692409E-009  0.7359794E+02  0.7561462E-02  0.1348269E+00
         -1   -1    0    0    0  501 -0.00000000000E+00  0.00000000000E+00  0.27033174194E+02  0.27033174194E+02  0.00000000000E+00 0.  1.
          1   -1    0    0  501    0  0.00000000000E+00 -0.00000000000E+00 -0.44326478398E+03  0.44326478398E+03  0.00000000000E+00 0. -1.
         25    2    1    2    0    0 -0.36164555070E+01 -0.12498129807E+02 -0.22350842055E+03  0.25645772538E+03  0.12508104912E+03 0.  0.
         23    2    1    2    0    0  0.36164555070E+01  0.12498129807E+02 -0.19272318923E+03  0.21384023279E+03  0.91739498002E+02 0.  0.
          5    1    3    3  502    0  0.22596731838E+02  0.30670572328E+02 -0.19413878308E+03  0.19788541076E+03  0.41800000000E+01 0.  1.
         -5    1    3    3    0  502 -0.26213187345E+02 -0.43168702134E+02 -0.29369637478E+02  0.58572314623E+02  0.41800000000E+01 0.  1.
        -11    1    4    4    0    0  0.11628447545E+02  0.33635922929E+02 -0.18722283131E+03  0.19057540415E+03  0.00000000000E+00 0. -1.
         11    1    4    4    0    0 -0.80119920375E+01 -0.21137793122E+02 -0.55003579243E+01  0.23264828643E+02  0.00000000000E+00 0.  1.
</event>
<event>
 8    1  0.6692409E-009  0.1004114E+03  0.7561462E-02  0.1279433E+00
          1   -1    0    0  501    0  0.00000000000E+00  0.00000000000E+00  0.51147651948E+02  0.51147651948E+02  0.00000000000E+00 0. -1.
         -1   -1    0    0    0  501 -0.00000000000E+00 -0.00000000000E+00 -0.28860035162E+03  0.28860035162E+03  0.00000000000E+00 0.  1.
         25    2    1    2    0    0 -0.39837823308E+02 -0.31113456267E+02 -0.15789931860E+03  0.20768863757E+03  0.12508907241E+03 0.  0.
         23    2    1    2    0    0  0.39837823308E+02  0.31113456267E+02 -0.79553381068E+02  0.13205936599E+03  0.92497764188E+02 0.  0.
          5    1    3    3  502    0  0.68587791926E+01 -0.71721790814E+02 -0.74162311434E+02  0.10348226402E+03  0.41800000000E+01 0.  1.
         -5    1    3    3    0  502 -0.46696602501E+02  0.40608334547E+02 -0.83737007168E+02  0.10420637355E+03  0.41800000000E+01 0.  1.
        -11    1    4    4    0    0  0.24352128371E+02  0.41404122744E+02 -0.95928861724E+02  0.10728314895E+03  0.00000000000E+00 0.  1.
         11    1    4    4    0    0  0.15485694938E+02 -0.10290666478E+02  0.16375480656E+02  0.24776217044E+02  0.00000000000E+00 0. -1.
</event>
<event>
 8    1  0.6692409E-009  0.2143422E+03  0.7561462E-02  0.1138173E+00
         -1   -1    0    0    0  501 -0.00000000000E+00  0.00000000000E+00  0.24610606565E+02  0.24610606565E+02  0.00000000000E+00 0.  1.
          1   -1    0    0  501    0  0.00000000000E+00 -0.00000000000E+00 -0.19876169188E+04  0.19876169188E+04  0.00000000000E+00 0. -1.
         25    2    1    2    0    0  0.18720525744E+03 -0.44215485827E+02 -0.10719351077E+04  0.10962176040E+04  0.12508933806E+03 0.  0.
         23    2    1    2    0    0 -0.18720525744E+03  0.44215485827E+02 -0.89107120454E+03  0.91600992142E+03  0.89807944962E+02 0.  0.
          5    1    3    3  502    0  0.51829603161E+02  0.32386396810E+02 -0.16445365066E+03  0.17549262685E+03  0.41800000000E+01 0.  1.
         -5    1    3    3    0  502  0.13537565427E+03 -0.76601882637E+02 -0.90748145707E+03  0.92072497714E+03  0.41800000000E+01 0.  1.
        -11    1    4    4    0    0 -0.44294659109E+02  0.52480007355E+02 -0.26121834141E+03  0.27009477945E+03  0.00000000000E+00 0.  1.
         11    1    4    4    0    0 -0.14291059833E+03 -0.82645215282E+01 -0.62985286313E+03  0.64591514197E+03  0.00000000000E+00 0. -1.
</event>
<event>
 8    1  0.6692409E-009  0.1037063E+03  0.7561462E-02  0.1272690E+00
         -1   -1    0    0    0  501 -0.00000000000E+00  0.00000000000E+00  0.36247851326E+02  0.36247851326E+02  0.00000000000E+00 0.  1.
          1   -1    0    0  501    0  0.00000000000E+00 -0.00000000000E+00 -0.36369671721E+03  0.36369671721E+03  0.00000000000E+00 0. -1.
         25    2    1    2    0    0 -0.29213528607E+02  0.19991788371E+02 -0.16229060754E+03  0.20793942201E+03  0.12508980804E+03 0.  0.
         23    2    1    2    0    0  0.29213528607E+02 -0.19991788371E+02 -0.16515825834E+03  0.19200514652E+03  0.91299639299E+02 0.  0.
          5    1    3    3  502    0  0.38045234521E+02  0.18240166160E+02 -0.13344629070E+02  0.44448791393E+02  0.41800000000E+01 0. -1.
         -5    1    3    3    0  502 -0.67258763128E+02  0.17516222111E+01 -0.14894597847E+03  0.16349063062E+03  0.41800000000E+01 0. -1.
        -11    1    4    4    0    0 -0.32849105551E+02 -0.12251948978E+02 -0.66909568972E+02  0.75538496207E+02  0.00000000000E+00 0.  1.
         11    1    4    4    0    0  0.62062634158E+02 -0.77398393930E+01 -0.98248689367E+02  0.11646665031E+03  0.00000000000E+00 0. -1.
</event>
<event>
 8    1  0.6692409E-009  0.1141663E+03  0.7561462E-02  0.1253043E+00
          2   -1    0    0  501    0  0.00000000000E+00  0.00000000000E+00  0.22837066965E+03  0.22837066965E+03  0.00000000000E+00 0. -1.
         -2   -1    0    0    0  501 -0.00000000000E+00 -0.00000000000E+00 -0.83475656443E+02  0.83475656443E+02  0.00000000000E+00 0.  1.
         25    2    1    2    0    0  0.55160140926E+02  0.64380215357E+02  0.65727933374E+02  0.16478784987E+03  0.12508965170E+03 0.  0.
         23    2    1    2    0    0 -0.55160140926E+02 -0.64380215357E+02  0.79167079829E+02  0.14705847622E+03  0.90395329647E+02 0.  0.
          5    1    3    3  502    0 -0.17857691748E+02  0.12153232597E+02  0.71424926861E+02  0.74736810169E+02  0.41800000000E+01 0.  1.
         -5    1    3    3    0  502  0.73017832674E+02  0.52226982760E+02 -0.56969934880E+01  0.90051039702E+02  0.41800000000E+01 0.  1.
        -11    1    4    4    0    0 -0.29400839773E+01  0.18373793592E+02 -0.35324747405E+01  0.18939872295E+02  0.00000000000E+00 0.  1.
         11    1    4    4    0    0 -0.52220056949E+02 -0.82754008949E+02  0.82699554569E+02  0.12811860392E+03  0.00000000000E+00 0. -1.
</event>
<event>
 8    1  0.6692409E-009  0.1460122E+03  0.7561462E-02  0.1205461E+00
          1   -1    0    0  501    0  0.00000000000E+00  0.00000000000E+00  0.20143674882E+03  0.20143674882E+03  0.00000000000E+00 0. -1.
         -1   -1    0    0    0  501 -0.00000000000E+00 -0.00000000000E+00 -0.22825108666E+03  0.22825108666E+03  0.00000000000E+00 0.  1.
         25    2    1    2    0    0  0.16330808254E+02 -0.11244766435E+03  0.13123508415E+03  0.21396588558E+03  0.12509028886E+03 0.  0.
         23    2    1    2    0    0 -0.16330808254E+02  0.11244766435E+03 -0.15804942200E+03  0.21572194989E+03  0.92979392112E+02 0.  0.
          5    1    3    3  502    0  0.14120229264E+01 -0.13855613668E+03  0.10687718866E+03  0.17504285955E+03  0.41800000000E+01 0.  1.
         -5    1    3    3    0  502  0.14918785328E+02  0.26108472337E+02  0.24357895486E+02  0.38923026037E+02  0.41800000000E+01 0.  1.
        -11    1    4    4    0    0 -0.32122218380E+02  0.57469118324E+02 -0.14167129272E+03  0.15622193078E+03  0.00000000000E+00 0.  1.
         11    1    4    4    0    0  0.15791410126E+02  0.54978546022E+02 -0.16378129278E+02  0.59500019119E+02  0.00000000000E+00 0. -1.
</event>
<event>
 8    1  0.6692409E-009  0.1279683E+03  0.7561462E-02  0.1230502E+00
          4   -1    0    0  501    0  0.00000000000E+00  0.00000000000E+00  0.35444064382E+02  0.35444064382E+02  0.00000000000E+00 0. -1.
         -4   -1    0    0    0  501 -0.00000000000E+00 -0.00000000000E+00 -0.50458647724E+03  0.50458647724E+03  0.00000000000E+00 0.  1.
         25    2    1    2    0    0  0.80815261127E+02  0.59650497182E+01 -0.25302080766E+03  0.29365452377E+03  0.12508701760E+03 0.  0.
         23    2    1    2    0    0 -0.80815261127E+02 -0.59650497182E+01 -0.21612160520E+03  0.24637601785E+03  0.86173694887E+02 0.  0.
          5    1    3    3  502    0 -0.14104434918E+02 -0.39665424794E+02 -0.55666679133E+02  0.69918041835E+02  0.41800000000E+01 0. -1.
         -5    1    3    3    0  502  0.94919696045E+02  0.45630474512E+02 -0.19735412853E+03  0.22373648193E+03  0.41800000000E+01 0. -1.
        -11    1    4    4    0    0 -0.90580557443E+02 -0.18388435308E+02 -0.20998048778E+03  0.22942270417E+03  0.00000000000E+00 0.  1.
         11    1    4    4    0    0  0.97652963164E+01  0.12423385590E+02 -0.61411174150E+01  0.16953313681E+02  0.00000000000E+00 0. -1.
</event>
<event>
 8    1  0.6692409E-009  0.8371583E+02  0.7561462E-02  0.1318825E+00
          2   -1    0    0  501    0  0.00000000000E+00  0.00000000000E+00  0.25996491978E+03  0.25996491978E+03  0.00000000000E+00 0.  1.
         -2   -1    0    0    0  501 -0.00000000000E+00 -0.00000000000E+00 -0.44673183214E+02  0.44673183214E+02  0.00000000000E+00 0. -1.
         25    2    1    2    0    0  0.84687258886E+01 -0.15516677085E+01  0.11688036496E+03  0.17141885303E+03  0.12509706819E+03 0.  0.
         23    2    1    2    0    0 -0.84687258886E+01  0.15516677085E+01  0.98411371602E+02  0.13321924996E+03  0.89378093001E+02 0.  0.
          5    1    3    3  502    0 -0.46976529845E+02  0.29465826436E+02  0.81249296154E+02  0.98457858038E+02  0.41800000000E+01 0.  1.
         -5    1    3    3    0  502  0.55445255734E+02 -0.31017494145E+02  0.35631068810E+02  0.72960994997E+02  0.41800000000E+01 0.  1.
        -11    1    4    4    0    0  0.12239388475E+02 -0.16593656358E+02  0.10322864256E+03  0.10526777620E+03  0.00000000000E+00 0.  1.
         11    1    4    4    0    0 -0.20708114364E+02  0.18145324066E+02 -0.48172709554E+01  0.27951473761E+02  0.00000000000E+00 0. -1.
</event>
<event>
 8    1  0.6692409E-009  0.9877374E+02  0.7561462E-02  0.1282896E+00
          2   -1    0    0  501    0  0.00000000000E+00  0.00000000000E+00  0.48508870268E+02  0.48508870268E+02  0.00000000000E+00 0. -1.
         -2   -1    0    0    0  501 -0.00000000000E+00 -0.00000000000E+00 -0.26957834323E+03  0.26957834323E+03  0.00000000000E+00 0.  1.
         25    2    1    2    0    0 -0.23287382815E+02 -0.18545182990E+02 -0.17253478026E+03  0.21517968145E+03  0.12509124229E+03 0.  0.
         23    2    1    2    0    0  0.23287382815E+02  0.18545182990E+02 -0.48534692694E+02  0.10290753204E+03  0.85721162765E+02 0.  0.
          5    1    3    3  502    0  0.40373394695E+02  0.27770734218E+02 -0.56636380748E+02  0.75009177455E+02  0.41800000000E+01 0. -1.
         -5    1    3    3    0  502 -0.63660777511E+02 -0.46315917208E+02 -0.11589839952E+03  0.14017050400E+03  0.41800000000E+01 0. -1.
        -11    1    4    4    0    0  0.40902652904E+02  0.27970266281E+02 -0.61584860093E+02  0.79044657018E+02  0.00000000000E+00 0.  1.
         11    1    4    4    0    0 -0.17615270089E+02 -0.94250832905E+01  0.13050167399E+02  0.23862875025E+02  0.00000000000E+00 0. -1.
</event>
<event>
 8    1  0.6692409E-009  0.1829865E+03  0.7561462E-02  0.1164944E+00
         -1   -1    0    0    0  501 -0.00000000000E+00  0.00000000000E+00  0.92974161099E+03  0.92974161099E+03  0.00000000000E+00 0.  1.
          1   -1    0    0  501    0  0.00000000000E+00 -0.00000000000E+00 -0.53703400788E+02  0.53703400788E+02  0.00000000000E+00 0. -1.
         25    2    1    2    0    0  0.17073324503E+03  0.50775260195E+02  0.62644650146E+03  0.66318195697E+03  0.12508845212E+03 0.  0.
         23    2    1    2    0    0 -0.17073324503E+03 -0.50775260195E+02  0.24959170874E+03  0.32026305481E+03  0.92436114140E+02 0.  0.
          5    1    3    3  502    0  0.12731909771E+03  0.23805089310E+02  0.23476954446E+03  0.26816235068E+03  0.41800000000E+01 0. -1.
         -5    1    3    3    0  502  0.43414147318E+02  0.26970170885E+02  0.39167695700E+03  0.39501960629E+03  0.41800000000E+01 0. -1.
        -11    1    4    4    0    0 -0.80868168293E+02 -0.50297121264E+02  0.66034684711E+02  0.11588805217E+03  0.00000000000E+00 0.  1.
         11    1    4    4    0    0 -0.89865076733E+02 -0.47813893155E+00  0.18355702403E+03  0.20437500264E+03  0.00000000000E+00 0. -1.
</event>
<event>
 8    1  0.6692409E-009  0.1191988E+03  0.7561462E-02  0.1244425E+00
         -1   -1    0    0    0  501 -0.00000000000E+00  0.00000000000E+00  0.19048859829E+02  0.19048859829E+02  0.00000000000E+00 0.  1.
          1   -1    0    0  501    0  0.00000000000E+00 -0.00000000000E+00 -0.90209195423E+03  0.90209195423E+03  0.00000000000E+00 0. -1.
         25    2    1    2    0    0 -0.10464014492E+02 -0.66969533763E+02 -0.57426540194E+03  0.59162918506E+03  0.12509966705E+03 0.  0.
         23    2    1    2    0    0  0.10464014492E+02  0.66969533763E+02 -0.30877769246E+03  0.32951162900E+03  0.92950719383E+02 0.  0.
          5    1    3    3  502    0 -0.56871298111E+02 -0.36929638139E+02 -0.16223471027E+03  0.17588552055E+03  0.41800000000E+01 0.  1.
         -5    1    3    3    0  502  0.46407283620E+02 -0.30039895624E+02 -0.41203069168E+03  0.41574366452E+03  0.41800000000E+01 0.  1.
        -11    1    4    4    0    0  0.51974397887E+02  0.38635947323E+02 -0.17078945644E+03  0.18265572231E+03  0.00000000000E+00 0.  1.
         11    1    4    4    0    0 -0.41510383395E+02  0.28333586440E+02 -0.13798823602E+03  0.14685590669E+03  0.00000000000E+00 0. -1.
</event>
<event>
 8    1  0.6692409E-009  0.1079187E+03  0.7561462E-02  0.1264473E+00
         -1   -1    0    0    0  501 -0.00000000000E+00  0.00000000000E+00  0.13266681714E+03  0.13266681714E+03  0.00000000000E+00 0.  1.
          1   -1    0    0  501    0  0.00000000000E+00 -0.00000000000E+00 -0.15979389067E+03  0.15979389067E+03  0.00000000000E+00 0. -1.
         25    2    1    2    0    0 -0.15641692954E+02  0.26693939776E+02 -0.10634904744E+03  0.16707595857E+03  0.12508807721E+03 0.  0.
         23    2    1    2    0    0  0.15641692954E+02 -0.26693939776E+02  0.79221973911E+02  0.12538474924E+03  0.92130262193E+02 0.  0.
          5    1    3    3  502    0 -0.61109695339E+02  0.39042019175E+02 -0.92851470888E+02  0.11788783725E+03  0.41800000000E+01 0.  1.
         -5    1    3    3    0  502  0.45468002385E+02 -0.12348079400E+02 -0.13497576555E+02  0.49188121316E+02  0.41800000000E+01 0.  1.
        -11    1    4    4    0    0  0.53482945352E+02 -0.21754549987E+02  0.37526844023E+02  0.68861817512E+02  0.00000000000E+00 0.  1.
         11    1    4    4    0    0 -0.37841252398E+02 -0.49393897890E+01  0.41695129888E+02  0.56522931726E+02  0.00000000000E+00 0. -1.
</event>
<event>
 8    1  0.6692409E-009  0.9550418E+02  0.7561462E-02  0.1290045E+00
          1   -1    0    0  501    0  0.00000000000E+00  0.00000000000E+00  0.11140437008E+03  0.11140437008E+03  0.00000000000E+00 0. -1.
         -1   -1    0    0    0  501 -0.00000000000E+00 -0.00000000000E+00 -0.14320554936E+03  0.14320554936E+03  0.00000000000E+00 0.  1.
         25    2    1    2    0    0  0.16218438232E+02 -0.61911095907E+02 -0.24224892816E+02  0.14258459422E+03  0.12508996579E+03 0.  0.
         23    2    1    2    0    0 -0.16218438232E+02  0.61911095907E+02 -0.75762864603E+01  0.11202532523E+03  0.91631063732E+02 0.  0.
          5    1    3    3  502    0  0.25043855196E+02 -0.68579892270E+02  0.35788879325E+02  0.81416906047E+02  0.41800000000E+01 0.  1.
         -5    1    3    3    0  502 -0.88254169635E+01  0.66687963632E+01 -0.60013772141E+02  0.61167688170E+02  0.41800000000E+01 0.  1.
        -11    1    4    4    0    0  0.22146351237E+01  0.80116029026E+02 -0.20992285926E+02  0.82850218974E+02  0.00000000000E+00 0.  1.
         11    1    4    4    0    0 -0.18433073356E+02 -0.18204933119E+02  0.13415999466E+02  0.29175106253E+02  0.00000000000E+00 0. -1.
</event>
<event>
 8    1  0.6692409E-009  0.1723136E+03  0.7561462E-02  0.1175456E+00
          3   -1    0    0  501    0  0.00000000000E+00  0.00000000000E+00  0.10669862518E+03  0.10669862518E+03  0.00000000000E+00 0. -1.
         -3   -1    0    0    0  501 -0.00000000000E+00 -0.00000000000E+00 -0.29305190120E+03  0.29305190120E+03  0.00000000000E+00 0.  1.
         25    2    1    2    0    0 -0.13233407105E+03  0.32526177656E+02 -0.64520174637E+02  0.19591076382E+03  0.12509162982E+03 0.  0.
         23    2    1    2    0    0  0.13233407105E+03 -0.32526177656E+02 -0.12183310139E+03  0.20383976257E+03  0.90205795909E+02 0.  0.
          5    1    3    3  502    0 -0.13074641523E+03  0.66762558841E+02 -0.36214759025E+02  0.15126415812E+03  0.41800000000E+01 0.  1.
         -5    1    3    3    0  502 -0.15876558151E+01 -0.34236381185E+02 -0.28305415612E+02  0.44646605701E+02  0.41800000000E+01 0.  1.
        -11    1    4    4    0    0  0.12093654238E+03  0.79375573992E+01 -0.94673533282E+02  0.15379118962E+03  0.00000000000E+00 0.  1.
         11    1    4    4    0    0  0.11397528671E+02 -0.40463735055E+02 -0.27159568106E+02  0.50048572948E+02  0.00000000000E+00 0. -1.
</event>
<event>
 8    1  0.6692409E-009  0.2960908E+03  0.7561462E-02  0.1087211E+00
          2   -1    0    0  501    0  0.00000000000E+00  0.00000000000E+00  0.46163900626E+03  0.46163900626E+03  0.00000000000E+00 0.  1.
         -2   -1    0    0    0  501 -0.00000000000E+00 -0.00000000000E+00 -0.23341028481E+03  0.23341028481E+03  0.00000000000E+00 0. -1.
         25    2    1    2    0    0 -0.13643830234E+03 -0.24596619668E+03  0.25253918832E+03  0.39816893105E+03  0.12509067016E+03 0.  0.
         23    2    1    2    0    0  0.13643830234E+03  0.24596619668E+03 -0.24310466859E+02  0.29688036002E+03  0.91826843098E+02 0.  0.
          5    1    3    3  502    0 -0.87674128173E+02 -0.40617000898E+02  0.81353320363E+02  0.12638167845E+03  0.41800000000E+01 0.  1.
         -5    1    3    3    0  502 -0.48764174170E+02 -0.20534919578E+03  0.17118586795E+03  0.27178725260E+03  0.41800000000E+01 0.  1.
        -11    1    4    4    0    0  0.25354383647E+02  0.19037451266E+02  0.23847444541E+02  0.39673289906E+02  0.00000000000E+00 0.  1.
         11    1    4    4    0    0  0.11108391870E+03  0.22692874541E+03 -0.48157911400E+02  0.25720707012E+03  0.00000000000E+00 0. -1.
</event>
<event>
 8    1  0.6692409E-009  0.1505765E+03  0.7561462E-02  0.1199766E+00
          1   -1    0    0  501    0  0.00000000000E+00  0.00000000000E+00  0.66869847125E+02  0.66869847125E+02  0.00000000000E+00 0. -1.
         -1   -1    0    0    0  501 -0.00000000000E+00 -0.00000000000E+00 -0.40268633574E+03  0.40268633574E+03  0.00000000000E+00 0.  1.
         25    2    1    2    0    0  0.12219605375E+03  0.61612354443E+01 -0.16324828897E+03  0.23930826710E+03  0.12509439027E+03 0.  0.
         23    2    1    2    0    0 -0.12219605375E+03 -0.61612354443E+01 -0.17256819964E+03  0.23024791576E+03  0.90909200898E+02 0.  0.
          5    1    3    3  502    0  0.12988552035E+03 -0.27299154778E+02 -0.15432285143E+03  0.20358906434E+03  0.41800000000E+01 0.  1.
         -5    1    3    3    0  502 -0.76894665955E+01  0.33460390222E+02 -0.89254375398E+01  0.35719202757E+02  0.41800000000E+01 0.  1.
        -11    1    4    4    0    0 -0.63509266390E+02 -0.30242706905E+02 -0.14483890820E+03  0.16101663755E+03  0.00000000000E+00 0.  1.
         11    1    4    4    0    0 -0.58686787364E+02  0.24081471460E+02 -0.27729291442E+02  0.69231278211E+02  0.00000000000E+00 0. -1.
</event>
<event>
 8    1  0.6692409E-009  0.1700841E+03  0.7561462E-02  0.1177760E+00
          1   -1    0    0  501    0  0.00000000000E+00  0.00000000000E+00  0.38721815828E+02  0.38721815828E+02  0.00000000000E+00 0. -1.
         -1   -1    0    0    0  501 -0.00000000000E+00 -0.00000000000E+00 -0.83631639383E+03  0.83631639383E+03  0.00000000000E+00 0.  1.
         25    2    1    2    0    0 -0.11724068358E+03  0.63107581502E+02 -0.29466025471E+03  0.34669792798E+03  0.12508734081E+03 0.  0.
         23    2    1    2    0    0  0.11724068358E+03 -0.63107581502E+02 -0.50293432329E+03  0.52834028168E+03  0.92046591283E+02 0.  0.
          5    1    3    3  502    0 -0.10145033706E+03  0.99395690994E+02 -0.21600050072E+03  0.25854470211E+03  0.41800000000E+01 0. -1.
         -5    1    3    3    0  502 -0.15790346517E+02 -0.36288109492E+02 -0.78659753987E+02  0.88153225868E+02  0.41800000000E+01 0. -1.
        -11    1    4    4    0    0 -0.59267159596E+00 -0.37748937741E+02 -0.78225719374E+02  0.86859638105E+02  0.00000000000E+00 0. -1.
         11    1    4    4    0    0  0.11783335518E+03 -0.25358643761E+02 -0.42470860392E+03  0.44148064357E+03  0.00000000000E+00 0.  1.
</event>
<event>
 8    1  0.6692409E-009  0.1190546E+03  0.7561462E-02  0.1244665E+00
          2   -1    0    0  501    0  0.00000000000E+00  0.00000000000E+00  0.59693305217E+02  0.59693305217E+02  0.00000000000E+00 0.  1.
         -2   -1    0    0    0  501 -0.00000000000E+00 -0.00000000000E+00 -0.32171843439E+03  0.32171843439E+03  0.00000000000E+00 0. -1.
         25    2    1    2    0    0 -0.72030888774E+01  0.52740447323E+02 -0.22518350559E+03  0.26303653003E+03  0.12508863124E+03 0.  0.
         23    2    1    2    0    0  0.72030888774E+01 -0.52740447323E+02 -0.36841623584E+02  0.11837520958E+03  0.99105730115E+02 0.  0.
          5    1    3    3  502    0  0.18914810939E+02  0.83920530575E+02 -0.10339444658E+03  0.13456711898E+03  0.41800000000E+01 0.  1.
         -5    1    3    3    0  502 -0.26117899816E+02 -0.31180083253E+02 -0.12178905901E+03  0.12846941105E+03  0.41800000000E+01 0.  1.
        -11    1    4    4    0    0  0.44830670826E+02  0.17612958344E+01 -0.24111705867E+02  0.50933933380E+02  0.00000000000E+00 0.  1.
         11    1    4    4    0    0 -0.37627581948E+02 -0.54501743157E+02 -0.12729917717E+02  0.67441276200E+02  0.00000000000E+00 0. -1.
</event>
<event>
 8    1  0.6692409E-009  0.2763399E+03  0.7561462E-02  0.1097705E+00
          1   -1    0    0  501    0  0.00000000000E+00  0.00000000000E+00  0.62594981887E+03  0.62594981887E+03  0.00000000000E+00 0. -1.
         -1   -1    0    0    0  501 -0.00000000000E+00 -0.00000000000E+00 -0.14712916764E+03  0.14712916764E+03  0.00000000000E+00 0.  1.
         25    2    1    2    0    0 -0.89987917623E+02  0.24625394686E+03  0.10894860958E+03  0.31023724968E+03  0.12505406790E+03 0.  0.
         23    2    1    2    0    0  0.89987917623E+02 -0.24625394686E+03  0.36987204165E+03  0.46284173682E+03  0.93157471459E+02 0.  0.
          5    1    3    3  502    0 -0.11498554022E+03  0.19342811545E+03  0.11235007579E+03  0.25154745524E+03  0.41800000000E+01 0. -1.
         -5    1    3    3    0  502  0.24997622597E+02  0.52825831406E+02 -0.34014662103E+01  0.58689794442E+02  0.41800000000E+01 0. -1.
        -11    1    4    4    0    0  0.11377850857E+02 -0.11834782941E+03  0.10617164990E+03  0.15939913255E+03  0.00000000000E+00 0.  1.
         11    1    4    4    0    0  0.78610066766E+02 -0.12790611745E+03  0.26370039175E+03  0.30344260427E+03  0.00000000000E+00 0. -1.
</event>
<event>
 8    1  0.6692409E-009  0.1158879E+03  0.7561462E-02  0.1250039E+00
          2   -1    0    0  501    0  0.00000000000E+00  0.00000000000E+00  0.44892075903E+03  0.44892075903E+03  0.00000000000E+00 0. -1.
         -2   -1    0    0    0  501 -0.00000000000E+00 -0.00000000000E+00 -0.41229413717E+02  0.41229413717E+02  0.00000000000E+00 0.  1.
         25    2    1    2    0    0  0.65482989323E+01  0.68272480281E+02  0.30126392949E+03  0.33333402090E+03  0.12509037730E+03 0.  0.
         23    2    1    2    0    0 -0.65482989323E+01 -0.68272480281E+02  0.10642741582E+03  0.15681615184E+03  0.92522963953E+02 0.  0.
          5    1    3    3  502    0  0.21635509937E+02  0.88481341315E+02  0.29238316746E+03  0.30627182708E+03  0.41800000000E+01 0.  1.
         -5    1    3    3    0  502 -0.15087211004E+02 -0.20208861034E+02  0.88807620394E+01  0.27062193824E+02  0.41800000000E+01 0.  1.
        -11    1    4    4    0    0 -0.47564543030E+02 -0.53119356265E+02  0.69735415772E+02  0.99735048888E+02  0.00000000000E+00 0. -1.
         11    1    4    4    0    0  0.41016244098E+02 -0.15153124015E+02  0.36692000047E+02  0.57081102956E+02  0.00000000000E+00 0.  1.
</event>
<event>
 8    1  0.6692409E-009  0.1320058E+03  0.7561462E-02  0.1224509E+00
          3   -1    0    0  501    0  0.00000000000E+00  0.00000000000E+00  0.14306875092E+04  0.14306875092E+04  0.00000000000E+00 0. -1.
         -3   -1    0    0    0  501 -0.00000000000E+00 -0.00000000000E+00 -0.12702183585E+02  0.12702183585E+02  0.00000000000E+00 0.  1.
         25    2    1    2    0    0 -0.75036761576E+02  0.22727340937E+02  0.81813231192E+03  0.83134601960E+03  0.12509467165E+03 0.  0.
         23    2    1    2    0    0  0.75036761576E+02 -0.22727340937E+02  0.59985301370E+03  0.61204367319E+03  0.92880419020E+02 0.  0.
          5    1    3    3  502    0 -0.28677811800E+01 -0.44657407010E+02  0.35163583083E+03  0.35449645710E+03  0.41800000000E+01 0.  1.
         -5    1    3    3    0  502 -0.72168980396E+02  0.67384747947E+02  0.46649648109E+03  0.47684956250E+03  0.41800000000E+01 0.  1.
        -11    1    4    4    0    0  0.77332578763E+02  0.18040714084E+02  0.43651911800E+03  0.44368314762E+03  0.00000000000E+00 0. -1.
         11    1    4    4    0    0 -0.22958171870E+01 -0.40768055021E+02  0.16333389570E+03  0.16836052557E+03  0.00000000000E+00 0.  1.
</event>
<event>
 8    1  0.6692409E-009  0.1176701E+03  0.7561462E-02  0.1246991E+00
          1   -1    0    0  501    0  0.00000000000E+00  0.00000000000E+00  0.22922839125E+03  0.22922839125E+03  0.00000000000E+00 0. -1.
         -1   -1    0    0    0  501 -0.00000000000E+00 -0.00000000000E+00 -0.76135365844E+02  0.76135365844E+02  0.00000000000E+00 0.  1.
         25    2    1    2    0    0  0.40201908317E+02  0.65790089138E+02  0.64343387921E+02  0.16041337461E+03  0.12509136630E+03 0.  0.
         23    2    1    2    0    0 -0.40201908317E+02 -0.65790089138E+02  0.88749637480E+02  0.14495038248E+03  0.84791426266E+02 0.  0.
          5    1    3    3  502    0  0.41500579011E+02  0.90293212994E+02  0.82808291268E+02  0.12942120334E+03  0.41800000000E+01 0.  1.
         -5    1    3    3    0  502 -0.12986706946E+01 -0.24503123856E+02 -0.18464903346E+02  0.30992171267E+02  0.41800000000E+01 0.  1.
        -11    1    4    4    0    0 -0.55502556988E+02 -0.74867273277E+02  0.59047818221E+02  0.11032808925E+03  0.00000000000E+00 0.  1.
         11    1    4    4    0    0  0.15300648671E+02  0.90771841394E+01  0.29701819259E+02  0.34622293237E+02  0.00000000000E+00 0. -1.
</event>
<event>
 8    1  0.6692409E-009  0.1258916E+03  0.7561462E-02  0.1233682E+00
         -1   -1    0    0    0  501 -0.00000000000E+00  0.00000000000E+00  0.41177028451E+02  0.41177028451E+02  0.00000000000E+00 0.  1.
          1   -1    0    0  501    0  0.00000000000E+00 -0.00000000000E+00 -0.46778318431E+03  0.46778318431E+03  0.00000000000E+00 0. -1.
         25    2    1    2    0    0  0.38046255551E+02  0.67248146758E+02 -0.30000262792E+03  0.33409411969E+03  0.12508986071E+03 0.  0.
         23    2    1    2    0    0 -0.38046255551E+02 -0.67248146758E+02 -0.12660352794E+03  0.17486609307E+03  0.92627568326E+02 0.  0.
          5    1    3    3  502    0  0.63134833610E+02  0.81413354110E+02 -0.15476413676E+03  0.18596653427E+03  0.41800000000E+01 0.  1.
         -5    1    3    3    0  502 -0.25088578059E+02 -0.14165207353E+02 -0.14523849116E+03  0.14812758542E+03  0.41800000000E+01 0.  1.
        -11    1    4    4    0    0 -0.76519749365E+01 -0.84342515039E+02 -0.99756633399E+02  0.13085716820E+03  0.00000000000E+00 0.  1.
         11    1    4    4    0    0 -0.30394280615E+02  0.17094368281E+02 -0.26846894539E+02  0.44008924861E+02  0.00000000000E+00 0. -1.
</event>
<event>
 8    1  0.6692409E-009  0.1206482E+03  0.7561462E-02  0.1242032E+00
          1   -1    0    0  501    0  0.00000000000E+00  0.00000000000E+00  0.23540513749E+02  0.23540513749E+02  0.00000000000E+00 0. -1.
         -1   -1    0    0    0  501 -0.00000000000E+00 -0.00000000000E+00 -0.68853599219E+03  0.68853599219E+03  0.00000000000E+00 0.  1.
         25    2    1    2    0    0 -0.30285077952E+02 -0.48364561877E+02 -0.27664556884E+03  0.30892803950E+03  0.12508975193E+03 0.  0.
         23    2    1    2    0    0  0.30285077952E+02  0.48364561877E+02 -0.38834990960E+03  0.40314846644E+03  0.91960409501E+02 0.  0.
          5    1    3    3  502    0 -0.24070511667E+01  0.41518773128E+02 -0.10716230685E+03  0.11502536602E+03  0.41800000000E+01 0. -1.
         -5    1    3    3    0  502 -0.27878026786E+02 -0.89883335004E+02 -0.16948326199E+03  0.19390267348E+03  0.41800000000E+01 0. -1.
        -11    1    4    4    0    0 -0.26011305823E+02  0.40954011478E+02 -0.22618495018E+03  0.23132974468E+03  0.00000000000E+00 0.  1.
         11    1    4    4    0    0  0.56296383775E+02  0.74105503989E+01 -0.16216495942E+03  0.17181872176E+03  0.00000000000E+00 0. -1.
</event>
<event>
 8    1  0.6692409E-009  0.1714572E+03  0.7561462E-02  0.1176337E+00
          1   -1    0    0  501    0  0.00000000000E+00  0.00000000000E+00  0.50293314821E+03  0.50293314821E+03  0.00000000000E+00 0. -1.
         -1   -1    0    0    0  501 -0.00000000000E+00 -0.00000000000E+00 -0.90529679550E+02  0.90529679550E+02  0.00000000000E+00 0.  1.
         25    2    1    2    0    0 -0.12964759351E+03 -0.67076696253E+02  0.37012276312E+03  0.41706808989E+03  0.12508856916E+03 0.  0.
         23    2    1    2    0    0  0.12964759351E+03  0.67076696253E+02  0.42280705531E+02  0.17639473787E+03  0.89552575639E+02 0.  0.
          5    1    3    3  502    0 -0.14175565340E+03 -0.29808532343E+02  0.23295342325E+03  0.27435011149E+03  0.41800000000E+01 0.  1.
         -5    1    3    3    0  502  0.12108059891E+02 -0.37268163909E+02  0.13716933987E+03  0.14271797839E+03  0.41800000000E+01 0.  1.
        -11    1    4    4    0    0  0.40740756946E+02 -0.88309687307E+01 -0.17359551031E+02  0.45156940742E+02  0.00000000000E+00 0.  1.
         11    1    4    4    0    0  0.88906836566E+02  0.75907664984E+02  0.59640256562E+02  0.13123779713E+03  0.00000000000E+00 0. -1.
</event>
<event>
 8    1  0.6692409E-009  0.9255703E+02  0.7561462E-02  0.1296775E+00
         -1   -1    0    0    0  501 -0.00000000000E+00  0.00000000000E+00  0.71583575590E+02  0.71583575590E+02  0.00000000000E+00 0.  1.
          1   -1    0    0  501    0  0.00000000000E+00 -0.00000000000E+00 -0.22043163125E+03  0.22043163125E+03  0.00000000000E+00 0. -1.
         25    2    1    2    0    0  0.28130793814E+02 -0.36782625089E+02 -0.45805663424E+02  0.14103196944E+03  0.12509018560E+03 0.  0.
         23    2    1    2    0    0 -0.28130793814E+02  0.36782625089E+02 -0.10304239224E+03  0.15098323740E+03  0.10016935814E+03 0.  0.
          5    1    3    3  502    0  0.32853025921E+02  0.23673941594E+02  0.24954186955E+02  0.47748933699E+02  0.41800000000E+01 0.  1.
         -5    1    3    3    0  502 -0.47222321072E+01 -0.60456566683E+02 -0.70759850379E+02  0.93283035739E+02  0.41800000000E+01 0.  1.
        -11    1    4    4    0    0 -0.41400810468E+02 -0.31693824728E+01 -0.10057938692E+03  0.10881307443E+03  0.00000000000E+00 0. -1.
         11    1    4    4    0    0  0.13270016654E+02  0.39952007561E+02 -0.24630053145E+01  0.42170162975E+02  0.00000000000E+00 0.  1.
</event>
<event>
 8    1  0.6692409E-009  0.1710271E+03  0.7561462E-02  0.1176781E+00
         -3   -1    0    0    0  501 -0.00000000000E+00  0.00000000000E+00  0.68125980398E+02  0.68125980398E+02  0.00000000000E+00 0.  1.
          3   -1    0    0  501    0  0.00000000000E+00 -0.00000000000E+00 -0.48260681865E+03  0.48260681865E+03  0.00000000000E+00 0. -1.
         25    2    1    2    0    0 -0.86665174526E+01  0.14236239778E+03 -0.25671257881E+03  0.31918610972E+03  0.12504504665E+03 0.  0.
         23    2    1    2    0    0  0.86665174526E+01 -0.14236239778E+03 -0.15776825944E+03  0.23154668933E+03  0.91547172683E+02 0.  0.
          5    1    3    3  502    0 -0.54780209264E+02  0.11241948266E+03 -0.12721725698E+03  0.17843966566E+03  0.41800000000E+01 0. -1.
         -5    1    3    3    0  502  0.46113691811E+02  0.29942915123E+02 -0.12949532183E+03  0.14074644406E+03  0.41800000000E+01 0. -1.
        -11    1    4    4    0    0 -0.28731218873E+02 -0.10524708424E+03 -0.13646372231E+03  0.17471342017E+03  0.00000000000E+00 0. -1.
         11    1    4    4    0    0  0.37397736326E+02 -0.37115313545E+02 -0.21304537128E+02  0.56833269166E+02  0.00000000000E+00 0.  1.
</event>
<event>
 8    1  0.6692409E-009  0.8094540E+02  0.7561462E-02  0.1326390E+00
          2   -1    0    0  501    0  0.00000000000E+00  0.00000000000E+00  0.10699634023E+03  0.10699634023E+03  0.00000000000E+00 0. -1.
         -2   -1    0    0    0  501 -0.00000000000E+00 -0.00000000000E+00 -0.12535951050E+03  0.12535951050E+03  0.00000000000E+00 0.  1.
         25    2    1    2    0    0  0.18869995033E+02 -0.13839530940E+02 -0.37791709057E+02  0.13275319408E+03  0.12509031911E+03 0.  0.
         23    2    1    2    0    0 -0.18869995033E+02  0.13839530940E+02  0.19428538792E+02  0.99602656656E+02  0.94845198951E+02 0.  0.
          5    1    3    3  502    0  0.33266793648E+02  0.26150284575E+02  0.30415282005E+02  0.52278855405E+02  0.41800000000E+01 0. -1.
         -5    1    3    3    0  502 -0.14396798615E+02 -0.39989815515E+02 -0.68206991062E+02  0.80474338674E+02  0.41800000000E+01 0. -1.
        -11    1    4    4    0    0 -0.42058420411E+02  0.27020364289E+02 -0.18440706849E+02  0.53282928626E+02  0.00000000000E+00 0.  1.
         11    1    4    4    0    0  0.23188425379E+02 -0.13180833350E+02  0.37869245641E+02  0.46319728030E+02  0.00000000000E+00 0. -1.
</event>
<event>
 8    1  0.6692409E-009  0.1110124E+03  0.7561462E-02  0.1258707E+00
         -3   -1    0    0    0  501 -0.00000000000E+00  0.00000000000E+00  0.43291912013E+03  0.43291912013E+03  0.00000000000E+00 0.  1.
          3   -1    0    0  501    0  0.00000000000E+00 -0.00000000000E+00 -0.30489686474E+02  0.30489686474E+02  0.00000000000E+00 0. -1.
         25    2    1    2    0    0  0.51560394426E+01  0.39655187859E+02  0.24023838316E+03  0.27378927134E+03  0.12508783190E+03 0.  0.
         23    2    1    2    0    0 -0.51560394426E+01 -0.39655187859E+02  0.16219105050E+03  0.18961953527E+03  0.89724648933E+02 0.  0.
          5    1    3    3  502    0 -0.39377949470E+02  0.67498010405E+02  0.15365126633E+03  0.17243198183E+03  0.41800000000E+01 0. -1.
         -5    1    3    3    0  502  0.44533988913E+02 -0.27842822546E+02  0.86587116834E+02  0.10135728951E+03  0.41800000000E+01 0. -1.
        -11    1    4    4    0    0  0.37921571276E+02 -0.11534143658E+02  0.36801760408E+02  0.54087444080E+02  0.00000000000E+00 0.  1.
         11    1    4    4    0    0 -0.43077610718E+02 -0.28121044202E+02  0.12538929009E+03  0.13553209119E+03  0.00000000000E+00 0. -1.
</event>
<event>
 8    1  0.6692409E-009  0.1137714E+03  0.7561462E-02  0.1253741E+00
         -1   -1    0    0    0  501 -0.00000000000E+00  0.00000000000E+00  0.10442700744E+03  0.10442700744E+03  0.00000000000E+00 0.  1.
          1   -1    0    0  501    0  0.00000000000E+00 -0.00000000000E+00 -0.17933107554E+03  0.17933107554E+03  0.00000000000E+00 0. -1.
         25    2    1    2    0    0 -0.72830719376E+02  0.40628329624E+02 -0.47129334549E+02  0.15756526257E+03  0.12510260965E+03 0.  0.
         23    2    1    2    0    0  0.72830719376E+02 -0.40628329624E+02 -0.27774733549E+02  0.12619282040E+03  0.90544007229E+02 0.  0.
          5    1    3    3  502    0 -0.78254063787E+02  0.75307283525E+02 -0.54303993725E+02  0.12149601469E+03  0.41800000000E+01 0.  1.
         -5    1    3    3    0  502  0.54233444115E+01 -0.34678953901E+02  0.71746591757E+01  0.36069247879E+02  0.41800000000E+01 0.  1.
        -11    1    4    4    0    0  0.29846601693E+02 -0.14215785122E+02  0.33335249819E+02  0.46948344590E+02  0.00000000000E+00 0.  1.
         11    1    4    4    0    0  0.42984117683E+02 -0.26412544502E+02 -0.61109983367E+02  0.79244475815E+02  0.00000000000E+00 0. -1.
</event>
<event>
 8    1  0.6692409E-009  0.1267559E+03  0.7561462E-02  0.1232350E+00
          2   -1    0    0  501    0  0.00000000000E+00  0.00000000000E+00  0.63296665347E+03  0.63296665347E+03  0.00000000000E+00 0. -1.
         -2   -1    0    0    0  501 -0.00000000000E+00 -0.00000000000E+00 -0.60391082441E+02  0.60391082441E+02  0.00000000000E+00 0.  1.
         25    2    1    2    0    0  0.14595016244E+02  0.96590076179E+02  0.70097410531E+02  0.17350140040E+03  0.12508569727E+03 0.  0.
         23    2    1    2    0    0 -0.14595016244E+02 -0.96590076179E+02  0.50247816050E+03  0.51985633551E+03  0.90684345275E+02 0.  0.
          5    1    3    3  502    0  0.61850185024E+02  0.32942018560E+02  0.62084474191E+02  0.93715400601E+02  0.41800000000E+01 0. -1.
         -5    1    3    3    0  502 -0.47255168780E+02  0.63648057619E+02  0.80129363399E+01  0.79785999798E+02  0.41800000000E+01 0. -1.
        -11    1    4    4    0    0 -0.13264255845E+02 -0.83392082420E+01  0.80551959251E+01  0.17617294305E+02  0.00000000000E+00 0.  1.
         11    1    4    4    0    0 -0.13307603994E+01 -0.88250867937E+02  0.49442296457E+03  0.50223904120E+03  0.00000000000E+00 0. -1.
</event>
<event>
 7    1  0.6692409E-009  0.1182891E+03  0.7561462E-02  0.1245946E+00
          2   -1    0    0  501    0  0.00000000000E+00  0.00000000000E+00  0.43177773930E+03  0.43177773930E+03  0.00000000000E+00 0. -1.
         -2   -1    0    0    0  501 -0.00000000000E+00 -0.00000000000E+00 -0.53510254754E+02  0.53510254754E+02  0.00000000000E+00 0.  1.
         23    2    1    2    0    0  0.13801319356E+01 -0.76598528776E+02  0.29030124273E+03  0.31435393542E+03  0.93136168089E+02 0.  0.
          5    1    1    2  502    0 -0.23011062224E+02  0.10055627665E+03  0.91813021485E+02  0.13815996914E+03  0.41800000000E+01 0.  1.
         -5    1    1    2    0  502  0.21630930289E+02 -0.23957747870E+02 -0.38467796774E+01  0.32774089493E+02  0.41800000000E+01 0.  1.
        -11    1    3    3    0    0  0.31738363843E+02 -0.55112801605E+02  0.25592301334E+03  0.26370690814E+03  0.00000000000E+00 0. -1.
         11    1    3    3    0    0 -0.30358231907E+02 -0.21485727171E+02  0.34378229391E+02  0.50647027284E+02  0.00000000000E+00 0.  1.
</event>
<event>
 8    1  0.6692409E-009  0.1204665E+03  0.7561462E-02  0.1242330E+00
          1   -1    0    0  501    0  0.00000000000E+00  0.00000000000E+00  0.65871900145E+03  0.65871900145E+03  0.00000000000E+00 0. -1.
         -1   -1    0    0    0  501 -0.00000000000E+00 -0.00000000000E+00 -0.44283204294E+02  0.44283204294E+02  0.00000000000E+00 0.  1.
         25    2    1    2    0    0  0.25490191297E+01  0.85231898536E+02  0.53871598187E+03  0.55958284209E+03  0.12508826490E+03 0.  0.
         23    2    1    2    0    0 -0.25490191297E+01 -0.85231898536E+02  0.75719815289E+02  0.14341936365E+03  0.86974993056E+02 0.  0.
          5    1    3    3  502    0 -0.41381617530E+02  0.59961080789E+02  0.14231893452E+03  0.15993724082E+03  0.41800000000E+01 0.  1.
         -5    1    3    3    0  502  0.43930636659E+02  0.25270817747E+02  0.39639704735E+03  0.39964560127E+03  0.41800000000E+01 0.  1.
        -11    1    4    4    0    0  0.33794073896E+02 -0.12928576141E+02  0.61488046902E+01  0.36701434721E+02  0.00000000000E+00 0.  1.
         11    1    4    4    0    0 -0.36343093025E+02 -0.72303322395E+02  0.69571010598E+02  0.10671792893E+03  0.00000000000E+00 0. -1.
</event>
<event>
 8    1  0.6692409E-009  0.1474196E+03  0.7561462E-02  0.1203680E+00
          2   -1    0    0  501    0  0.00000000000E+00  0.00000000000E+00  0.86041174925E+03  0.86041174925E+03  0.00000000000E+00 0. -1.
         -2   -1    0    0    0  501 -0.00000000000E+00 -0.00000000000E+00 -0.31365734236E+02  0.31365734236E+02  0.00000000000E+00 0.  1.
         25    2    1    2    0    0 -0.22646338466E+02  0.11600048015E+03  0.53613441957E+03  0.56307755024E+03  0.12508894313E+03 0.  0.
         23    2    1    2    0    0  0.22646338466E+02 -0.11600048015E+03  0.29291159544E+03  0.32869993325E+03  0.90980631624E+02 0.  0.
          5    1    3    3  502    0  0.44833948895E+02  0.19416575089E+02  0.22673763226E+03  0.23197955221E+03  0.41800000000E+01 0.  1.
         -5    1    3    3    0  502 -0.67480287361E+02  0.96583905062E+02  0.30939678731E+03  0.33109799803E+03  0.41800000000E+01 0.  1.
        -11    1    4    4    0    0  0.38257141286E+02 -0.80745708143E+02  0.26871347376E+03  0.28317911156E+03  0.00000000000E+00 0. -1.
         11    1    4    4    0    0 -0.15610802820E+02 -0.35254772008E+02  0.24198121677E+02  0.45520821683E+02  0.00000000000E+00 0.  1.
</event>
<event>
 8    1  0.6692409E-009  0.1143907E+03  0.7561462E-02  0.1252648E+00
         -1   -1    0    0    0  501 -0.00000000000E+00  0.00000000000E+00  0.50418182027E+03  0.50418182027E+03  0.00000000000E+00 0.  1.
          1   -1    0    0  501    0  0.00000000000E+00 -0.00000000000E+00 -0.46771522020E+02  0.46771522020E+02  0.00000000000E+00 0. -1.
         25    2    1    2    0    0 -0.65122142748E+02 -0.58362501869E+00  0.91222981555E+02  0.16796158697E+03  0.12509287845E+03 0.  0.
         23    2    1    2    0    0  0.65122142748E+02  0.58362501869E+00  0.36618731670E+03  0.38299175532E+03  0.91369029993E+02 0.  0.
          5    1    3    3  502    0 -0.86250035828E+02 -0.24704963907E+02  0.10004099463E+03  0.13444358270E+03  0.41800000000E+01 0. -1.
         -5    1    3    3    0  502  0.21127893080E+02  0.24121338888E+02 -0.88180130731E+01  0.33518004271E+02  0.41800000000E+01 0. -1.
        -11    1    4    4    0    0  0.73733732566E+02  0.27248315360E+02  0.31474850327E+03  0.32441602045E+03  0.00000000000E+00 0.  1.
         11    1    4    4    0    0 -0.86115898183E+01 -0.26664690341E+02  0.51438813422E+02  0.58575734878E+02  0.00000000000E+00 0. -1.
</event>
<event>
 8    1  0.6692409E-009  0.9010978E+02  0.7561462E-02  0.1302586E+00
         -2   -1    0    0    0  501 -0.00000000000E+00  0.00000000000E+00  0.41691283030E+02  0.41691283030E+02  0.00000000000E+00 0.  1.
          2   -1    0    0  501    0  0.00000000000E+00 -0.00000000000E+00 -0.31749219964E+03  0.31749219964E+03  0.00000000000E+00 0. -1.
         25    2    1    2    0    0  0.24856985150E+02  0.88031524234E+00 -0.10953990642E+03  0.16812276883E+03  0.12509048579E+03 0.  0.
         23    2    1    2    0    0 -0.24856985150E+02 -0.88031524234E+00 -0.16626101018E+03  0.19106071384E+03  0.90790022572E+02 0.  0.
          5    1    3    3  502    0  0.49463572994E+02  0.21399740636E+02 -0.14544761388E+00  0.54056336424E+02  0.41800000000E+01 0. -1.
         -5    1    3    3    0  502 -0.24606587844E+02 -0.20519425394E+02 -0.10939445881E+03  0.11406643241E+03  0.41800000000E+01 0. -1.
        -11    1    4    4    0    0  0.33324160131E+01 -0.43022427256E+02 -0.83861706284E+02  0.94312353509E+02  0.00000000000E+00 0. -1.
         11    1    4    4    0    0 -0.28189401163E+02  0.42142112014E+02 -0.82399303900E+02  0.96748360327E+02  0.00000000000E+00 0.  1.
</event>
<event>
 7    1  0.6692409E-009  0.1126776E+03  0.7561462E-02  0.1255690E+00
          3   -1    0    0  501    0  0.00000000000E+00  0.00000000000E+00  0.62066021961E+02  0.62066021961E+02  0.00000000000E+00 0. -1.
         -3   -1    0    0    0  501 -0.00000000000E+00 -0.00000000000E+00 -0.37910345252E+03  0.37910345252E+03  0.00000000000E+00 0.  1.
         23    2    1    2    0    0  0.52956562919E+02 -0.90129633650E+02 -0.91941546588E+02  0.16321349082E+03  0.85191825769E+02 0.  0.
          5    1    1    2  502    0  0.10802990852E+02  0.43174154148E+01 -0.14187324929E+03  0.14241079998E+03  0.41800000000E+01 0. -1.
         -5    1    1    2    0  502 -0.63759553771E+02  0.85812218235E+02 -0.83222634679E+02  0.13554518368E+03  0.41800000000E+01 0. -1.
        -11    1    3    3    0    0  0.28781364506E+02 -0.65243233832E+02 -0.72335875702E+01  0.71675458093E+02  0.00000000000E+00 0. -1.
         11    1    3    3    0    0  0.24175198413E+02 -0.24886399818E+02 -0.84707959017E+02  0.91538032724E+02  0.00000000000E+00 0.  1.
</event>
<event>
 8    1  0.6692409E-009  0.1401781E+03  0.7561462E-02  0.1213089E+00
         -1   -1    0    0    0  501 -0.00000000000E+00  0.00000000000E+00  0.71004095366E+02  0.71004095366E+02  0.00000000000E+00 0.  1.
          1   -1    0    0  501    0  0.00000000000E+00 -0.00000000000E+00 -0.40050342034E+03  0.40050342034E+03  0.00000000000E+00 0. -1.
         25    2    1    2    0    0  0.11694708843E+03 -0.13754716708E+02 -0.24693665494E+03  0.30082110473E+03  0.12509920774E+03 0.  0.
         23    2    1    2    0    0 -0.11694708843E+03  0.13754716708E+02 -0.82562670035E+02  0.17068641097E+03  0.91931728391E+02 0.  0.
          5    1    3    3  502    0  0.61216468510E+02  0.35133399969E+02 -0.20203005863E+03  0.21404538958E+03  0.41800000000E+01 0.  1.
         -5    1    3    3    0  502  0.55730619915E+02 -0.48888116677E+02 -0.44906596311E+02  0.86775715154E+02  0.41800000000E+01 0.  1.
        -11    1    4    4    0    0 -0.53236672623E+02 -0.27076311267E+02 -0.73143042583E+02  0.94430792764E+02  0.00000000000E+00 0.  1.
         11    1    4    4    0    0 -0.63710415802E+02  0.40831027975E+02 -0.94196274518E+01  0.76255618210E+02  0.00000000000E+00 0. -1.
</event>
<event>
 8    1  0.6692409E-009  0.1215191E+03  0.7561462E-02  0.1240612E+00
          1   -1    0    0  501    0  0.00000000000E+00  0.00000000000E+00  0.56955721320E+02  0.56955721320E+02  0.00000000000E+00 0. -1.
         -1   -1    0    0    0  501 -0.00000000000E+00 -0.00000000000E+00 -0.30353934808E+03  0.30353934808E+03  0.00000000000E+00 0.  1.
         25    2    1    2    0    0 -0.39270717721E+02  0.50313619784E+02 -0.19852918049E+03  0.24317698970E+03  0.12509022029E+03 0.  0.
         23    2    1    2    0    0  0.39270717721E+02 -0.50313619784E+02 -0.48054446279E+02  0.11731807970E+03  0.85910723493E+02 0.  0.
          5    1    3    3  502    0  0.33619797827E+02 -0.18471661987E+02 -0.40004430823E+02  0.55581651540E+02  0.41800000000E+01 0. -1.
         -5    1    3    3    0  502 -0.72890515548E+02  0.68785281771E+02 -0.15852474966E+03  0.18759533816E+03  0.41800000000E+01 0. -1.
        -11    1    4    4    0    0  0.53092970563E+02 -0.11853505682E+01 -0.10958947782E+02  0.54225152057E+02  0.00000000000E+00 0.  1.
         11    1    4    4    0    0 -0.13822252841E+02 -0.49128269216E+02 -0.37095498497E+02  0.63092927642E+02  0.00000000000E+00 0. -1.
</event>
<event>
 8    1  0.6692409E-009  0.1088052E+03  0.7561462E-02  0.1262799E+00
          2   -1    0    0  501    0  0.00000000000E+00  0.00000000000E+00  0.57293706812E+03  0.57293706812E+03  0.00000000000E+00 0. -1.
         -2   -1    0    0    0  501 -0.00000000000E+00 -0.00000000000E+00 -0.31528920550E+02  0.31528920550E+02  0.00000000000E+00 0.  1.
         25    2    1    2    0    0  0.33314377219E+02 -0.58883216061E+02  0.21971075582E+03  0.26171915412E+03  0.12508804318E+03 0.  0.
         23    2    1    2    0    0 -0.33314377219E+02  0.58883216061E+02  0.32169739175E+03  0.34274683455E+03  0.97000514804E+02 0.  0.
          5    1    3    3  502    0 -0.15301225631E+02 -0.68888883523E+02  0.19226275394E+03  0.20484688118E+03  0.41800000000E+01 0.  1.
         -5    1    3    3    0  502  0.48615602849E+02  0.10005667463E+02  0.27448001884E+02  0.56872272939E+02  0.41800000000E+01 0.  1.
        -11    1    4    4    0    0 -0.36290207101E+02 -0.18169830590E+01  0.37856558499E+02  0.52472846123E+02  0.00000000000E+00 0.  1.
         11    1    4    4    0    0  0.29758298825E+01  0.60700199120E+02  0.28384083325E+03  0.29027398843E+03  0.00000000000E+00 0. -1.
</event>
<event>
 8    1  0.6692409E-009  0.9793486E+02  0.7561462E-02  0.1284700E+00
          3   -1    0    0  501    0  0.00000000000E+00  0.00000000000E+00  0.54683512219E+02  0.54683512219E+02  0.00000000000E+00 0. -1.
         -3   -1    0    0    0  501 -0.00000000000E+00 -0.00000000000E+00 -0.25022200484E+03  0.25022200484E+03  0.00000000000E+00 0.  1.
         25    2    1    2    0    0 -0.86508039375E+01  0.20284112949E+02 -0.16167837129E+03  0.20560670491E+03  0.12509172521E+03 0.  0.
         23    2    1    2    0    0  0.86508039375E+01 -0.20284112949E+02 -0.33860121335E+02  0.99298812148E+02  0.90705372665E+02 0.  0.
          5    1    3    3  502    0  0.18150468817E+02 -0.49104561745E+02 -0.66995027777E+02  0.85126398076E+02  0.41800000000E+01 0. -1.
         -5    1    3    3    0  502 -0.26801272754E+02  0.69388674694E+02 -0.94683343513E+02  0.12048030684E+03  0.41800000000E+01 0. -1.
        -11    1    4    4    0    0  0.35044788539E+02 -0.23596238965E+02 -0.52076151616E+02  0.67058521190E+02  0.00000000000E+00 0.  1.
         11    1    4    4    0    0 -0.26393984601E+02  0.33121260163E+01  0.18216030282E+02  0.32240290958E+02  0.00000000000E+00 0. -1.
</event>
<event>
 8    1  0.6692409E-009  0.1586344E+03  0.7561462E-02  0.1190247E+00
         -2   -1    0    0    0  501 -0.00000000000E+00  0.00000000000E+00  0.20542323878E+03  0.20542323878E+03  0.00000000000E+00 0.  1.
          2   -1    0    0  501    0  0.00000000000E+00 -0.00000000000E+00 -0.13359061022E+03  0.13359061022E+03  0.00000000000E+00 0. -1.
         25    2    1    2    0    0  0.11804903798E+03  0.33786210457E+02  0.15594030936E+02  0.17597512983E+03  0.12508792561E+03 0.  0.
         23    2    1    2    0    0 -0.11804903798E+03 -0.33786210457E+02  0.56238597621E+02  0.16303871916E+03  0.91333239835E+02 0.  0.
          5    1    3    3  502    0 -0.15531180007E+02 -0.18880814998E+02 -0.15163112670E+02  0.29070519659E+02  0.41800000000E+01 0. -1.
         -5    1    3    3    0  502  0.13358021799E+03  0.52667025456E+02  0.30757143606E+02  0.14690461017E+03  0.41800000000E+01 0. -1.
        -11    1    4    4    0    0 -0.65606732992E+02  0.24846046604E+02  0.76277343665E+01  0.70567356315E+02  0.00000000000E+00 0.  1.
         11    1    4    4    0    0 -0.52442304988E+02 -0.58632257061E+02  0.48610863255E+02  0.92471362847E+02  0.00000000000E+00 0. -1.
</event>
<event>
 7    1  0.6692409E-009  0.6557647E+02  0.7561462E-02  0.1375816E+00
          2   -1    0    0  501    0  0.00000000000E+00  0.00000000000E+00  0.10110060250E+03  0.10110060250E+03  0.00000000000E+00 0. -1.
         -2   -1    0    0    0  501 -0.00000000000E+00 -0.00000000000E+00 -0.12576503702E+03  0.12576503702E+03  0.00000000000E+00 0.  1.
         23    2    1    2    0    0  0.93072851829E+01  0.69389290812E+01  0.19540868903E+02  0.93422996137E+02  0.90615872536E+02 0.  0.
          5    1    1    2  502    0 -0.34866667724E+02 -0.29188430850E+02 -0.74773953073E+02  0.87614299471E+02  0.41800000000E+01 0.  1.
         -5    1    1    2    0  502  0.25559382541E+02  0.22249501769E+02  0.30568649653E+02  0.45828343920E+02  0.41800000000E+01 0.  1.
        -11    1    3    3    0    0  0.23536613448E+02 -0.12970950497E+02 -0.28707342844E+02  0.39323393325E+02  0.00000000000E+00 0.  1.
         11    1    3    3    0    0 -0.14229328265E+02  0.19909879578E+02  0.48248211746E+02  0.54099602812E+02  0.00000000000E+00 0. -1.
</event>
<event>
 8    1  0.6692409E-009  0.1129090E+03  0.7561462E-02  0.1255276E+00
          2   -1    0    0  501    0  0.00000000000E+00  0.00000000000E+00  0.15858171024E+04  0.15858171024E+04  0.00000000000E+00 0. -1.
         -2   -1    0    0    0  501 -0.00000000000E+00 -0.00000000000E+00 -0.12738323475E+02  0.12738323475E+02  0.00000000000E+00 0.  1.
         25    2    1    2    0    0 -0.48008718215E+02  0.40459672981E+02  0.12408235564E+04  0.12486922675E+04  0.12508980292E+03 0.  0.
         23    2    1    2    0    0  0.48008718215E+02 -0.40459672981E+02  0.33225522253E+03  0.34986315831E+03  0.89826914040E+02 0.  0.
          5    1    3    3  502    0  0.68985893383E-01 -0.42213273235E+02  0.29452330777E+03  0.29756245801E+03  0.41800000000E+01 0.  1.
         -5    1    3    3    0  502 -0.48077704109E+02  0.82672946216E+02  0.94630024860E+03  0.95112980953E+03  0.41800000000E+01 0.  1.
        -11    1    4    4    0    0 -0.10755346266E+02 -0.24532437294E+02  0.25022246271E+02  0.36655569308E+02  0.00000000000E+00 0.  1.
         11    1    4    4    0    0  0.58764064482E+02 -0.15927235688E+02  0.30723297626E+03  0.31320758901E+03  0.00000000000E+00 0. -1.
</event>
<event>
 8    1  0.6692409E-009  0.8280774E+02  0.7561462E-02  0.1321267E+00
         -4   -1    0    0    0  501 -0.00000000000E+00  0.00000000000E+00  0.10855008882E+03  0.10855008882E+03  0.00000000000E+00 0. -1.
          4   -1    0    0  501    0  0.00000000000E+00 -0.00000000000E+00 -0.13752732953E+03  0.13752732953E+03  0.00000000000E+00 0.  1.
         25    2    1    2    0    0 -0.21276904362E+02 -0.27675668911E+02 -0.61611129884E+02  0.14375255300E+03  0.12510082278E+03 0.  0.
         23    2    1    2    0    0  0.21276904362E+02  0.27675668911E+02  0.32633889173E+02  0.10232486536E+03  0.90480705343E+02 0.  0.
          5    1    3    3  502    0 -0.17511582721E+02 -0.46777293808E+02 -0.93540381425E+02  0.10612278786E+03  0.41800000000E+01 0. -1.
         -5    1    3    3    0  502 -0.37653216412E+01  0.19101624897E+02  0.31929251540E+02  0.37629765143E+02  0.41800000000E+01 0. -1.
        -11    1    4    4    0    0 -0.31285504831E+02 -0.77039368025E+01  0.19359883322E+02  0.37589074703E+02  0.00000000000E+00 0.  1.
         11    1    4    4    0    0  0.52562409193E+02  0.35379605713E+02  0.13274005851E+02  0.64735790656E+02  0.00000000000E+00 0. -1.
</event>
<event>
 8    1  0.6692409E-009  0.1050652E+03  0.7561462E-02  0.1269991E+00
          1   -1    0    0  501    0  0.00000000000E+00  0.00000000000E+00  0.41082473595E+03  0.41082473595E+03  0.00000000000E+00 0. -1.
         -1   -1    0    0    0  501 -0.00000000000E+00 -0.00000000000E+00 -0.30481334409E+02  0.30481334409E+02  0.00000000000E+00 0.  1.
         25    2    1    2    0    0  0.28967223347E+01 -0.28279964302E+02  0.15493553513E+03  0.20115157049E+03  0.12509511135E+03 0.  0.
         23    2    1    2    0    0 -0.28967223347E+01  0.28279964302E+02  0.22540786640E+03  0.24015449986E+03  0.77828851892E+02 0.  0.
          5    1    3    3  502    0 -0.20709045166E+02 -0.73836927831E+02  0.93639226675E+02  0.12110546493E+03  0.41800000000E+01 0.  1.
         -5    1    3    3    0  502  0.23605767501E+02  0.45556963528E+02  0.61296308458E+02  0.80046105563E+02  0.41800000000E+01 0.  1.
        -11    1    4    4    0    0  0.10792343630E+02  0.52733519698E+02  0.12963581281E+03  0.14036645876E+03  0.00000000000E+00 0.  1.
         11    1    4    4    0    0 -0.13689065965E+02 -0.24453555396E+02  0.95772053593E+02  0.99788041107E+02  0.00000000000E+00 0. -1.
</event>
<event>
 8    1  0.6692409E-009  0.2009122E+03  0.7561462E-02  0.1148972E+00
          2   -1    0    0  501    0  0.00000000000E+00  0.00000000000E+00  0.21882173382E+04  0.21882173382E+04  0.00000000000E+00 0. -1.
         -2   -1    0    0    0  501 -0.00000000000E+00 -0.00000000000E+00 -0.20871797410E+02  0.20871797410E+02  0.00000000000E+00 0.  1.
         25    2    1    2    0    0 -0.16552248946E+03 -0.64885635977E+02  0.13876124082E+04  0.14045367033E+04  0.12508922859E+03 0.  0.
         23    2    1    2    0    0  0.16552248946E+03  0.64885635977E+02  0.77973313259E+03  0.80455243236E+03  0.87823789965E+02 0.  0.
          5    1    3    3  502    0  0.10016935104E+02 -0.21647146724E+02  0.38399377631E+03  0.38475658616E+03  0.41800000000E+01 0.  1.
         -5    1    3    3    0  502 -0.17553942457E+03 -0.43238489253E+02  0.10036186319E+04  0.10197801171E+04  0.41800000000E+01 0.  1.
        -11    1    4    4    0    0  0.12677218132E+03  0.85472512183E+02  0.56101788567E+03  0.58147898013E+03  0.00000000000E+00 0.  1.
         11    1    4    4    0    0  0.38750308149E+02 -0.20586876206E+02  0.21871524692E+03  0.22307345223E+03  0.00000000000E+00 0. -1.
</event>
<event>
 8    1  0.6692409E-009  0.2804879E+03  0.7561462E-02  0.1095423E+00
          1   -1    0    0  501    0  0.00000000000E+00  0.00000000000E+00  0.15729959479E+03  0.15729959479E+03  0.00000000000E+00 0. -1.
         -1   -1    0    0    0  501 -0.00000000000E+00 -0.00000000000E+00 -0.60318240873E+03  0.60318240873E+03  0.00000000000E+00 0.  1.
         25    2    1    2    0    0 -0.69974283638E+02  0.26873682135E+03 -0.32067571098E+03  0.44226406307E+03  0.12509480547E+03 0.  0.
         23    2    1    2    0    0  0.69974283638E+02 -0.26873682135E+03 -0.12520710296E+03  0.31821794045E+03  0.92032382756E+02 0.  0.
          5    1    3    3  502    0  0.59102080857E+01  0.28791466774E+02 -0.11030810424E+03  0.11423322362E+03  0.41800000000E+01 0.  1.
         -5    1    3    3    0  502 -0.75884491724E+02  0.23994535457E+03 -0.21036760674E+03  0.32803083945E+03  0.41800000000E+01 0.  1.
        -11    1    4    4    0    0  0.70113979699E+02 -0.22095564863E+03 -0.13664096211E+03  0.26908757187E+03  0.00000000000E+00 0.  1.
         11    1    4    4    0    0 -0.13969606147E+00 -0.47781172720E+02  0.11433859154E+02  0.49130368579E+02  0.00000000000E+00 0. -1.
</event>
<event>
 8    1  0.6692409E-009  0.1246426E+03  0.7561462E-02  0.1235629E+00
          1   -1    0    0  501    0  0.00000000000E+00  0.00000000000E+00  0.42546485497E+03  0.42546485497E+03  0.00000000000E+00 0. -1.
         -1   -1    0    0    0  501 -0.00000000000E+00 -0.00000000000E+00 -0.60354283396E+02  0.60354283396E+02  0.00000000000E+00 0.  1.
         25    2    1    2    0    0 -0.11136704873E+02  0.11705399924E+03  0.19407057193E+03  0.25910655463E+03  0.12508858793E+03 0.  0.
         23    2    1    2    0    0  0.11136704873E+02 -0.11705399924E+03  0.17103999964E+03  0.22671258374E+03  0.91204436371E+02 0.  0.
          5    1    3    3  502    0 -0.21122304801E+02  0.86965838329E+02  0.33924828005E+02  0.95799661542E+02  0.41800000000E+01 0.  1.
         -5    1    3    3    0  502  0.99855999282E+01  0.30088160908E+02  0.16014574393E+03  0.16330689309E+03  0.41800000000E+01 0.  1.
        -11    1    4    4    0    0  0.27072406187E+02 -0.35629300979E+02  0.12289054242E+03  0.13078397333E+03  0.00000000000E+00 0. -1.
         11    1    4    4    0    0 -0.15935701314E+02 -0.81424698257E+02  0.48149457223E+02  0.95928610401E+02  0.00000000000E+00 0.  1.
</event>
<event>
 8    1  0.6692409E-009  0.1707152E+03  0.7561462E-02  0.1177104E+00
          2   -1    0    0  501    0  0.00000000000E+00  0.00000000000E+00  0.80216854806E+02  0.80216854806E+02  0.00000000000E+00 0.  1.
         -2   -1    0    0    0  501 -0.00000000000E+00 -0.00000000000E+00 -0.47482374686E+03  0.47482374686E+03  0.00000000000E+00 0. -1.
         25    2    1    2    0    0  0.13891701767E+03 -0.82331420332E+02 -0.19993154753E+03  0.28583095660E+03  0.12510120494E+03 0.  0.
         23    2    1    2    0    0 -0.13891701767E+03  0.82331420332E+02 -0.19467534452E+03  0.26920964507E+03  0.92189710178E+02 0.  0.
          5    1    3    3  502    0  0.60769554387E+02 -0.49249465760E+02 -0.11554787878E+02  0.79179758404E+02  0.41800000000E+01 0. -1.
         -5    1    3    3    0  502  0.78147463283E+02 -0.33081954571E+02 -0.18837675966E+03  0.20665119819E+03  0.41800000000E+01 0. -1.
        -11    1    4    4    0    0 -0.30817503368E+02  0.60435691531E+02 -0.11362901498E+03  0.13233950419E+03  0.00000000000E+00 0. -1.
         11    1    4    4    0    0 -0.10809951430E+03  0.21895728801E+02 -0.81046329539E+02  0.13687014088E+03  0.00000000000E+00 0.  1.
</event>
<event>
 8    1  0.6692409E-009  0.1331195E+03  0.7561462E-02  0.1222899E+00
          1   -1    0    0  501    0  0.00000000000E+00  0.00000000000E+00  0.46286145293E+02  0.46286145293E+02  0.00000000000E+00 0. -1.
         -1   -1    0    0    0  501 -0.00000000000E+00 -0.00000000000E+00 -0.46115403052E+03  0.46115403052E+03  0.00000000000E+00 0.  1.
         25    2    1    2    0    0 -0.68484405222E+02  0.67132234949E+02 -0.22925373146E+03  0.27821194757E+03  0.12509102149E+03 0.  0.
         23    2    1    2    0    0  0.68484405222E+02 -0.67132234949E+02 -0.18561415377E+03  0.22922822824E+03  0.94319222937E+02 0.  0.
          5    1    3    3  502    0 -0.97960782204E+02  0.42572773589E+02 -0.11223581187E+03  0.15499388945E+03  0.41800000000E+01 0.  1.
         -5    1    3    3    0  502  0.29476376982E+02  0.24559461361E+02 -0.11701791959E+03  0.12321805812E+03  0.41800000000E+01 0.  1.
        -11    1    4    4    0    0  0.32801862695E+02  0.11211103546E+02 -0.14295882265E+02  0.37496977062E+02  0.00000000000E+00 0. -1.
         11    1    4    4    0    0  0.35682542526E+02 -0.78343338496E+02 -0.17131827151E+03  0.19173125118E+03  0.00000000000E+00 0.  1.
</event>
<event>
 7    1  0.6692409E-009  0.8752237E+02  0.7561462E-02  0.1308965E+00
         -1   -1    0    0    0  501 -0.00000000000E+00  0.00000000000E+00  0.26304100166E+02  0.26304100166E+02  0.00000000000E+00 0. -1.
          1   -1    0    0  501    0  0.00000000000E+00 -0.00000000000E+00 -0.30507524561E+03  0.30507524561E+03  0.00000000000E+00 0.  1.
         25    2    1    2    0    0  0.68117768876E+01 -0.24539880344E+02 -0.17090023927E+03  0.21331477195E+03  0.12509074353E+03 0.  0.
          5    1    3    3  502    0  0.65565798645E+02 -0.69609810205E+01 -0.93156481229E+02  0.11420565487E+03  0.41800000000E+01 0. -1.
         -5    1    3    3    0  502 -0.58754021758E+02 -0.17578899323E+02 -0.77743758042E+02  0.99109117081E+02  0.41800000000E+01 0. -1.
        -11    1    1    2    0    0  0.14288678551E+02 -0.10663873928E+01 -0.25284106429E+02  0.29061822977E+02  0.00000000000E+00 0. -1.
         11    1    1    2    0    0 -0.21100455439E+02  0.25606267736E+02 -0.82586799739E+02  0.89002750846E+02  0.00000000000E+00 0.  1.
</event>
<event>
 8    1  0.6692409E-009  0.2741961E+03  0.7561462E-02  0.1098902E+00
         -2   -1    0    0    0  501 -0.00000000000E+00  0.00000000000E+00  0.14549880185E+03  0.14549880185E+03  0.00000000000E+00 0.  1.
          2   -1    0    0  501    0  0.00000000000E+00 -0.00000000000E+00 -0.11067817747E+04  0.11067817747E+04  0.00000000000E+00 0. -1.
         25    2    1    2    0    0 -0.82224347676E+02 -0.25850551111E+03 -0.57715103561E+02  0.30424450759E+03  0.12509094529E+03 0.  0.
         23    2    1    2    0    0  0.82224347676E+02  0.25850551111E+03 -0.90356786929E+03  0.94803606896E+03  0.93549724781E+02 0.  0.
          5    1    3    3  502    0  0.60621473072E+01 -0.11680372117E+02  0.25655294779E+02  0.29134983662E+02  0.41800000000E+01 0. -1.
         -5    1    3    3    0  502 -0.88286494983E+02 -0.24682513899E+03 -0.83370398340E+02  0.27510952393E+03  0.41800000000E+01 0. -1.
        -11    1    4    4    0    0  0.56965171090E+02  0.13814420594E+03 -0.34300114863E+03  0.37413719451E+03  0.00000000000E+00 0.  1.
         11    1    4    4    0    0  0.25259176585E+02  0.12036130517E+03 -0.56056672066E+03  0.57389887445E+03  0.00000000000E+00 0. -1.
</event>
<event>
 8    1  0.6692409E-009  0.7883290E+02  0.7561462E-02  0.1332397E+00
         -1   -1    0    0    0  501 -0.00000000000E+00  0.00000000000E+00  0.28563892807E+02  0.28563892807E+02  0.00000000000E+00 0.  1.
          1   -1    0    0  501    0  0.00000000000E+00 -0.00000000000E+00 -0.48799121104E+03  0.48799121104E+03  0.00000000000E+00 0. -1.
         25    2    1    2    0    0  0.29886500564E+02  0.16383283002E+02 -0.18720869999E+03  0.22771935296E+03  0.12508953386E+03 0.  0.
         23    2    1    2    0    0 -0.29886500564E+02 -0.16383283002E+02 -0.27221861825E+03  0.28883575089E+03  0.90341020559E+02 0.  0.
          5    1    3    3  502    0 -0.71890064836E+01 -0.14169146797E+02  0.13521402522E+02  0.21277858476E+02  0.41800000000E+01 0. -1.
         -5    1    3    3    0  502  0.37075507048E+02  0.30552429799E+02 -0.20073010251E+03  0.20644149448E+03  0.41800000000E+01 0. -1.
        -11    1    4    4    0    0 -0.60675399305E+02 -0.88667458638E+01 -0.13944551777E+03  0.15233245120E+03  0.00000000000E+00 0. -1.
         11    1    4    4    0    0  0.30788898741E+02 -0.75165371379E+01 -0.13277310048E+03  0.13650329969E+03  0.00000000000E+00 0.  1.
</event>
<event>
 8    1  0.6692409E-009  0.2010226E+03  0.7561462E-02  0.1148879E+00
         -1   -1    0    0    0  501 -0.00000000000E+00  0.00000000000E+00  0.72904815838E+03  0.72904815838E+03  0.00000000000E+00 0.  1.
          1   -1    0    0  501    0  0.00000000000E+00 -0.00000000000E+00 -0.84663510987E+02  0.84663510987E+02  0.00000000000E+00 0. -1.
         25    2    1    2    0    0  0.54149665742E+02 -0.17434167443E+03  0.54185197315E+03  0.58530184672E+03  0.12508990858E+03 0.  0.
         23    2    1    2    0    0 -0.54149665742E+02  0.17434167443E+03  0.10253267424E+03  0.22840982264E+03  0.91273720480E+02 0.  0.
          5    1    3    3  502    0  0.32049827614E+02 -0.12149229925E+02  0.23668520744E+02  0.41862471404E+02  0.41800000000E+01 0. -1.
         -5    1    3    3    0  502  0.22099838128E+02 -0.16219244450E+03  0.51818345241E+03  0.54343937532E+03  0.41800000000E+01 0. -1.
        -11    1    4    4    0    0 -0.67315020702E+02  0.17783630803E+03  0.98801709821E+02  0.21428682258E+03  0.00000000000E+00 0. -1.
         11    1    4    4    0    0  0.13165354960E+02 -0.34946336067E+01  0.37309644183E+01  0.14123000063E+02  0.00000000000E+00 0.  1.
</event>
<event>
 7    1  0.6692409E-009  0.1674353E+03  0.7561462E-02  0.1180549E+00
          2   -1    0    0  501    0  0.00000000000E+00  0.00000000000E+00  0.15307938789E+04  0.15307938789E+04  0.00000000000E+00 0. -1.
         -2   -1    0    0    0  501 -0.00000000000E+00 -0.00000000000E+00 -0.21681979046E+02  0.21681979046E+02  0.00000000000E+00 0.  1.
         25    2    1    2    0    0 -0.44178540754E+02 -0.88792267463E+02  0.10102328743E+04  0.10227674590E+04  0.12508798780E+03 0.  0.
          5    1    3    3  502    0  0.37238187774E+02  0.13094344661E+01  0.20175207499E+03  0.20520665050E+03  0.41800000000E+01 0. -1.
         -5    1    3    3    0  502 -0.81416728529E+02 -0.90101701929E+02  0.80848079928E+03  0.81756080849E+03  0.41800000000E+01 0. -1.
        -11    1    1    2    0    0  0.76725430892E+02 -0.47017187194E+01  0.17756699516E+03  0.19349143566E+03  0.00000000000E+00 0.  1.
         11    1    1    2    0    0 -0.32546890137E+02  0.93493986182E+02  0.32131203040E+03  0.33621696327E+03  0.00000000000E+00 0. -1.
</event>
<event>
 8    1  0.6692409E-009  0.1149071E+03  0.7561462E-02  0.1251743E+00
         -1   -1    0    0    0  501 -0.00000000000E+00  0.00000000000E+00  0.13340124607E+03  0.13340124607E+03  0.00000000000E+00 0.  1.
          1   -1    0    0  501    0  0.00000000000E+00 -0.00000000000E+00 -0.11410763691E+03  0.11410763691E+03  0.00000000000E+00 0. -1.
         25    2    1    2    0    0 -0.41968219234E+02  0.17452921413E+02 -0.26256810318E+02  0.13567188356E+03  0.12510597112E+03 0.  0.
         23    2    1    2    0    0  0.41968219234E+02 -0.17452921413E+02  0.45550419474E+02  0.11183699943E+03  0.91469873919E+02 0.  0.
          5    1    3    3  502    0 -0.73263616030E+02 -0.27067969199E+02 -0.20015331164E+02  0.80736102655E+02  0.41800000000E+01 0.  1.
         -5    1    3    3    0  502  0.31295396796E+02  0.44520890612E+02 -0.62414791540E+01  0.54935780904E+02  0.41800000000E+01 0.  1.
        -11    1    4    4    0    0 -0.10422361705E+02  0.26599516248E+02  0.30425985290E+02  0.41736081141E+02  0.00000000000E+00 0. -1.
         11    1    4    4    0    0  0.52390580939E+02 -0.44052437661E+02  0.15124434184E+02  0.70100918285E+02  0.00000000000E+00 0.  1.
</event>
<event>
 8    1  0.6692409E-009  0.1134217E+03  0.7561462E-02  0.1254362E+00
         -2   -1    0    0    0  501 -0.00000000000E+00  0.00000000000E+00  0.57322340650E+02  0.57322340650E+02  0.00000000000E+00 0.  1.
          2   -1    0    0  501    0  0.00000000000E+00 -0.00000000000E+00 -0.34166013394E+03  0.34166013394E+03  0.00000000000E+00 0. -1.
         25    2    1    2    0    0 -0.54614702656E+02 -0.23706774027E+02 -0.62255625542E+02  0.15188242460E+03  0.12509089139E+03 0.  0.
         23    2    1    2    0    0  0.54614702656E+02  0.23706774027E+02 -0.22208216774E+03  0.24710004998E+03  0.90516123379E+02 0.  0.
          5    1    3    3  502    0 -0.92449923993E+02  0.50301365774E+00 -0.49744324540E+02  0.10506765293E+03  0.41800000000E+01 0.  1.
         -5    1    3    3    0  502  0.37835221338E+02 -0.24209787685E+02 -0.12511301003E+02  0.46814771667E+02  0.41800000000E+01 0.  1.
        -11    1    4    4    0    0  0.45113813329E+02  0.46319094044E+02 -0.21005775845E+03  0.21978393142E+03  0.00000000000E+00 0. -1.
         11    1    4    4    0    0  0.95008893267E+01 -0.22612320016E+02 -0.12024409295E+02  0.27316118564E+02  0.00000000000E+00 0.  1.
</event>
